INSANE! Membrane UpperLeaflet>loPI:POPI:DPPI:PYPI:ERGO=30.0:5.0:3.0:2.0:10.0 LowerLeaflet>PSPI:POPI:POPS:YOPS:POPE:YOPE:POPC:YOPC:ERGO=6.0:14.0:21.0:9.0:9.0:21.0:12.0:48.0:60.0
49074
    1loPI    C1    1  14.596   3.847  10.822 -0.1094 -0.0717 -0.2096
    1loPI    C2    2  14.620   3.949  11.209 -0.0876 -0.3316 -0.1408
    1loPI    C3    3  14.309   4.071  10.989  0.0039 -0.0091 -0.0964
    1loPI   PO4    4  14.857   3.896  10.707  0.0777  0.0250 -0.0566
    1loPI   GL1    5  14.956   3.917  10.268  0.1418  0.0156  0.1173
    1loPI   GL2    6  14.706   3.836  10.232  0.0504 -0.0973 -0.1286
    1loPI   C1A    7  15.074   3.846   9.875 -0.2730 -0.0927  0.3995
    1loPI   C2A    8  15.134   3.800   9.446 -0.0228 -0.2472 -0.2485
    1loPI   C3A    9  15.178   3.523   9.099  0.0244 -0.0263  0.0237
    1loPI   C4A   10  15.255   3.235   8.744  0.3013 -0.4290 -0.0480
    1loPI   C5A   11  15.296   3.337   8.313  0.0281 -0.0258  0.2049
    1loPI   C6A   12  15.090   3.427   7.979  0.0702 -0.0157  0.0985
    1loPI   C1B   13  14.595   3.642   9.843  0.0307 -0.1152 -0.0262
    1loPI   C2B   14  14.646   3.533   9.410  0.1563 -0.0775 -0.1640
    1loPI   C3B   15  14.625   3.242   9.139  0.2314  0.3396 -0.0039
    1loPI   C4B   16  14.713   3.134   8.665 -0.1683  0.1790 -0.1022
    2loPI    C1   17   6.416   3.257  10.759  0.0825  0.0137 -0.0295
    2loPI    C2   18   6.143   3.549  10.731  0.0032 -0.0794 -0.2503
    2loPI    C3   19   6.039   3.191  10.876  0.0888 -0.0154 -0.0259
    2loPI   PO4   20   6.565   3.234  10.395  0.0038 -0.0901 -0.2562
    2loPI   GL1   21   6.422   3.418   9.902 -0.0995  0.0140 -0.1435
    2loPI   GL2   22   6.158   3.526  10.059 -0.1978 -0.1133  0.2141
    2loPI   C1A   23   6.315   3.320   9.502 -0.1969 -0.0168  0.2735
    2loPI   C2A   24   6.263   3.332   9.084 -0.2597 -0.1688 -0.0325
    2loPI   C3A   25   6.552   3.283   8.688  0.1921  0.0712 -0.0271
    2loPI   C4A   26   7.006   3.208   8.621 -0.0263 -0.1202 -0.1418
    2loPI   C5A   27   7.220   2.866   8.567  0.2004  0.0444 -0.1154
    2loPI   C6A   28   7.530   2.752   8.924 -0.0364 -0.0200 -0.2951
    2loPI   C1B   29   5.917   3.329   9.812 -0.0611  0.0004 -0.0505
    2loPI   C2B   30   5.894   3.508   9.352  0.1093 -0.2360  0.0252
    2loPI   C3B   31   5.791   3.729   8.959 -0.1730  0.0692 -0.1264
    2loPI   C4B   32   5.687   3.641   8.540 -0.0829  0.0313 -0.3291
    3loPI    C1   33  16.723   2.751  10.228  0.0245  0.0531 -0.0651
    3loPI    C2   34  16.521   2.867  10.553 -0.1372 -0.0180 -0.1395
    3loPI    C3   35  16.380   2.570  10.325  0.1685 -0.2254 -0.0647
    3loPI   PO4   36  16.904   3.011  10.148  0.2328 -0.1713 -0.1954
    3loPI   GL1   37  16.690   3.270   9.893  0.2805  0.0134  0.0902
    3loPI   GL2   38  16.524   3.478   9.812  0.0076 -0.1193  0.0236
    3loPI   C1A   39  17.014   3.191   9.544  0.0564 -0.0664  0.1917
    3loPI   C2A   40  17.300   3.160   9.276  0.0726  0.1323 -0.0228
    3loPI   C3A   41  17.529   3.292   8.995  0.0145 -0.0079  0.0842
    3loPI   C4A   42  17.541   3.451   8.609 -0.1580 -0.0593  0.0086
    3loPI   C5A   43  17.430   3.679   8.278 -0.1721 -0.2030 -0.0233
    3loPI   C6A   44  17.242   3.704   7.939  0.2474  0.1032  0.3796
    3loPI   C1B   45  16.683   3.720   9.413 -0.0279  0.1444 -0.0220
    3loPI   C2B   46  16.715   4.001   9.046 -0.1475 -0.2172 -0.0524
    3loPI   C3B   47  16.643   3.856   8.624 -0.0278  0.2562  0.0412
    3loPI   C4B   48  16.907   3.841   8.237  0.0704  0.0474 -0.3836
    4loPI    C1   49  12.248  13.773  10.209  0.0026  0.0080 -0.1848
    4loPI    C2   50  11.851  13.727  10.207 -0.0092  0.0713  0.1595
    4loPI    C3   51  12.085  13.440  10.358  0.0826  0.0077 -0.0975
    4loPI   PO4   52  12.195  14.114  10.251 -0.2237 -0.3245  0.0215
    4loPI   GL1   53  12.485  14.469  10.025  0.0459  0.2681  0.0711
    4loPI   GL2   54  12.215  14.356   9.783  0.1436  0.0860 -0.2048
    4loPI   C1A   55  12.681  14.543   9.626  0.0815  0.0356  0.1743
    4loPI   C2A   56  12.967  14.472   9.220 -0.0518 -0.1810  0.0669
    4loPI   C3A   57  13.035  14.539   8.721  0.1537  0.0427 -0.2447
    4loPI   C4A   58  13.002  14.354   8.360  0.0635 -0.1590  0.0457
    4loPI   C5A   59  12.868  14.015   8.031 -0.2729 -0.3343 -0.3764
    4loPI   C6A   60  13.074  13.662   7.791 -0.1622 -0.0319 -0.0033
    4loPI   C1B   61  12.140  14.497   9.389 -0.3522 -0.2115 -0.1241
    4loPI   C2B   62  12.195  14.448   8.966 -0.0090 -0.0315  0.3189
    4loPI   C3B   63  12.127  14.403   8.549 -0.1611  0.3865  0.1875
    4loPI   C4B   64  12.093  14.639   8.215  0.2452 -0.0364  0.0910
    5loPI    C1   65   1.398   1.976  10.484 -0.1185  0.2537 -0.1366
    5loPI    C2   66   1.139   2.232  10.317 -0.2930  0.2206  0.0779
    5loPI    C3   67   1.013   1.873  10.441 -0.0436  0.0138 -0.2501
    5loPI   PO4   68   1.574   1.879  10.347 -0.0183 -0.2894  0.1335
    5loPI   GL1   69   1.777   1.608  10.250 -0.0645  0.0783 -0.1323
    5loPI   GL2   70   1.839   1.840   9.902  0.0752  0.0799 -0.0158
    5loPI   C1A   71   1.737   1.388   9.829 -0.1835  0.0002  0.0200
    5loPI   C2A   72   1.838   1.385   9.284  0.0466  0.0640  0.1181
    5loPI   C3A   73   2.157   1.467   8.946  0.1798 -0.2767 -0.0721
    5loPI   C4A   74   2.109   1.581   8.462  0.1993  0.0782  0.2249
    5loPI   C5A   75   2.194   1.466   8.051  0.1996 -0.0885 -0.0369
    5loPI   C6A   76   2.322   1.384   7.621 -0.1498  0.2181  0.0519
    5loPI   C1B   77   1.786   1.927   9.576  0.0208 -0.1400  0.0749
    5loPI   C2B   78   1.804   2.213   9.288 -0.0709  0.0534 -0.0048
    5loPI   C3B   79   1.880   2.301   8.875  0.0771 -0.2133  0.0326
    5loPI   C4B   80   2.029   2.140   8.541  0.1203 -0.0827  0.1507
    6loPI    C1   81  16.916   5.920  10.572  0.2324  0.0381 -0.0313
    6loPI    C2   82  16.946   5.905  10.970  0.0996  0.1308 -0.0173
    6loPI    C3   83  16.744   6.203  10.796 -0.2395 -0.1593 -0.1337
    6loPI   PO4   84  17.122   5.851  10.394 -0.3299  0.2849 -0.1758
    6loPI   GL1   85  17.211   5.928   9.972 -0.0861  0.0589  0.0484
    6loPI   GL2   86  17.045   5.622   9.978  0.1248  0.0245 -0.0260
    6loPI   C1A   87  17.274   6.185   9.596 -0.1215  0.0934 -0.1502
    6loPI   C2A   88  17.377   6.362   9.257 -0.2155  0.1393 -0.0557
    6loPI   C3A   89  17.195   6.403   8.932 -0.2280  0.1234  0.1992
    6loPI   C4A   90  17.180   6.711   8.538 -0.3142 -0.1108  0.0134
    6loPI   C5A   91  17.273   6.771   8.106 -0.0691 -0.3252 -0.1221
    6loPI   C6A   92  17.348   6.576   7.685 -0.2518 -0.0720  0.2513
    6loPI   C1B   93  16.951   5.660   9.550 -0.5172 -0.2232 -0.0945
    6loPI   C2B   94  17.024   5.965   9.231 -0.0803 -0.2125 -0.2424
    6loPI   C3B   95  16.764   6.250   9.019 -0.1487  0.0486 -0.3165
    6loPI   C4B   96  16.755   6.488   8.594 -0.0494 -0.1031  0.2578
    7loPI    C1   97   1.135  17.810  10.665 -0.1312  0.1938  0.1739
    7loPI    C2   98   1.050  17.495  10.434 -0.2605  0.2810  0.1018
    7loPI    C3   99   1.297  17.453  10.745 -0.2303  0.1219  0.0573
    7loPI   PO4  100   1.271  18.038  10.449  0.1848 -0.2439 -0.1365
    7loPI   GL1  101   1.360  18.023  10.094 -0.2094  0.2878  0.0149
    7loPI   GL2  102   1.260  17.631   9.999  0.1247 -0.0434  0.1009
    7loPI   C1A  103   1.627  17.795   9.758  0.3932 -0.2063  0.1185
    7loPI   C2A  104   1.752  17.814   9.386  0.4908 -0.2485  0.0840
    7loPI   C3A  105   1.753  17.807   8.987  0.1306 -0.1744  0.0171
    7loPI   C4A  106   1.620  17.511   8.582  0.2525 -0.2467 -0.1304
    7loPI   C5A  107   1.760  17.323   8.216  0.1790 -0.0338  0.0671
    7loPI   C6A  108   2.091  16.957   8.148 -0.0595 -0.3971  0.0302
    7loPI   C1B  109   1.211  17.680   9.553  0.2097  0.0784  0.0829
    7loPI   C2B  110   1.259  17.805   9.097  0.2265 -0.1419 -0.1929
    7loPI   C3B  111   1.243  17.906   8.627  0.1782  0.1765  0.0046
    7loPI   C4B  112   1.591  17.935   8.275 -0.0197  0.1974 -0.3298
    8loPI    C1  113   0.276   2.714  10.183 -0.0706 -0.1597 -0.0452
    8loPI    C2  114   0.003   2.600  10.453 -0.0669  0.1153  0.0783
    8loPI    C3  115   0.390   2.611  10.552 -0.0528  0.1026  0.0249
    8loPI   PO4  116   0.116   2.993  10.023  0.0519 -0.1062  0.3406
    8loPI   GL1  117   0.034   3.240   9.705  0.0887  0.1447 -0.0882
    8loPI   GL2  118   0.210   2.960   9.553  0.2141  0.1091 -0.1702
    8loPI   C1A  119   0.194   3.479   9.430  0.1077 -0.0910 -0.1221
    8loPI   C2A  120   0.231   3.719   9.045 -0.2550  0.0669 -0.0149
    8loPI   C3A  121   0.160   4.021   8.695  0.6772  0.0530  0.0123
    8loPI   C4A  122   0.009   4.128   8.269  0.0950  0.2580 -0.1920
    8loPI   C5A  123  -0.273   3.978   7.930  0.0262 -0.1928  0.1045
    8loPI   C6A  124  -0.510   3.962   7.521  0.0311  0.1501  0.0899
    8loPI   C1B  125   0.293   3.022   9.216 -0.1671  0.0598 -0.0409
    8loPI   C2B  126   0.340   2.941   8.750  0.1821 -0.0896  0.0427
    8loPI   C3B  127   0.349   3.076   8.350 -0.0512  0.0655  0.2025
    8loPI   C4B  128   0.060   3.074   7.903  0.1256  0.1430  0.2404
    9loPI    C1  129   1.503  16.898  10.984 -0.1020  0.0311 -0.0684
    9loPI    C2  130   1.581  17.248  11.161  0.2354 -0.0807  0.0120
    9loPI    C3  131   1.615  16.908  11.368 -0.3095 -0.1520 -0.0010
    9loPI   PO4  132   1.631  16.917  10.666 -0.3648  0.4603  0.1965
    9loPI   GL1  133   1.685  17.064  10.273  0.0859 -0.2443 -0.0194
    9loPI   GL2  134   1.431  17.196  10.166 -0.2842 -0.1537 -0.3328
    9loPI   C1A  135   1.602  16.844   9.915 -0.0718 -0.2542 -0.1352
    9loPI   C2A  136   1.463  16.732   9.469  0.0990  0.3764 -0.2009
    9loPI   C3A  137   1.396  16.823   8.994  0.0151  0.1397 -0.0127
    9loPI   C4A  138   1.107  16.821   8.643 -0.1913  0.0719 -0.0388
    9loPI   C5A  139   1.107  16.840   8.188  0.1200  0.0621  0.0837
    9loPI   C6A  140   1.132  16.541   7.871  0.1749  0.1902 -0.1376
    9loPI   C1B  141   1.077  17.000   9.950  0.3337  0.2145 -0.0667
    9loPI   C2B  142   1.063  17.151   9.573  0.0705  0.0732 -0.0461
    9loPI   C3B  143   0.790  17.182   9.188 -0.0759 -0.0515 -0.0513
    9loPI   C4B  144   0.699  17.268   8.743  0.0872 -0.0697 -0.1618
   10loPI    C1  145   5.388   5.537  10.336 -0.0350 -0.0227 -0.0064
   10loPI    C2  146   5.155   5.306  10.565 -0.2227  0.0137 -0.1585
   10loPI    C3  147   5.060   5.690  10.507 -0.0809  0.0493 -0.1579
   10loPI   PO4  148   5.528   5.326  10.253  0.1812 -0.0371  0.0557
   10loPI   GL1  149   5.764   5.110   9.988  0.0835  0.1167 -0.1370
   10loPI   GL2  150   5.464   4.963   9.870  0.0150  0.1252 -0.1059
   10loPI   C1A  151   5.851   5.268   9.579 -0.0252 -0.0639  0.2798
   10loPI   C2A  152   6.056   5.113   9.228 -0.0167  0.0094 -0.1196
   10loPI   C3A  153   6.130   5.205   8.808 -0.0830 -0.4312 -0.1393
   10loPI   C4A  154   6.199   5.126   8.434  0.0943  0.0685 -0.2227
   10loPI   C5A  155   6.213   5.276   7.992  0.0387 -0.2703  0.3896
   10loPI   C6A  156   6.288   5.504   7.573 -0.0827  0.2748 -0.0168
   10loPI   C1B  157   5.481   4.878   9.431  0.2776 -0.2262 -0.0646
   10loPI   C2B  158   5.665   4.944   9.054 -0.0206 -0.2881  0.2866
   10loPI   C3B  159   5.684   5.111   8.641 -0.1132 -0.0210 -0.1253
   10loPI   C4B  160   5.713   5.085   8.157 -0.2525 -0.1166 -0.0487
   11loPI    C1  161  12.577   5.241  10.916 -0.1449 -0.0870 -0.0982
   11loPI    C2  162  12.484   5.577  11.112  0.2150 -0.0210 -0.0337
   11loPI    C3  163  12.197   5.366  10.931 -0.0216  0.2949 -0.0364
   11loPI   PO4  164  12.792   5.306  10.668  0.0410 -0.0555  0.2202
   11loPI   GL1  165  12.697   5.416  10.338  0.0584 -0.1918  0.2264
   11loPI   GL2  166  12.815   5.763  10.301 -0.0198  0.2952  0.1168
   11loPI   C1A  167  12.764   5.316   9.905 -0.3237 -0.2397 -0.0123
   11loPI   C2A  168  12.851   5.270   9.403 -0.4217 -0.2036  0.1438
   11loPI   C3A  169  12.929   5.208   9.010 -0.2148  0.1354  0.0337
   11loPI   C4A  170  12.972   5.286   8.549  0.2057  0.0269  0.0152
   11loPI   C5A  171  13.358   5.047   8.462  0.3578  0.0552  0.0957
   11loPI   C6A  172  13.538   4.897   8.062 -0.0149 -0.1045 -0.0590
   11loPI   C1B  173  13.111   5.610  10.088  0.1207  0.1529  0.2183
   11loPI   C2B  174  13.325   5.440   9.716  0.1176  0.1995 -0.0954
   11loPI   C3B  175  13.409   5.341   9.312 -0.0668  0.3918  0.0231
   11loPI   C4B  176  13.560   5.350   8.903  0.0180 -0.0522 -0.3677
   12loPI    C1  177   4.724   3.547  10.606  0.0523  0.0423 -0.0732
   12loPI    C2  178   4.961   3.865  10.560  0.2327 -0.0760  0.0257
   12loPI    C3  179   4.876   3.731  10.927 -0.0567  0.0158 -0.0057
   12loPI   PO4  180   4.564   3.523  10.369 -0.0603  0.0058  0.1189
   12loPI   GL1  181   4.541   3.219  10.068  0.0640  0.0547  0.1310
   12loPI   GL2  182   4.298   3.294   9.984  0.0693  0.2433 -0.0661
   12loPI   C1A  183   4.626   3.343   9.602 -0.1045  0.0232 -0.1947
   12loPI   C2A  184   4.484   3.285   9.196 -0.0791 -0.0158  0.1960
   12loPI   C3A  185   4.508   3.229   8.843  0.2226  0.1785 -0.0465
   12loPI   C4A  186   4.469   3.203   8.396 -0.0627 -0.0805  0.0004
   12loPI   C5A  187   4.151   3.171   8.126 -0.0683 -0.1589  0.2037
   12loPI   C6A  188   3.819   2.980   7.925  0.2880 -0.0807 -0.1520
   12loPI   C1B  189   4.118   3.087   9.567  0.0778  0.0454 -0.1022
   12loPI   C2B  190   4.004   3.023   9.105  0.1342  0.3753  0.1402
   12loPI   C3B  191   4.144   2.955   8.733 -0.0256 -0.0715 -0.3692
   12loPI   C4B  192   4.115   2.731   8.321  0.0617 -0.4517  0.0195
   13loPI    C1  193   2.507  16.961  10.610 -0.0010 -0.1819 -0.2157
   13loPI    C2  194   2.372  17.314  10.741  0.1891 -0.1707 -0.0449
   13loPI    C3  195   2.134  17.076  10.524 -0.0906 -0.1346  0.2173
   13loPI   PO4  196   2.717  16.897  10.540 -0.1166  0.0955 -0.0587
   13loPI   GL1  197   2.896  16.979  10.184  0.0204 -0.0979 -0.0644
   13loPI   GL2  198   3.231  17.063  10.184 -0.0882 -0.1492  0.0029
   13loPI   C1A  199   2.632  17.114   9.824  0.1723  0.1318  0.1779
   13loPI   C2A  200   2.573  17.167   9.313 -0.3401  0.3689  0.0916
   13loPI   C3A  201   2.646  17.469   8.944  0.0797 -0.0754  0.2729
   13loPI   C4A  202   2.637  17.731   8.528 -0.1782 -0.2384 -0.1103
   13loPI   C5A  203   2.620  17.692   8.129 -0.0293  0.0935 -0.2632
   13loPI   C6A  204   2.281  17.633   7.741 -0.0373 -0.1335 -0.0195
   13loPI   C1B  205   3.402  17.168   9.784  0.0451  0.0320 -0.0454
   13loPI   C2B  206   3.472  17.111   9.390 -0.0408  0.1143  0.1235
   13loPI   C3B  207   3.577  17.184   8.999 -0.1186 -0.1051 -0.1522
   13loPI   C4B  208   3.458  17.182   8.648  0.2135 -0.1695  0.0466
   14loPI    C1  209  15.806  12.112  10.701  0.1235 -0.1311 -0.0131
   14loPI    C2  210  16.153  12.311  10.713  0.0161  0.0550  0.0413
   14loPI    C3  211  15.915  12.304  11.034 -0.0800  0.0163 -0.0301
   14loPI   PO4  212  15.931  11.974  10.424 -0.3299 -0.1239 -0.2130
   14loPI   GL1  213  15.859  12.232  10.003 -0.2597 -0.1070  0.1272
   14loPI   GL2  214  16.162  12.338  10.202 -0.2226  0.0759  0.0013
   14loPI   C1A  215  16.201  12.359   9.716 -0.2780 -0.0964 -0.0369
   14loPI   C2A  216  16.449  12.505   9.455 -0.1123 -0.1578 -0.0888
   14loPI   C3A  217  16.375  12.741   9.080 -0.0801  0.1672 -0.0466
   14loPI   C4A  218  16.007  12.709   8.823 -0.3537  0.1421 -0.0732
   14loPI   C5A  219  15.967  12.576   8.424 -0.0526  0.0316 -0.1395
   14loPI   C6A  220  15.754  12.736   8.044 -0.3255  0.3660  0.1412
   14loPI   C1B  221  16.553  12.578   9.969 -0.0492  0.0468  0.2242
   14loPI   C2B  222  16.749  12.858   9.665 -0.0974 -0.0179 -0.1745
   14loPI   C3B  223  16.759  13.006   9.317 -0.3810  0.2018 -0.0104
   14loPI   C4B  224  16.714  13.002   8.831 -0.0771  0.0256 -0.1402
   15loPI    C1  225  14.729  12.697  10.872  0.0167 -0.0357 -0.1089
   15loPI    C2  226  14.872  12.328  10.817  0.0764  0.0154 -0.3045
   15loPI    C3  227  14.552  12.385  11.049  0.1153 -0.1492 -0.2083
   15loPI   PO4  228  14.730  12.772  10.566  0.2046  0.3146 -0.0777
   15loPI   GL1  229  14.718  12.605  10.152 -0.0860  0.0659 -0.1136
   15loPI   GL2  230  14.404  12.813  10.146  0.0555 -0.0817 -0.0146
   15loPI   C1A  231  14.637  12.661   9.719 -0.1395 -0.2102 -0.0116
   15loPI   C2A  232  14.504  12.734   9.317  0.3591 -0.4761 -0.1463
   15loPI   C3A  233  14.383  12.843   8.864 -0.0387 -0.0595 -0.0372
   15loPI   C4A  234  14.175  12.893   8.428 -0.3292 -0.1098  0.0176
   15loPI   C5A  235  14.012  13.006   7.871 -0.0736  0.0662 -0.0527
   15loPI   C6A  236  13.489  12.815   7.770  0.1851  0.3048 -0.1311
   15loPI   C1B  237  13.915  12.686  10.040 -0.0649 -0.2283  0.3488
   15loPI   C2B  238  13.689  12.484   9.779 -0.1705 -0.0431  0.4081
   15loPI   C3B  239  13.526  12.348   9.369 -0.3367  0.1397 -0.0302
   15loPI   C4B  240  13.662  12.305   9.019 -0.1188  0.0528  0.1182
   16loPI    C1  241   4.798   2.437  10.649  0.1493 -0.1853  0.1005
   16loPI    C2  242   4.675   2.731  10.892 -0.1705 -0.2111 -0.0254
   16loPI    C3  243   4.918   2.444  11.031  0.0008  0.0129  0.1450
   16loPI   PO4  244   4.887   2.559  10.466  0.1263  0.1058  0.1596
   16loPI   GL1  245   4.684   2.402  10.131 -0.1887 -0.1761  0.0814
   16loPI   GL2  246   4.508   2.712  10.162  0.0111  0.2905 -0.2118
   16loPI   C1A  247   4.876   2.484   9.768 -0.0068 -0.0510 -0.0942
   16loPI   C2A  248   5.258   2.358   9.597  0.2875  0.1916 -0.0169
   16loPI   C3A  249   5.461   2.123   9.267  0.1948  0.2954  0.2444
   16loPI   C4A  250   5.502   2.229   8.845 -0.0782 -0.2420  0.5362
   16loPI   C5A  251   5.597   2.139   8.447  0.0039  0.0741  0.1051
   16loPI   C6A  252   5.473   1.777   8.136 -0.1219 -0.2837  0.0123
   16loPI   C1B  253   4.516   2.784   9.744 -0.1486 -0.2390  0.3212
   16loPI   C2B  254   4.507   2.824   9.327 -0.0396 -0.0662  0.1854
   16loPI   C3B  255   4.602   2.762   8.964  0.1266  0.0158  0.2942
   16loPI   C4B  256   4.575   2.658   8.573  0.1646 -0.1406 -0.0018
   17loPI    C1  257  12.428  13.041  10.375 -0.0996 -0.0295  0.0725
   17loPI    C2  258  12.272  12.717  10.550 -0.0494 -0.0193  0.1366
   17loPI    C3  259  12.629  12.855  10.666 -0.0426  0.0225  0.0666
   17loPI   PO4  260  12.348  13.075  10.158 -0.1532 -0.0676  0.0782
   17loPI   GL1  261  11.917  13.215   9.901  0.1576  0.2905  0.3642
   17loPI   GL2  262  12.092  13.442   9.804 -0.0846  0.0656 -0.1312
   17loPI   C1A  263  11.797  12.947   9.531  0.1172  0.1181 -0.0870
   17loPI   C2A  264  12.001  12.872   9.109  0.1395 -0.2648  0.0284
   17loPI   C3A  265  11.952  12.821   8.730  0.0030  0.0475  0.0600
   17loPI   C4A  266  11.754  12.685   8.353  0.0443  0.1299  0.1319
   17loPI   C5A  267  11.762  12.850   7.952  0.3707 -0.0002  0.0842
   17loPI   C6A  268  11.928  12.865   7.663  0.0038  0.1398  0.0353
   17loPI   C1B  269  12.104  13.309   9.364 -0.4601  0.0848 -0.0709
   17loPI   C2B  270  12.017  13.389   8.842 -0.1596 -0.4353 -0.1992
   17loPI   C3B  271  11.966  13.304   8.404  0.0820  0.0231  0.0198
   17loPI   C4B  272  11.854  13.655   8.161 -0.0080  0.2127  0.1152
   18loPI    C1  273  18.031  14.324  10.588  0.1180  0.2308  0.1449
   18loPI    C2  274  18.147  14.106  10.902 -0.0228  0.1402  0.1348
   18loPI    C3  275  17.877  14.398  10.949 -0.1352  0.0464  0.0772
   18loPI   PO4  276  18.060  14.120  10.396  0.0451 -0.0938 -0.1251
   18loPI   GL1  277  17.904  13.634  10.374 -0.2433  0.0989 -0.0412
   18loPI   GL2  278  18.132  13.675  10.135 -0.1967 -0.3729  0.1061
   18loPI   C1A  279  17.652  13.485  10.012 -0.0615 -0.0933 -0.1700
   18loPI   C2A  280  17.666  13.407   9.544  0.1277 -0.1579 -0.3397
   18loPI   C3A  281  17.525  13.430   9.168  0.0976  0.1452  0.0135
   18loPI   C4A  282  17.456  13.545   8.727 -0.3821 -0.2523 -0.0190
   18loPI   C5A  283  17.508  13.273   8.313  0.4522  0.2717 -0.0410
   18loPI   C6A  284  17.648  12.864   8.291  0.1308  0.0701 -0.1468
   18loPI   C1B  285  18.053  13.638   9.732  0.0087  0.2439  0.3124
   18loPI   C2B  286  17.942  13.770   9.234 -0.2390 -0.1385  0.1152
   18loPI   C3B  287  17.790  13.969   8.782  0.0952  0.0332  0.1763
   18loPI   C4B  288  17.695  14.275   8.424 -0.1741 -0.0590 -0.1577
   19loPI    C1  289  16.491  11.773  10.489  0.1695 -0.0125  0.1650
   19loPI    C2  290  16.436  11.431  10.689  0.3365 -0.0648  0.1226
   19loPI    C3  291  16.203  11.746  10.765  0.1819 -0.1875  0.1621
   19loPI   PO4  292  16.777  11.778  10.486 -0.2545  0.0968  0.1418
   19loPI   GL1  293  17.035  11.717  10.066  0.2102  0.1313 -0.2357
   19loPI   GL2  294  16.722  11.925   9.915  0.1671  0.1203 -0.1165
   19loPI   C1A  295  17.205  11.816   9.652  0.1036  0.3193  0.1275
   19loPI   C2A  296  17.434  11.897   9.230  0.1336  0.2938 -0.0009
   19loPI   C3A  297  17.364  11.717   8.812 -0.1720  0.2306  0.3079
   19loPI   C4A  298  17.095  11.880   8.586 -0.0259  0.0924  0.1470
   19loPI   C5A  299  16.752  12.206   8.494  0.3419  0.0242  0.1054
   19loPI   C6A  300  16.518  12.648   8.527 -0.0544  0.0533 -0.1515
   19loPI   C1B  301  16.543  12.038   9.643  0.3965 -0.1585 -0.1748
   19loPI   C2B  302  16.448  12.092   9.173  0.0513 -0.0757 -0.0093
   19loPI   C3B  303  16.347  12.148   8.718 -0.0299 -0.1523 -0.1573
   19loPI   C4B  304  16.014  12.079   8.529  0.2568 -0.0842 -0.1669
   20loPI    C1  305   6.482  16.282  10.357  0.0356  0.2054 -0.0424
   20loPI    C2  306   6.148  16.306  10.577  0.0186 -0.2399 -0.0106
   20loPI    C3  307   6.502  16.400  10.739 -0.0662  0.0481  0.0126
   20loPI   PO4  308   6.336  16.311   9.995  0.0609 -0.1498 -0.1080
   20loPI   GL1  309   6.409  16.573   9.615 -0.0413  0.0894  0.0912
   20loPI   GL2  310   6.163  16.385   9.545 -0.0095 -0.0983  0.2506
   20loPI   C1A  311   6.540  16.756   9.254 -0.1512 -0.0616  0.2452
   20loPI   C2A  312   6.671  16.780   8.848  0.2043 -0.0842 -0.2651
   20loPI   C3A  313   6.867  16.865   8.485  0.0912 -0.1091  0.2598
   20loPI   C4A  314   6.820  16.966   8.032 -0.2675 -0.0105 -0.1816
   20loPI   C5A  315   7.054  16.691   7.610 -0.0914 -0.1935 -0.0758
   20loPI   C6A  316   7.423  16.567   7.555 -0.2304  0.5426  0.1717
   20loPI   C1B  317   6.273  16.310   9.169  0.0103  0.3864 -0.0066
   20loPI   C2B  318   6.257  16.345   8.791 -0.2279 -0.1750 -0.2127
   20loPI   C3B  319   6.489  16.452   8.429  0.1775 -0.1311 -0.0109
   20loPI   C4B  320   6.674  16.521   8.160  0.0636 -0.3401  0.0230
   21loPI    C1  321  17.629   1.972  10.059 -0.2006  0.1515  0.1502
   21loPI    C2  322  17.799   1.905  10.416  0.0328  0.0757  0.0270
   21loPI    C3  323  17.942   2.192  10.177  0.1525 -0.1559 -0.1848
   21loPI   PO4  324  17.617   1.789   9.970  0.2002 -0.0029 -0.2016
   21loPI   GL1  325  17.411   1.813   9.565  0.0916  0.0008  0.0304
   21loPI   GL2  326  17.705   1.623   9.530 -0.2638  0.2499 -0.3364
   21loPI   C1A  327  17.422   1.895   9.126 -0.2275  0.0364 -0.4088
   21loPI   C2A  328  17.464   1.943   8.613  0.1552  0.0001  0.1353
   21loPI   C3A  329  17.506   2.117   8.223  0.1749  0.3548 -0.1824
   21loPI   C4A  330  17.485   2.410   7.888 -0.2384 -0.4806 -0.1401
   21loPI   C5A  331  17.439   2.487   7.482 -0.0114 -0.1116 -0.2442
   21loPI   C6A  332  17.334   2.411   7.044  0.1483  0.1475  0.2907
   21loPI   C1B  333  17.656   1.464   9.204 -0.1758 -0.1631 -0.2425
   21loPI   C2B  334  17.624   1.457   8.861  0.1268 -0.0992  0.1578
   21loPI   C3B  335  17.774   1.600   8.436  0.0088  0.0854 -0.2097
   21loPI   C4B  336  17.905   1.333   8.153 -0.0617  0.0175 -0.0923
   22loPI    C1  337  14.491   8.545  10.765 -0.1894  0.1511 -0.0633
   22loPI    C2  338  14.374   8.559  11.148 -0.0724 -0.0640 -0.0182
   22loPI    C3  339  14.759   8.494  11.058 -0.0403  0.3142 -0.1699
   22loPI   PO4  340  14.310   8.451  10.672 -0.0682  0.3193 -0.0950
   22loPI   GL1  341  14.293   8.183  10.345 -0.1503 -0.1918  0.2007
   22loPI   GL2  342  14.480   8.386  10.122  0.0504  0.1038 -0.1147
   22loPI   C1A  343  14.031   8.180   9.974  0.1884 -0.1786 -0.0794
   22loPI   C2A  344  13.928   8.162   9.533 -0.0946 -0.0150  0.0481
   22loPI   C3A  345  14.008   8.137   9.140  0.3264  0.1444  0.5217
   22loPI   C4A  346  13.841   8.191   8.843  0.1191  0.0723 -0.0121
   22loPI   C5A  347  13.582   7.909   8.572 -0.1832  0.0428  0.0797
   22loPI   C6A  348  13.350   7.751   8.332 -0.3485 -0.3363 -0.2383
   22loPI   C1B  349  14.475   8.311   9.711 -0.0956  0.1795 -0.0610
   22loPI   C2B  350  14.429   8.382   9.256  0.2248  0.2311  0.1410
   22loPI   C3B  351  14.168   8.512   8.925 -0.1539 -0.1705 -0.0563
   22loPI   C4B  352  14.252   8.848   8.769  0.2164  0.2767 -0.1614
   23loPI    C1  353  17.558  13.340  10.618  0.0447 -0.1486 -0.1028
   23loPI    C2  354  17.284  13.350  10.327 -0.0378 -0.2549 -0.0297
   23loPI    C3  355  17.172  13.281  10.705  0.0706 -0.1344  0.0252
   23loPI   PO4  356  17.740  13.041  10.544 -0.0676 -0.0263  0.0574
   23loPI   GL1  357  17.703  12.976  10.173  0.2060  0.0293  0.2628
   23loPI   GL2  358  17.449  12.996   9.993  0.0680 -0.0987  0.2143
   23loPI   C1A  359  17.940  13.130   9.879  0.0229  0.1982  0.1367
   23loPI   C2A  360  18.090  13.123   9.486 -0.3881  0.0190  0.0722
   23loPI   C3A  361  18.000  13.257   9.114 -0.0599  0.1414 -0.1755
   23loPI   C4A  362  17.930  13.304   8.734 -0.2013 -0.1570  0.0633
   23loPI   C5A  363  17.985  13.240   8.237  0.0800 -0.0343  0.1390
   23loPI   C6A  364  18.152  13.266   7.813 -0.0786  0.1680  0.0058
   23loPI   C1B  365  17.599  12.785   9.649  0.0875  0.3003 -0.1791
   23loPI   C2B  366  17.657  12.965   9.270 -0.1206 -0.1791  0.0285
   23loPI   C3B  367  17.687  12.911   8.839  0.0374  0.1805  0.0526
   23loPI   C4B  368  17.502  12.565   8.642  0.0172  0.0540 -0.0210
   24loPI    C1  369   8.675   4.055  10.903 -0.0437  0.0134 -0.0534
   24loPI    C2  370   8.901   4.244  11.173 -0.0073 -0.0876 -0.0127
   24loPI    C3  371   8.880   3.844  11.174  0.0840 -0.0946 -0.2314
   24loPI   PO4  372   8.806   4.193  10.681  0.2303  0.2367 -0.0649
   24loPI   GL1  373   9.126   4.289  10.376  0.0729 -0.0604 -0.0331
   24loPI   GL2  374   9.202   4.570  10.164  0.1967 -0.3039 -0.1492
   24loPI   C1A  375   9.100   4.176   9.909 -0.1054 -0.2758 -0.2107
   24loPI   C2A  376   9.136   4.048   9.500 -0.2425  0.0122 -0.1198
   24loPI   C3A  377   9.136   3.918   9.098  0.3828 -0.1098 -0.3428
   24loPI   C4A  378   8.940   3.685   8.732 -0.0182 -0.2052 -0.3057
   24loPI   C5A  379   8.653   3.529   8.431  0.1109  0.2061  0.1261
   24loPI   C6A  380   8.336   3.604   8.224  0.0955  0.0804  0.1791
   24loPI   C1B  381   9.436   4.577   9.717  0.1725  0.2276  0.0879
   24loPI   C2B  382   9.745   4.702   9.467  0.0705 -0.0347  0.2607
   24loPI   C3B  383   9.839   4.681   9.097 -0.1996  0.2514  0.2561
   24loPI   C4B  384   9.872   4.494   8.703  0.0441  0.1416 -0.0710
   25loPI    C1  385  17.271   3.155  10.582  0.0334 -0.1748  0.1511
   25loPI    C2  386  17.025   2.846  10.647 -0.1186 -0.1327 -0.2034
   25loPI    C3  387  16.878   3.217  10.622  0.0484 -0.0434  0.0988
   25loPI   PO4  388  17.403   3.090  10.297  0.0082 -0.2201  0.1167
   25loPI   GL1  389  17.301   3.281   9.930  0.2896 -0.4271 -0.1585
   25loPI   GL2  390  17.324   2.915   9.842 -0.1564  0.1428  0.1473
   25loPI   C1A  391  17.606   3.310   9.647 -0.0850 -0.1829 -0.2548
   25loPI   C2A  392  17.909   3.181   9.228  0.0060  0.2175 -0.1363
   25loPI   C3A  393  18.093   3.322   8.897 -0.0131 -0.4348  0.1913
   25loPI   C4A  394  18.411   3.546   8.551 -0.2474 -0.1230  0.1455
   25loPI   C5A  395  18.750   3.462   8.223 -0.0645  0.0311 -0.3138
   25loPI   C6A  396  19.087   3.537   7.907 -0.0547  0.4180  0.2432
   25loPI   C1B  397  17.277   2.677   9.463  0.0465 -0.0312  0.3398
   25loPI   C2B  398  17.580   2.785   9.073  0.0640  0.0983 -0.0027
   25loPI   C3B  399  17.843   2.933   8.729 -0.1302 -0.0612 -0.1971
   25loPI   C4B  400  17.967   3.220   8.355  0.0644 -0.1203  0.1852
   26loPI    C1  401   0.797   4.308  10.500 -0.2052  0.5449  0.1569
   26loPI    C2  402   0.614   4.041  10.735 -0.1200  0.1463 -0.2164
   26loPI    C3  403   0.755   4.382  10.891 -0.1712 -0.0523  0.2821
   26loPI   PO4  404   0.615   4.289  10.295  0.1001 -0.3880  0.1868
   26loPI   GL1  405   0.552   4.069   9.907  0.1729  0.1136 -0.0418
   26loPI   GL2  406   0.431   3.753   9.861  0.0113 -0.1907  0.3051
   26loPI   C1A  407   0.336   4.410   9.727  0.0347  0.1804  0.0026
   26loPI   C2A  408   0.330   4.661   9.418 -0.0516  0.0844 -0.2625
   26loPI   C3A  409   0.167   4.935   9.117 -0.0635  0.4897 -0.2522
   26loPI   C4A  410   0.122   5.053   8.762  0.3061  0.2851  0.0702
   26loPI   C5A  411   0.357   5.023   8.488 -0.0592  0.2492 -0.0499
   26loPI   C6A  412   0.730   4.963   8.212 -0.1574  0.1755 -0.0089
   26loPI   C1B  413   0.249   3.980   9.530  0.0454 -0.0432  0.0838
   26loPI   C2B  414   0.466   4.232   9.179 -0.1688  0.0119  0.1812
   26loPI   C3B  415   0.516   4.602   8.976  0.1169  0.2034  0.0727
   26loPI   C4B  416   0.733   4.693   8.641  0.2078  0.0002  0.0160
   27loPI    C1  417   6.528   8.218  11.176 -0.1337 -0.0102  0.0212
   27loPI    C2  418   6.177   8.032  11.221 -0.1362 -0.0244 -0.0560
   27loPI    C3  419   6.456   8.006  11.507 -0.2642  0.1315  0.0850
   27loPI   PO4  420   6.482   8.235  10.803 -0.0222  0.1569 -0.0994
   27loPI   GL1  421   6.778   8.227  10.434 -0.2217  0.1011 -0.0172
   27loPI   GL2  422   6.964   8.497  10.380 -0.2457  0.0599 -0.0867
   27loPI   C1A  423   6.741   8.223  10.015 -0.2166 -0.0261 -0.2002
   27loPI   C2A  424   6.742   8.093   9.578  0.0383 -0.4175  0.1859
   27loPI   C3A  425   6.714   8.016   9.083  0.0908  0.0870 -0.1912
   27loPI   C4A  426   6.711   8.006   8.671 -0.3782 -0.1059 -0.2176
   27loPI   C5A  427   6.805   7.994   8.183  0.1860  0.3831  0.0870
   27loPI   C6A  428   6.750   8.190   7.812  0.1280  0.1894 -0.1207
   27loPI   C1B  429   6.977   8.643   9.921  0.2494  0.1436 -0.2893
   27loPI   C2B  430   7.006   8.700   9.508  0.1109  0.0174  0.1058
   27loPI   C3B  431   6.901   8.839   9.150  0.1703  0.2396  0.2524
   27loPI   C4B  432   6.911   8.904   8.653  0.2361 -0.3734  0.0516
   28loPI    C1  433   4.326   5.354  10.637 -0.0170  0.1116 -0.0508
   28loPI    C2  434   4.379   5.361  11.034 -0.1650  0.0570 -0.0295
   28loPI    C3  435   4.042   5.506  10.874 -0.2353 -0.1925 -0.1114
   28loPI   PO4  436   4.616   5.403  10.515  0.0065 -0.2770 -0.0732
   28loPI   GL1  437   4.872   5.404  10.149  0.0833 -0.0256  0.2370
   28loPI   GL2  438   5.041   5.114  10.097 -0.2724 -0.1356 -0.0783
   28loPI   C1A  439   4.825   5.655   9.820  0.0248  0.1870 -0.2524
   28loPI   C2A  440   4.805   5.558   9.375  0.0448  0.2511 -0.2190
   28loPI   C3A  441   4.828   5.432   9.011 -0.2167  0.2151  0.2636
   28loPI   C4A  442   4.986   5.022   8.798 -0.4039 -0.0529 -0.0294
   28loPI   C5A  443   5.295   4.760   8.764  0.2666  0.2045 -0.0317
   28loPI   C6A  444   5.227   4.302   8.806  0.1415 -0.3107 -0.1968
   28loPI   C1B  445   5.056   5.202   9.738  0.0505 -0.0688  0.2187
   28loPI   C2B  446   5.000   5.009   9.356 -0.0681  0.1829 -0.0268
   28loPI   C3B  447   5.057   4.639   9.177  0.1394  0.0528 -0.0380
   28loPI   C4B  448   4.892   4.205   9.128 -0.1864  0.0116  0.0799
   29loPI    C1  449  10.966   3.604  11.022 -0.0102  0.0627  0.0399
   29loPI    C2  450  10.666   3.861  11.089 -0.1415 -0.1016  0.0896
   29loPI    C3  451  10.685   3.518  11.293  0.0855 -0.0897  0.0914
   29loPI   PO4  452  11.013   3.607  10.810  0.1183 -0.2210 -0.0585
   29loPI   GL1  453  11.144   3.664  10.375  0.0619 -0.0625 -0.0497
   29loPI   GL2  454  11.443   3.562  10.286 -0.0093 -0.2114 -0.0643
   29loPI   C1A  455  11.155   3.860  10.001  0.0788  0.1206 -0.0482
   29loPI   C2A  456  11.153   3.802   9.579 -0.2470 -0.1566  0.0331
   29loPI   C3A  457  11.208   3.738   9.149 -0.0297 -0.0107 -0.0227
   29loPI   C4A  458  11.212   3.862   8.705  0.1698  0.0450  0.0727
   29loPI   C5A  459  11.123   4.211   8.394  0.0647 -0.0046  0.0063
   29loPI   C6A  460  10.985   4.664   8.135  0.1558 -0.0482 -0.1487
   29loPI   C1B  461  11.445   3.431   9.934  0.0538  0.2563 -0.1427
   29loPI   C2B  462  11.394   3.340   9.567 -0.1737 -0.0516  0.2142
   29loPI   C3B  463  10.988   3.325   9.268 -0.0573 -0.0822 -0.1941
   29loPI   C4B  464  10.877   3.073   8.978 -0.0548 -0.2971 -0.1477
   30loPI    C1  465   1.476  15.135  10.482  0.0313  0.0913 -0.1006
   30loPI    C2  466   1.800  15.249  10.277 -0.0679 -0.0807 -0.3581
   30loPI    C3  467   1.830  14.966  10.559  0.0934  0.2490 -0.0353
   30loPI   PO4  468   1.323  15.405  10.425  0.0066  0.0837 -0.3162
   30loPI   GL1  469   1.135  15.510  10.078  0.0796  0.0171 -0.1218
   30loPI   GL2  470   0.930  15.349  10.045 -0.2495  0.1978  0.0671
   30loPI   C1A  471   1.269  15.748   9.752  0.1900 -0.0174  0.2120
   30loPI   C2A  472   1.395  15.803   9.397 -0.1504 -0.2848 -0.1372
   30loPI   C3A  473   1.752  16.006   9.191 -0.1851 -0.1281 -0.2212
   30loPI   C4A  474   1.842  16.026   8.806 -0.2576  0.2209 -0.2750
   30loPI   C5A  475   1.892  16.344   8.511 -0.2975  0.0154  0.0005
   30loPI   C6A  476   2.203  16.460   8.122  0.1202 -0.0086  0.0816
   30loPI   C1B  477   0.821  15.557   9.629 -0.0727  0.1712  0.0942
   30loPI   C2B  478   0.778  15.698   9.314  0.2756  0.2749  0.3598
   30loPI   C3B  479   1.072  15.841   8.991  0.0851  0.0346  0.2641
   30loPI   C4B  480   1.393  15.912   8.685 -0.0072 -0.0938  0.1873
   31loPI    C1  481  17.107  11.218  10.650 -0.3454  0.0872 -0.2273
   31loPI    C2  482  17.101  10.839  10.776 -0.0056  0.2128  0.1917
   31loPI    C3  483  16.768  11.059  10.791 -0.2086 -0.0671 -0.0676
   31loPI   PO4  484  17.250  11.163  10.368  0.0345  0.0716 -0.1556
   31loPI   GL1  485  17.030  11.117   9.948 -0.2319  0.1944 -0.0502
   31loPI   GL2  486  16.724  11.184   9.851  0.0441  0.2154 -0.3334
   31loPI   C1A  487  17.178  10.987   9.572 -0.1585 -0.0341  0.0922
   31loPI   C2A  488  17.267  10.953   9.136  0.2693  0.0477  0.1382
   31loPI   C3A  489  17.447  11.221   8.766  0.0132 -0.3251 -0.0447
   31loPI   C4A  490  17.444  11.551   8.371  0.0312 -0.1700  0.1957
   31loPI   C5A  491  17.389  11.836   8.038 -0.2076 -0.0324  0.2100
   31loPI   C6A  492  17.476  11.790   7.599  0.0942 -0.4389 -0.1257
   31loPI   C1B  493  16.888  11.442   9.532 -0.1161  0.1335  0.2554
   31loPI   C2B  494  17.010  11.403   9.047  0.0136  0.2879 -0.1583
   31loPI   C3B  495  16.998  11.367   8.621  0.2505  0.0375 -0.2324
   31loPI   C4B  496  17.247  11.091   8.295  0.2023  0.3695 -0.2364
   32loPI    C1  497   5.309  17.489  10.143  0.0604 -0.1487  0.0471
   32loPI    C2  498   5.336  17.553  10.537 -0.0723 -0.2149  0.0673
   32loPI    C3  499   5.179  17.211  10.400 -0.3150 -0.0613 -0.0428
   32loPI   PO4  500   5.185  17.685  10.002  0.0536 -0.3773 -0.2140
   32loPI   GL1  501   4.859  17.655   9.761  0.1425 -0.0248  0.0304
   32loPI   GL2  502   4.688  17.484   9.803 -0.1316 -0.1456 -0.0109
   32loPI   C1A  503   5.044  17.592   9.296  0.1632  0.0299 -0.1059
   32loPI   C2A  504   5.045  17.539   8.905 -0.0179 -0.0691 -0.1155
   32loPI   C3A  505   4.997  17.531   8.443  0.1852  0.1380 -0.2392
   32loPI   C4A  506   4.881  17.617   8.075 -0.0949  0.1056  0.1201
   32loPI   C5A  507   5.009  17.901   7.802 -0.1800  0.1469  0.1981
   32loPI   C6A  508   5.325  18.280   7.833 -0.1043 -0.0689  0.1830
   32loPI   C1B  509   4.450  17.464   9.439  0.1494  0.0478  0.1217
   32loPI   C2B  510   4.589  17.535   9.047 -0.0840 -0.1071 -0.2319
   32loPI   C3B  511   4.590  17.340   8.666  0.1304 -0.5020  0.0286
   32loPI   C4B  512   4.450  17.496   8.330 -0.3072 -0.0129  0.4727
   33loPI    C1  513  16.269  13.760  10.923  0.1187  0.0681 -0.0794
   33loPI    C2  514  16.483  14.088  10.999 -0.0473  0.1686 -0.0398
   33loPI    C3  515  16.566  13.746  11.190  0.2124  0.1515 -0.1787
   33loPI   PO4  516  16.266  13.774  10.656 -0.0718  0.0973 -0.0838
   33loPI   GL1  517  16.355  13.564  10.247  0.0106  0.1140  0.1777
   33loPI   GL2  518  16.653  13.645  10.193  0.0284  0.3310 -0.1738
   33loPI   C1A  519  16.200  13.637   9.910 -0.2018  0.0431  0.4243
   33loPI   C2A  520  16.055  13.602   9.521  0.0302 -0.0749 -0.1671
   33loPI   C3A  521  16.042  13.593   9.115  0.1070 -0.3147 -0.1639
   33loPI   C4A  522  15.962  13.679   8.729 -0.2006  0.0208 -0.0991
   33loPI   C5A  523  15.969  13.539   8.365  0.4683 -0.0781 -0.0418
   33loPI   C6A  524  15.851  13.593   8.063 -0.0380  0.0484 -0.0991
   33loPI   C1B  525  16.662  13.632   9.754  0.1489  0.1390  0.1200
   33loPI   C2B  526  16.561  13.610   9.382  0.1231  0.1389  0.0341
   33loPI   C3B  527  16.517  13.641   8.977  0.0024 -0.0052  0.1074
   33loPI   C4B  528  16.481  13.559   8.547 -0.1944 -0.2085 -0.3639
   34loPI    C1  529   1.675  12.391  10.874  0.1209  0.0337  0.0246
   34loPI    C2  530   1.960  12.638  11.008 -0.0529  0.2838 -0.0598
   34loPI    C3  531   1.580  12.692  11.120 -0.0584 -0.1022  0.1238
   34loPI   PO4  532   1.868  12.227  10.585  0.0369 -0.1388 -0.3434
   34loPI   GL1  533   2.096  12.126  10.220 -0.2918  0.0593 -0.1701
   34loPI   GL2  534   2.059  11.863  10.107 -0.0928  0.2478 -0.0221
   34loPI   C1A  535   1.989  12.253   9.809 -0.0805 -0.2628 -0.2176
   34loPI   C2A  536   1.628  12.275   9.634  0.0108 -0.0590 -0.1078
   34loPI   C3A  537   1.457  12.244   9.237 -0.3107  0.3235  0.1791
   34loPI   C4A  538   1.196  12.184   8.827  0.0865  0.2222 -0.2446
   34loPI   C5A  539   1.110  12.161   8.372  0.0060  0.0269 -0.0353
   34loPI   C6A  540   1.311  12.454   7.944 -0.1305  0.0324 -0.0609
   34loPI   C1B  541   1.830  11.699   9.742  0.2723 -0.1286  0.0098
   34loPI   C2B  542   1.783  11.864   9.356  0.0068 -0.1759 -0.2030
   34loPI   C3B  543   1.621  11.852   8.931  0.3596  0.1346  0.0430
   34loPI   C4B  544   1.434  11.737   8.565 -0.0883  0.1059  0.0994
   35loPI    C1  545   6.312  16.772  10.332 -0.0314  0.0780 -0.0706
   35loPI    C2  546   5.944  16.794  10.486  0.0704 -0.0869  0.2032
   35loPI    C3  547   6.263  16.839  10.723  0.2290  0.2628 -0.0673
   35loPI   PO4  548   6.322  16.850  10.041 -0.1831  0.2667 -0.2424
   35loPI   GL1  549   6.467  17.092   9.776  0.1619 -0.1216 -0.0211
   35loPI   GL2  550   6.261  17.345   9.938 -0.1303  0.1029 -0.0160
   35loPI   C1A  551   6.286  17.141   9.406  0.0008 -0.3853 -0.0703
   35loPI   C2A  552   6.472  17.178   9.016 -0.0924 -0.2200  0.2432
   35loPI   C3A  553   6.576  17.278   8.626  0.0471  0.1034 -0.1082
   35loPI   C4A  554   6.748  17.324   8.318 -0.1378 -0.1694 -0.0208
   35loPI   C5A  555   7.113  17.410   8.000  0.1952  0.1919  0.1991
   35loPI   C6A  556   7.543  17.353   8.036 -0.4878 -0.3299  0.1636
   35loPI   C1B  557   6.290  17.607   9.510  0.1118  0.3341  0.1164
   35loPI   C2B  558   6.465  17.732   9.055 -0.2859  0.0511 -0.1664
   35loPI   C3B  559   6.771  17.738   8.828  0.3765 -0.0240  0.0678
   35loPI   C4B  560   6.960  17.759   8.410 -0.2933  0.0333 -0.0855
   36loPI    C1  561  15.797  12.658  10.673  0.0507 -0.1966  0.0033
   36loPI    C2  562  15.720  13.020  10.521  0.2071 -0.0547  0.2559
   36loPI    C3  563  15.633  12.941  10.904 -0.1027 -0.3810  0.1237
   36loPI   PO4  564  15.737  12.482  10.402  0.2593 -0.0610  0.1068
   36loPI   GL1  565  15.651  12.701  10.053  0.0112 -0.1246  0.0287
   36loPI   GL2  566  15.447  12.936  10.083 -0.2569 -0.3270 -0.0738
   36loPI   C1A  567  15.603  12.717   9.624  0.2962 -0.3175  0.0413
   36loPI   C2A  568  15.565  12.739   9.152 -0.1961 -0.1842 -0.1510
   36loPI   C3A  569  15.549  12.797   8.680  0.0484  0.1517  0.3343
   36loPI   C4A  570  15.272  12.849   8.266  0.1696  0.1838  0.2077
   36loPI   C5A  571  15.003  13.070   8.016  0.0719  0.2840  0.1111
   36loPI   C6A  572  14.586  12.959   7.929  0.2243 -0.0595  0.1003
   36loPI   C1B  573  15.331  13.151   9.773 -0.3192 -0.1557 -0.0386
   36loPI   C2B  574  15.276  13.121   9.399  0.0355  0.0752 -0.0711
   36loPI   C3B  575  15.307  13.189   8.965  0.1213  0.4060 -0.3301
   36loPI   C4B  576  15.160  13.231   8.515 -0.0907  0.0299  0.5033
   37loPI    C1  577  11.111  10.138  10.250 -0.1698 -0.2796  0.0363
   37loPI    C2  578  11.186  10.393  10.548 -0.0602  0.1102 -0.3153
   37loPI    C3  579  10.832  10.207  10.529  0.0257 -0.1251  0.1961
   37loPI   PO4  580  11.271  10.201   9.979 -0.0164 -0.2675  0.2602
   37loPI   GL1  581  11.624  10.301   9.838  0.2165  0.1162  0.1104
   37loPI   GL2  582  11.783   9.977   9.846 -0.0169 -0.0273  0.0495
   37loPI   C1A  583  11.609  10.268   9.444 -0.1145  0.2489  0.2480
   37loPI   C2A  584  11.508  10.410   9.163  0.3326  0.1579 -0.1023
   37loPI   C3A  585  11.587  10.413   8.774  0.0361 -0.1999 -0.0168
   37loPI   C4A  586  11.220  10.264   8.627  0.1347 -0.1118 -0.0924
   37loPI   C5A  587  11.205  10.232   8.188  0.0978 -0.1580 -0.3108
   37loPI   C6A  588  11.416  10.362   7.927 -0.1426  0.0857  0.2679
   37loPI   C1B  589  12.138   9.946   9.454 -0.5231 -0.2778 -0.1473
   37loPI   C2B  590  12.449  10.096   9.061  0.1012  0.2261  0.1955
   37loPI   C3B  591  12.498  10.129   8.710  0.0945 -0.0599 -0.1289
   37loPI   C4B  592  12.544  10.079   8.279 -0.2546 -0.1405  0.0557
   38loPI    C1  593   6.455  18.051  10.360 -0.0001 -0.2664  0.1323
   38loPI    C2  594   6.653  18.175  10.685  0.0073  0.1522 -0.0257
   38loPI    C3  595   6.265  18.261  10.643 -0.0148  0.0243 -0.0888
   38loPI   PO4  596   6.583  18.160  10.198 -0.2650  0.0705  0.2946
   38loPI   GL1  597   6.741  18.207   9.835 -0.2339  0.2401  0.0644
   38loPI   GL2  598   7.061  18.244   9.774 -0.0688 -0.1734  0.3163
   38loPI   C1A  599   6.684  18.547   9.474 -0.2702 -0.1628  0.0942
   38loPI   C2A  600   6.787  18.559   9.004  0.1818 -0.1194 -0.1903
   38loPI   C3A  601   6.895  18.851   8.735  0.0862  0.0319  0.2054
   38loPI   C4A  602   6.844  19.012   8.354  0.2081 -0.0861  0.1457
   38loPI   C5A  603   6.701  19.411   8.184  0.2462 -0.0570 -0.1133
   38loPI   C6A  604   6.886  19.695   8.404 -0.0450 -0.2088  0.1220
   38loPI   C1B  605   7.198  18.353   9.378 -0.1300 -0.0714 -0.1334
   38loPI   C2B  606   7.274  18.518   9.016  0.1155  0.2120 -0.1079
   38loPI   C3B  607   7.360  18.621   8.605 -0.0702 -0.0477  0.1269
   38loPI   C4B  608   7.509  18.884   8.336  0.0980  0.1763 -0.1729
   39loPI    C1  609   7.057  14.798  10.257  0.1190  0.0955 -0.0318
   39loPI    C2  610   7.200  14.969  10.589  0.0506 -0.2751  0.1943
   39loPI    C3  611   7.362  14.630  10.453 -0.0421 -0.2242 -0.0487
   39loPI   PO4  612   7.031  14.905  10.054  0.0117 -0.1670 -0.0496
   39loPI   GL1  613   6.952  14.823   9.669  0.0126 -0.2866  0.1852
   39loPI   GL2  614   6.679  14.884   9.658  0.1502 -0.1445  0.1173
   39loPI   C1A  615   6.934  14.641   9.304 -0.3249 -0.1818  0.1833
   39loPI   C2A  616   7.037  14.609   8.934 -0.0679  0.1091  0.1886
   39loPI   C3A  617   7.120  14.479   8.540  0.0373 -0.0330  0.1977
   39loPI   C4A  618   7.288  14.278   8.067 -0.0242 -0.2377 -0.0537
   39loPI   C5A  619   7.224  13.855   7.883  0.0203  0.1838 -0.2475
   39loPI   C6A  620   6.907  13.437   7.884  0.1145  0.3289 -0.1474
   39loPI   C1B  621   6.714  15.101   9.264  0.1479 -0.0393 -0.1413
   39loPI   C2B  622   6.762  15.092   8.805 -0.4549 -0.0174 -0.1600
   39loPI   C3B  623   6.951  14.931   8.468 -0.1877  0.0369  0.1939
   39loPI   C4B  624   7.216  14.907   8.105 -0.0849  0.0749  0.1788
   40loPI    C1  625   2.504  15.662  10.259  0.1709 -0.1927 -0.1537
   40loPI    C2  626   2.154  15.684  10.067  0.1741  0.0668 -0.1334
   40loPI    C3  627   2.164  15.574  10.452  0.1326 -0.1034 -0.1801
   40loPI   PO4  628   2.710  15.598  10.107  0.3307 -0.2203  0.4509
   40loPI   GL1  629   2.748  15.581   9.626  0.1013 -0.0888  0.0649
   40loPI   GL2  630   2.561  15.887   9.711  0.1317  0.2610 -0.0436
   40loPI   C1A  631   3.097  15.744   9.370  0.1127  0.2253  0.0095
   40loPI   C2A  632   3.296  15.726   9.029  0.0816 -0.2932 -0.0268
   40loPI   C3A  633   3.522  15.839   8.690 -0.0784  0.0125 -0.0406
   40loPI   C4A  634   3.500  15.834   8.181 -0.0427  0.0367  0.2997
   40loPI   C5A  635   3.118  15.679   7.995  0.0124 -0.1845  0.0905
   40loPI   C6A  636   2.943  15.270   8.104  0.2662  0.1009 -0.2361
   40loPI   C1B  637   2.617  15.811   9.228  0.0992 -0.1906 -0.1206
   40loPI   C2B  638   2.853  15.848   8.840 -0.0400  0.1214  0.1325
   40loPI   C3B  639   3.076  15.632   8.588 -0.0841 -0.3388 -0.3219
   40loPI   C4B  640   3.460  15.386   8.314  0.2474  0.0815 -0.2527
   41loPI    C1  641  12.710   0.334  10.815 -0.0790  0.0265 -0.0769
   41loPI    C2  642  12.490   0.277  11.144  0.0505  0.0780  0.0194
   41loPI    C3  643  12.750   0.581  11.127  0.0362  0.0823 -0.1351
   41loPI   PO4  644  12.745   0.097  10.689  0.0641  0.0349  0.0726
   41loPI   GL1  645  12.504  -0.020  10.311  0.2565  0.0178  0.0360
   41loPI   GL2  646  12.417   0.239  10.341  0.2211 -0.1121 -0.0664
   41loPI   C1A  647  12.688  -0.218   9.978 -0.3108  0.1828 -0.0903
   41loPI   C2A  648  12.882  -0.312   9.615  0.0844  0.0796  0.1315
   41loPI   C3A  649  12.969  -0.387   9.172 -0.0106 -0.0681 -0.0374
   41loPI   C4A  650  13.062  -0.446   8.768 -0.0039  0.1948  0.0227
   41loPI   C5A  651  13.088  -0.467   8.384  0.1627  0.3045 -0.0759
   41loPI   C6A  652  13.113  -0.900   8.116 -0.2042 -0.4294  0.2351
   41loPI   C1B  653  12.286   0.132   9.830  0.0955 -0.1116  0.0486
   41loPI   C2B  654  12.144   0.163   9.333  0.2101  0.0353 -0.2280
   41loPI   C3B  655  12.219   0.023   8.904  0.1076  0.2310  0.0998
   41loPI   C4B  656  12.098  -0.139   8.511 -0.0510 -0.0436 -0.1080
   42loPI    C1  657  17.218  12.283  10.469  0.1020  0.1544  0.0975
   42loPI    C2  658  17.081  12.086  10.789 -0.2298  0.2387  0.0108
   42loPI    C3  659  17.291  12.423  10.836 -0.1776  0.1880  0.1422
   42loPI   PO4  660  17.145  12.125  10.310 -0.3153 -0.2519  0.0848
   42loPI   GL1  661  17.151  12.257   9.860  0.0502  0.3293  0.1459
   42loPI   GL2  662  17.067  12.609  10.047 -0.1610 -0.2276  0.2636
   42loPI   C1A  663  16.961  12.191   9.457  0.2899 -0.0975 -0.1221
   42loPI   C2A  664  16.857  12.462   9.115  0.0243  0.0515 -0.2516
   42loPI   C3A  665  16.978  12.599   8.756  0.1509  0.2688 -0.1642
   42loPI   C4A  666  17.019  12.862   8.290  0.0231  0.0743 -0.0324
   42loPI   C5A  667  16.760  13.176   8.311  0.0055  0.1452  0.0338
   42loPI   C6A  668  16.559  13.449   7.952 -0.0839  0.2615 -0.2052
   42loPI   C1B  669  17.183  12.628   9.573 -0.0387 -0.2688  0.1094
   42loPI   C2B  670  17.333  12.459   9.249 -0.0209 -0.2905 -0.0133
   42loPI   C3B  671  17.243  12.219   8.879  0.3143 -0.4507  0.1553
   42loPI   C4B  672  16.944  11.889   9.052 -0.0140  0.1914 -0.1058
   43loPI    C1  673  10.557   7.592  10.746 -0.0649 -0.1279 -0.1574
   43loPI    C2  674  10.205   7.773  10.689  0.0161 -0.0099 -0.2895
   43loPI    C3  675  10.543   7.952  10.571  0.1255 -0.0988 -0.1150
   43loPI   PO4  676  10.612   7.406  10.595 -0.0087  0.0508  0.0806
   43loPI   GL1  677  10.732   7.441  10.078  0.0608 -0.3410 -0.1941
   43loPI   GL2  678  10.812   7.757  10.121  0.1505 -0.0341  0.0134
   43loPI   C1A  679  10.522   7.588   9.662 -0.3847  0.0422 -0.0053
   43loPI   C2A  680  10.664   7.521   9.239 -0.1515 -0.1384  0.0545
   43loPI   C3A  681  10.761   7.417   8.863 -0.0455 -0.1736  0.1281
   43loPI   C4A  682  10.842   7.242   8.512  0.0084  0.0496  0.1418
   43loPI   C5A  683  11.072   6.957   8.253  0.0279 -0.2190  0.1015
   43loPI   C6A  684  11.143   6.510   8.123 -0.2051  0.0753  0.0914
   43loPI   C1B  685  10.957   7.801   9.713 -0.3363  0.0480 -0.0154
   43loPI   C2B  686  10.930   8.030   9.218  0.2067  0.2073 -0.1751
   43loPI   C3B  687  10.754   7.941   8.737 -0.0080  0.0441  0.0909
   43loPI   C4B  688  10.438   7.643   8.581  0.1765  0.4735  0.1697
   44loPI    C1  689   2.279   7.732  10.225 -0.0375 -0.1429 -0.0996
   44loPI    C2  690   2.663   7.783  10.126 -0.0317  0.2806  0.1202
   44loPI    C3  691   2.568   7.608  10.472 -0.0331  0.3565  0.1586
   44loPI   PO4  692   2.143   7.937  10.056 -0.0237  0.2366 -0.2570
   44loPI   GL1  693   2.387   8.272   9.772 -0.0583 -0.0095 -0.0038
   44loPI   GL2  694   2.582   8.502   9.933  0.2175 -0.0299 -0.0279
   44loPI   C1A  695   2.366   7.984   9.373  0.0828  0.0810  0.1682
   44loPI   C2A  696   2.147   7.844   8.943 -0.2129 -0.1240 -0.1764
   44loPI   C3A  697   2.102   7.734   8.457  0.0860  0.1673 -0.1469
   44loPI   C4A  698   1.945   7.941   8.032  0.0438  0.1236  0.2484
   44loPI   C5A  699   1.561   8.020   7.794 -0.3258  0.2731 -0.1289
   44loPI   C6A  700   1.129   7.857   7.547 -0.0429  0.1784 -0.0409
   44loPI   C1B  701   2.648   8.595   9.417 -0.2380  0.0839 -0.3588
   44loPI   C2B  702   2.646   8.506   8.995  0.3204 -0.0428 -0.2224
   44loPI   C3B  703   2.625   8.477   8.462 -0.0820 -0.3209  0.1980
   44loPI   C4B  704   2.838   8.345   8.141 -0.1841  0.2132 -0.2245
   45loPI    C1  705   0.510  15.468  10.518  0.0282 -0.0268 -0.1334
   45loPI    C2  706   0.834  15.233  10.505  0.1451  0.1229  0.0249
   45loPI    C3  707   0.657  15.311  10.855  0.0424  0.1837 -0.0402
   45loPI   PO4  708   0.507  15.522  10.264  0.0068  0.1171 -0.1881
   45loPI   GL1  709   0.369  15.788   9.955  0.1114 -0.0757  0.2075
   45loPI   GL2  710   0.121  15.582   9.944 -0.1055  0.2692  0.1680
   45loPI   C1A  711   0.412  15.955   9.583 -0.3203  0.1561  0.1152
   45loPI   C2A  712   0.581  16.192   9.209 -0.0203  0.1852  0.2149
   45loPI   C3A  713   0.456  16.548   9.050 -0.4608 -0.0814 -0.0008
   45loPI   C4A  714   0.544  16.687   8.598 -0.1402  0.1152  0.1577
   45loPI   C5A  715   0.624  17.084   8.223  0.0297 -0.0340 -0.1145
   45loPI   C6A  716   0.549  17.373   7.875 -0.2334  0.3668  0.1618
   45loPI   C1B  717   0.299  15.468   9.578  0.2465 -0.1204  0.0092
   45loPI   C2B  718   0.261  15.690   9.093  0.1361  0.0119  0.1571
   45loPI   C3B  719   0.582  15.847   8.831 -0.0114 -0.2288 -0.0173
   45loPI   C4B  720   0.523  16.216   8.634  0.1485  0.2678 -0.2343
   46loPI    C1  721   3.445  16.172  10.462 -0.2024 -0.1374  0.0105
   46loPI    C2  722   3.119  16.148  10.692 -0.1245  0.1368  0.1542
   46loPI    C3  723   3.422  16.386  10.799  0.0679 -0.0136 -0.0465
   46loPI   PO4  724   3.420  16.065  10.280 -0.1128 -0.5971  0.1317
   46loPI   GL1  725   3.559  16.099   9.880  0.1448  0.0435  0.0561
   46loPI   GL2  726   3.829  16.323   9.773 -0.1696 -0.1691 -0.0865
   46loPI   C1A  727   3.443  16.030   9.581 -0.2961 -0.1896  0.0938
   46loPI   C2A  728   3.294  16.221   9.125 -0.1282  0.0943  0.4392
   46loPI   C3A  729   3.224  16.218   8.758  0.1761  0.3575 -0.1137
   46loPI   C4A  730   3.052  16.161   8.390 -0.2313  0.1079  0.0699
   46loPI   C5A  731   2.685  15.905   8.249 -0.2498 -0.1897  0.0524
   46loPI   C6A  732   2.471  15.667   7.882  0.0833  0.0286 -0.0337
   46loPI   C1B  733   3.796  16.347   9.286 -0.1244  0.0483  0.0290
   46loPI   C2B  734   3.769  16.335   8.872 -0.2645 -0.3552 -0.0835
   46loPI   C3B  735   3.575  16.398   8.476  0.0260 -0.0127  0.0049
   46loPI   C4B  736   3.633  16.389   8.014  0.2102  0.1432  0.0128
   47loPI    C1  737  12.084   2.938  10.903  0.1032 -0.0517 -0.1529
   47loPI    C2  738  11.838   3.167  11.120  0.3296  0.0171  0.0355
   47loPI    C3  739  11.903   2.787  11.226  0.0673 -0.0955 -0.1933
   47loPI   PO4  740  12.262   3.027  10.790 -0.1408  0.1571 -0.0844
   47loPI   GL1  741  12.278   3.015  10.335 -0.0593 -0.0490 -0.1752
   47loPI   GL2  742  12.372   3.307  10.265  0.1268  0.2503 -0.0256
   47loPI   C1A  743  12.286   3.027   9.849  0.2992  0.1259  0.2487
   47loPI   C2A  744  12.285   3.193   9.438 -0.1257 -0.2462  0.1025
   47loPI   C3A  745  12.263   3.200   8.973 -0.0412 -0.1904 -0.2674
   47loPI   C4A  746  11.977   3.250   8.614  0.0583 -0.1093 -0.0870
   47loPI   C5A  747  12.008   3.705   8.382 -0.0614  0.2439  0.0086
   47loPI   C6A  748  12.362   3.891   8.277  0.1540 -0.3920  0.1247
   47loPI   C1B  749  12.565   3.521   9.905 -0.2449 -0.1989  0.2112
   47loPI   C2B  750  12.604   3.602   9.440 -0.1069 -0.0716 -0.0671
   47loPI   C3B  751  12.770   3.273   9.202 -0.2231 -0.0601  0.0586
   47loPI   C4B  752  12.783   3.385   8.828 -0.0299  0.2130  0.2771
   48loPI    C1  753  16.577   4.329  10.399 -0.1191 -0.2558  0.2336
   48loPI    C2  754  16.212   4.463  10.494 -0.0774 -0.0403  0.0966
   48loPI    C3  755  16.527   4.564  10.718 -0.0931 -0.1826  0.1840
   48loPI   PO4  756  16.537   4.386  10.058  0.0608  0.1992 -0.1213
   48loPI   GL1  757  16.466   4.770   9.778 -0.1842  0.2171  0.0145
   48loPI   GL2  758  16.345   4.652   9.613  0.1415  0.1217 -0.1618
   48loPI   C1A  759  16.360   5.249   9.614  0.0730 -0.3586  0.0945
   48loPI   C2A  760  16.499   5.459   9.271 -0.2676  0.0171 -0.1410
   48loPI   C3A  761  16.515   5.316   8.805 -0.1175  0.0035  0.4908
   48loPI   C4A  762  16.456   5.301   8.348 -0.0148 -0.4999 -0.2072
   48loPI   C5A  763  16.793   5.351   8.082 -0.0536  0.1967  0.3262
   48loPI   C6A  764  17.166   5.151   7.829  0.1598  0.1725  0.0624
   48loPI   C1B  765  16.467   4.923   9.203 -0.0970 -0.0531 -0.2933
   48loPI   C2B  766  16.792   4.937   8.933 -0.1828 -0.0680 -0.2035
   48loPI   C3B  767  16.896   5.018   8.592 -0.0380  0.3512  0.5033
   48loPI   C4B  768  16.913   5.481   8.527 -0.3759 -0.0200 -0.0162
   49loPI    C1  769   2.745   5.300  10.878  0.2154  0.1986 -0.2326
   49loPI    C2  770   2.378   5.378  10.740  0.1200  0.0695 -0.0558
   49loPI    C3  771   2.665   5.655  10.712 -0.0077  0.1953 -0.1358
   49loPI   PO4  772   2.744   4.991  10.654 -0.0441  0.0779 -0.1045
   49loPI   GL1  773   2.649   4.782  10.116  0.3048 -0.1639  0.0263
   49loPI   GL2  774   2.411   4.974   9.947  0.2685  0.2265 -0.0019
   49loPI   C1A  775   2.794   4.975   9.651 -0.2171  0.1345 -0.0502
   49loPI   C2A  776   2.871   5.010   9.220  0.0841  0.0375  0.2273
   49loPI   C3A  777   3.039   5.042   8.831  0.1186  0.0247 -0.0760
   49loPI   C4A  778   3.018   5.159   8.467  0.3091  0.0611  0.2897
   49loPI   C5A  779   2.793   4.877   8.206 -0.2459 -0.0233  0.3312
   49loPI   C6A  780   2.896   4.779   7.859 -0.0598  0.1179  0.0954
   49loPI   C1B  781   2.273   4.913   9.566  0.0712 -0.0162  0.0372
   49loPI   C2B  782   2.376   4.892   9.157 -0.2709  0.4009 -0.2831
   49loPI   C3B  783   2.497   4.985   8.746  0.1777 -0.0043 -0.2088
   49loPI   C4B  784   2.386   5.078   8.388 -0.2254  0.1219 -0.1167
   50loPI    C1  785   5.383  15.504   9.960 -0.2141  0.0863  0.0737
   50loPI    C2  786   5.572  15.847   9.876  0.0747  0.0351  0.4832
   50loPI    C3  787   5.176  15.845   9.929  0.0090  0.2213  0.0425
   50loPI   PO4  788   5.425  15.274   9.835  0.1987 -0.1229  0.3264
   50loPI   GL1  789   5.144  15.092   9.461  0.1610  0.1482  0.0950
   50loPI   GL2  790   5.402  14.856   9.258  0.0077 -0.0107 -0.0826
   50loPI   C1A  791   5.123  15.292   9.112  0.0234  0.0744 -0.3120
   50loPI   C2A  792   5.350  15.335   8.864  0.0176 -0.2625 -0.0910
   50loPI   C3A  793   5.405  15.429   8.485  0.0928  0.2512 -0.3315
   50loPI   C4A  794   5.495  15.342   8.120  0.1700  0.1644  0.1438
   50loPI   C5A  795   5.732  15.313   7.682 -0.0752  0.2252  0.0133
   50loPI   C6A  796   6.126  15.462   7.372  0.0163  0.2202 -0.0642
   50loPI   C1B  797   5.682  14.991   8.917  0.1500 -0.0459  0.1475
   50loPI   C2B  798   5.709  14.943   8.483 -0.2591  0.1771 -0.0309
   50loPI   C3B  799   5.930  15.118   8.238  0.1375 -0.2698 -0.0307
   50loPI   C4B  800   6.226  15.217   7.834  0.0716 -0.1456  0.3252
   51loPI    C1  801   9.792  18.038  11.162  0.1967  0.1314 -0.0201
   51loPI    C2  802   9.469  18.162  11.363  0.1539 -0.0985  0.0565
   51loPI    C3  803   9.605  17.789  11.413  0.2417 -0.1059 -0.2176
   51loPI   PO4  804   9.764  18.191  10.901 -0.0658 -0.0907  0.3367
   51loPI   GL1  805   9.843  18.276  10.461 -0.1685  0.0879  0.4188
   51loPI   GL2  806  10.023  18.053  10.289 -0.0320 -0.0003  0.1990
   51loPI   C1A  807   9.521  18.107  10.076 -0.2650 -0.0017  0.1381
   51loPI   C2A  808   9.703  18.077   9.684 -0.1459 -0.1425  0.1955
   51loPI   C3A  809   9.673  17.993   9.246  0.0333 -0.0382  0.0690
   51loPI   C4A  810   9.577  17.939   8.779  0.0649 -0.0369  0.1168
   51loPI   C5A  811   9.707  17.962   8.370  0.0564 -0.2187 -0.0169
   51loPI   C6A  812   9.709  18.370   8.156 -0.2036  0.3827  0.0835
   51loPI   C1B  813  10.138  18.347  10.034 -0.0990  0.1654 -0.0360
   51loPI   C2B  814   9.942  18.451   9.544 -0.1303  0.3524  0.0552
   51loPI   C3B  815   9.886  18.480   9.109  0.0470 -0.0718  0.0759
   51loPI   C4B  816   9.805  18.383   8.652 -0.1698 -0.3099 -0.0279
   52loPI    C1  817   4.319   2.390  10.552  0.0216  0.0805  0.1324
   52loPI    C2  818   4.076   2.144  10.753  0.1651 -0.0764  0.1163
   52loPI    C3  819   4.472   2.083  10.758  0.1866  0.0433 -0.0415
   52loPI   PO4  820   4.103   2.392  10.334  0.1173  0.1226  0.1767
   52loPI   GL1  821   3.785   2.493  10.026 -0.1465  0.1650 -0.0880
   52loPI   GL2  822   3.418   2.364   9.990 -0.0946 -0.0907  0.0166
   52loPI   C1A  823   3.679   2.662   9.685  0.0207 -0.3224 -0.0478
   52loPI   C2A  824   3.615   2.739   9.304 -0.1060 -0.1992  0.0076
   52loPI   C3A  825   3.663   2.699   8.892 -0.2722  0.0056  0.0957
   52loPI   C4A  826   3.624   2.599   8.490 -0.2348  0.1939  0.1125
   52loPI   C5A  827   3.752   2.479   8.086 -0.3384 -0.0366 -0.0803
   52loPI   C6A  828   3.563   2.204   7.834 -0.1018  0.3421  0.0277
   52loPI   C1B  829   3.305   2.388   9.508 -0.0370 -0.3122 -0.1384
   52loPI   C2B  830   3.271   2.434   9.133 -0.3634  0.1124 -0.3325
   52loPI   C3B  831   3.366   2.260   8.824 -0.1144  0.0239 -0.2201
   52loPI   C4B  832   3.245   2.353   8.467 -0.2073  0.1598 -0.1250
   53loPI    C1  833  17.585  17.505  10.482  0.1177 -0.0104  0.0416
   53loPI    C2  834  17.940  17.641  10.604  0.0953  0.0329  0.0583
   53loPI    C3  835  17.616  17.698  10.831  0.1032 -0.1359  0.1132
   53loPI   PO4  836  17.607  17.601  10.199 -0.2681  0.3311  0.1171
   53loPI   GL1  837  17.471  17.489   9.760 -0.3221  0.1623  0.1546
   53loPI   GL2  838  17.410  17.160   9.673  0.3147 -0.4087  0.0428
   53loPI   C1A  839  17.607  17.679   9.426  0.1727 -0.0771  0.0761
   53loPI   C2A  840  17.625  17.640   8.985  0.0559  0.0931 -0.0697
   53loPI   C3A  841  17.776  17.679   8.587 -0.0061  0.0480  0.1595
   53loPI   C4A  842  17.924  17.728   8.177  0.2960  0.0713 -0.1410
   53loPI   C5A  843  18.051  17.645   7.767 -0.2378  0.1087  0.1662
   53loPI   C6A  844  17.995  18.017   7.491  0.1155  0.0356 -0.0231
   53loPI   C1B  845  17.502  17.240   9.240  0.0009 -0.1863  0.1122
   53loPI   C2B  846  17.418  17.188   8.736 -0.0673  0.0412  0.1494
   53loPI   C3B  847  17.303  17.408   8.457  0.0331 -0.2595 -0.6610
   53loPI   C4B  848  17.117  17.479   8.090 -0.1496 -0.0537  0.0732
   54loPI    C1  849  11.339   6.519  10.598 -0.0528  0.0577 -0.0057
   54loPI    C2  850  11.124   6.189  10.669  0.0559 -0.0239 -0.0522
   54loPI    C3  851  11.118   6.492  10.931 -0.0369 -0.0663 -0.0044
   54loPI   PO4  852  11.437   6.412  10.341  0.1994  0.1736 -0.1310
   54loPI   GL1  853  11.283   6.574   9.932  0.1313  0.0825 -0.0537
   54loPI   GL2  854  11.330   6.877   9.684  0.0841 -0.1851 -0.2017
   54loPI   C1A  855  11.618   6.502   9.611 -0.2563  0.1295 -0.0897
   54loPI   C2A  856  11.983   6.542   9.279  0.0279 -0.1326  0.1955
   54loPI   C3A  857  12.062   6.328   8.882 -0.0797 -0.0412  0.0458
   54loPI   C4A  858  12.046   6.096   8.471 -0.1086  0.3017 -0.1382
   54loPI   C5A  859  11.995   5.827   8.085 -0.0557  0.1992  0.0403
   54loPI   C6A  860  11.866   5.378   8.145 -0.3100 -0.0746  0.0938
   54loPI   C1B  861  11.707   6.917   9.357  0.0325 -0.0106  0.0944
   54loPI   C2B  862  11.931   6.978   9.098 -0.0637 -0.2593  0.3613
   54loPI   C3B  863  12.020   7.155   8.673 -0.3367 -0.2321  0.1821
   54loPI   C4B  864  11.931   7.133   8.301 -0.1472 -0.0249 -0.0566
   55loPI    C1  865  13.857   5.972  10.770 -0.0639  0.1707  0.0866
   55loPI    C2  866  14.105   5.660  10.736 -0.2530  0.0033  0.2110
   55loPI    C3  867  14.229   5.996  10.914 -0.0537 -0.0061  0.0929
   55loPI   PO4  868  13.776   6.063  10.500 -0.3833  0.3237  0.1945
   55loPI   GL1  869  13.485   6.156  10.127 -0.1389  0.1550 -0.0303
   55loPI   GL2  870  13.164   6.154  10.094  0.1070  0.1202 -0.1103
   55loPI   C1A  871  13.533   5.884   9.847 -0.0249  0.3119 -0.0276
   55loPI   C2A  872  13.556   5.864   9.388 -0.0907  0.0225  0.0109
   55loPI   C3A  873  13.477   5.856   8.972 -0.0625 -0.0767  0.1213
   55loPI   C4A  874  13.376   6.082   8.554 -0.1110 -0.1065 -0.2443
   55loPI   C5A  875  13.617   6.351   8.237  0.1259  0.0347 -0.2231
   55loPI   C6A  876  13.666   6.304   7.785  0.0038 -0.1713  0.2402
   55loPI   C1B  877  12.982   5.882   9.689  0.0996 -0.2439 -0.2697
   55loPI   C2B  878  13.097   5.720   9.233 -0.1403  0.2258 -0.1722
   55loPI   C3B  879  13.012   5.911   8.789  0.0966  0.0432  0.1586
   55loPI   C4B  880  13.031   5.865   8.297  0.3129  0.0920 -0.0575
   56loPI    C1  881   4.288   9.221  10.162 -0.1362 -0.1032  0.0931
   56loPI    C2  882   4.310   9.044  10.520  0.0289  0.0025  0.1365
   56loPI    C3  883   4.526   9.372  10.446  0.1916 -0.1642 -0.1435
   56loPI   PO4  884   4.100   9.210  10.117 -0.1861 -0.0662  0.1461
   56loPI   GL1  885   3.880   9.364   9.737 -0.1292 -0.0511  0.0407
   56loPI   GL2  886   4.234   9.177   9.635  0.0179 -0.0673 -0.0586
   56loPI   C1A  887   3.760   9.139   9.422  0.0920 -0.2640  0.3317
   56loPI   C2A  888   3.845   8.980   9.061 -0.1741 -0.0109 -0.3187
   56loPI   C3A  889   3.823   8.885   8.609  0.0979 -0.1163  0.4629
   56loPI   C4A  890   4.121   8.992   8.129 -0.3723 -0.0050  0.2244
   56loPI   C5A  891   4.555   8.996   8.000  0.1274 -0.0862  0.3773
   56loPI   C6A  892   5.019   8.898   7.955 -0.1310  0.1883 -0.1942
   56loPI   C1B  893   4.382   9.119   9.278 -0.0893  0.1420  0.0448
   56loPI   C2B  894   4.423   8.894   8.864  0.0501 -0.2768 -0.2676
   56loPI   C3B  895   4.306   8.702   8.566  0.2097  0.1087 -0.1328
   56loPI   C4B  896   4.336   8.500   8.146 -0.2659 -0.0405  0.0845
   57loPI    C1  897   8.255  14.151  10.470  0.0923 -0.1205 -0.0746
   57loPI    C2  898   8.186  14.390  10.783 -0.1036 -0.0108 -0.2000
   57loPI    C3  899   7.971  14.056  10.735  0.1311 -0.1853 -0.0560
   57loPI   PO4  900   8.540  14.154  10.311  0.1764 -0.1410  0.0707
   57loPI   GL1  901   8.662  13.881  10.008 -0.1776  0.0888  0.3074
   57loPI   GL2  902   8.651  13.660   9.857  0.1540  0.1196 -0.1976
   57loPI   C1A  903   9.026  13.976   9.733  0.1028 -0.1848 -0.1001
   57loPI   C2A  904   9.202  14.027   9.327  0.0135 -0.1206 -0.1226
   57loPI   C3A  905   9.252  14.153   8.878  0.0329  0.0123 -0.1099
   57loPI   C4A  906   9.333  14.131   8.469 -0.0211 -0.0662  0.3428
   57loPI   C5A  907   9.691  14.034   8.123  0.1633  0.0458  0.0295
   57loPI   C6A  908  10.162  13.885   8.168 -0.1585 -0.0266  0.0614
   57loPI   C1B  909   8.753  13.704   9.399 -0.0644  0.2525 -0.2318
   57loPI   C2B  910   8.854  13.871   8.929  0.1793  0.0528  0.1405
   57loPI   C3B  911   8.876  13.853   8.490  0.0300  0.1713  0.2071
   57loPI   C4B  912   8.745  13.762   8.113  0.2082 -0.0182  0.0534
   58loPI    C1  913   9.281   0.917  10.874 -0.0450  0.1588  0.1069
   58loPI    C2  914   9.104   1.109  10.570  0.0756 -0.0348 -0.0887
   58loPI    C3  915   9.490   1.177  10.653  0.0789 -0.0822 -0.0644
   58loPI   PO4  916   9.155   0.592  10.731  0.2131  0.0477 -0.0310
   58loPI   GL1  917   9.114   0.682  10.341  0.2794  0.2810  0.1664
   58loPI   GL2  918   9.266   0.865  10.137 -0.0587 -0.1410 -0.0238
   58loPI   C1A  919   9.057   0.296  10.150 -0.0072  0.3455  0.1638
   58loPI   C2A  920   9.086   0.064   9.780  0.1492  0.1725 -0.3031
   58loPI   C3A  921   9.012  -0.120   9.329  0.0115 -0.3093 -0.1997
   58loPI   C4A  922   9.036  -0.206   8.879  0.1870 -0.0518  0.1208
   58loPI   C5A  923   9.228  -0.278   8.438 -0.0477 -0.2053  0.0212
   58loPI   C6A  924   9.445  -0.471   8.161  0.1482 -0.0224 -0.1270
   58loPI   C1B  925   9.440   0.920   9.633  0.0054 -0.0109 -0.1574
   58loPI   C2B  926   9.464   0.780   9.224  0.0317 -0.1070  0.1836
   58loPI   C3B  927   9.504   0.637   8.827 -0.3125  0.0861 -0.1753
   58loPI   C4B  928   9.660   0.870   8.405  0.0313 -0.1879 -0.0245
   59loPI    C1  929   3.200   3.311  10.346  0.1087  0.0032  0.1375
   59loPI    C2  930   3.120   3.317  10.738 -0.1406  0.0800  0.0873
   59loPI    C3  931   3.458   3.150  10.605 -0.0887 -0.0104  0.3287
   59loPI   PO4  932   2.978   3.209  10.268  0.2125  0.2195 -0.1635
   59loPI   GL1  933   2.806   3.244   9.981 -0.0016  0.1751  0.2910
   59loPI   GL2  934   2.839   3.606  10.038 -0.0154 -0.0127  0.0153
   59loPI   C1A  935   2.681   3.109   9.533 -0.0304 -0.0583  0.0734
   59loPI   C2A  936   2.737   3.085   9.037  0.2688  0.1441  0.1508
   59loPI   C3A  937   2.679   3.048   8.570  0.2153  0.1921  0.2856
   59loPI   C4A  938   2.530   3.084   8.200  0.1264  0.0677  0.0034
   59loPI   C5A  939   2.285   3.441   7.971 -0.0532 -0.1713  0.1377
   59loPI   C6A  940   1.948   3.576   8.064 -0.1083  0.0288  0.2101
   59loPI   C1B  941   2.617   3.583   9.626  0.1304 -0.0754 -0.2231
   59loPI   C2B  942   2.630   3.592   9.187  0.1595  0.0192  0.0462
   59loPI   C3B  943   2.614   3.499   8.776  0.1308 -0.0686  0.0709
   59loPI   C4B  944   2.667   3.585   8.394  0.0574 -0.0234 -0.0140
   60loPI    C1  945   1.135   7.661  10.505  0.0934  0.2020  0.0880
   60loPI    C2  946   0.746   7.692  10.416  0.0832  0.1742  0.1225
   60loPI    C3  947   0.885   7.841  10.760  0.1086  0.2114  0.0963
   60loPI   PO4  948   1.308   7.698  10.368 -0.2890  0.2233  0.0217
   60loPI   GL1  949   1.428   7.763   9.947 -0.3241  0.1610  0.0234
   60loPI   GL2  950   1.758   7.716   9.896  0.0029 -0.0873  0.0560
   60loPI   C1A  951   1.182   7.929   9.590  0.0485 -0.0607 -0.1467
   60loPI   C2A  952   0.925   8.143   9.386  0.2904 -0.0483 -0.2934
   60loPI   C3A  953   1.055   8.297   8.985  0.1513  0.1617 -0.0534
   60loPI   C4A  954   1.331   8.515   8.609 -0.2306 -0.1651  0.0669
   60loPI   C5A  955   1.062   8.693   8.234  0.0120  0.0871 -0.3095
   60loPI   C6A  956   1.258   8.934   8.044  0.0337  0.0424 -0.0688
   60loPI   C1B  957   1.505   7.591   9.460 -0.0768 -0.1196  0.0847
   60loPI   C2B  958   1.255   7.751   9.093 -0.1396  0.4300 -0.1137
   60loPI   C3B  959   1.207   7.892   8.658 -0.0313 -0.0225  0.1030
   60loPI   C4B  960   0.934   8.221   8.500 -0.0669 -0.0236 -0.2339
   61loPI    C1  961   3.708   3.588  10.719  0.2134  0.0071  0.0217
   61loPI    C2  962   3.498   3.514  11.051  0.1483  0.0059 -0.0197
   61loPI    C3  963   3.846   3.709  11.075  0.0854  0.1125  0.0360
   61loPI   PO4  964   3.506   3.653  10.510 -0.0469 -0.0906 -0.3545
   61loPI   GL1  965   3.523   3.710  10.111 -0.1071  0.1017 -0.1235
   61loPI   GL2  966   3.702   4.081  10.083  0.0954 -0.2901 -0.1804
   61loPI   C1A  967   3.309   3.499   9.774 -0.1842 -0.0746 -0.1229
   61loPI   C2A  968   3.073   3.463   9.471 -0.2529 -0.1597  0.2000
   61loPI   C3A  969   3.051   3.415   9.022  0.0583 -0.1146  0.1575
   61loPI   C4A  970   3.051   3.339   8.664 -0.2666 -0.2457 -0.1635
   61loPI   C5A  971   3.202   3.314   8.272 -0.0618  0.1009 -0.0457
   61loPI   C6A  972   2.965   3.341   7.975  0.2836  0.1593  0.4653
   61loPI   C1B  973   3.580   3.900   9.674 -0.1044 -0.1993 -0.1502
   61loPI   C2B  974   3.641   3.729   9.361  0.0212  0.1482 -0.0709
   61loPI   C3B  975   3.507   3.685   8.982 -0.0996 -0.1694 -0.0538
   61loPI   C4B  976   3.566   3.639   8.545  0.2420  0.0192  0.0381
   62loPI    C1  977   1.573  11.106  10.541 -0.0498  0.0970 -0.0573
   62loPI    C2  978   1.240  11.322  10.594 -0.0617  0.0975 -0.1318
   62loPI    C3  979   1.304  10.994  10.814  0.0568  0.2931  0.1311
   62loPI   PO4  980   1.599  11.108  10.257 -0.1399 -0.2284  0.1736
   62loPI   GL1  981   1.798  11.176   9.912 -0.2437 -0.3605  0.1501
   62loPI   GL2  982   1.924  10.831   9.944 -0.1004  0.3374  0.0362
   62loPI   C1A  983   1.983  11.216   9.453 -0.0701  0.1217  0.0634
   62loPI   C2A  984   2.060  11.188   9.083  0.0690 -0.2869 -0.1221
   62loPI   C3A  985   2.203  11.127   8.751  0.1029 -0.0896 -0.2201
   62loPI   C4A  986   2.177  10.972   8.326  0.1783 -0.0871  0.2318
   62loPI   C5A  987   2.329  10.920   7.891 -0.1248  0.1080  0.1203
   62loPI   C6A  988   2.740  10.768   7.805 -0.0227 -0.2349 -0.2141
   62loPI   C1B  989   2.137  10.764   9.555  0.0791  0.0804 -0.0780
   62loPI   C2B  990   2.361  10.725   9.201  0.2905 -0.0699  0.1636
   62loPI   C3B  991   2.568  10.764   8.814  0.0810  0.1045  0.1569
   62loPI   C4B  992   2.607  10.740   8.328  0.2698 -0.0623 -0.0058
   63loPI    C1  993  17.476  15.045  10.504 -0.4123  0.2238  0.1713
   63loPI    C2  994  17.734  15.248  10.732  0.1079 -0.1365 -0.0757
   63loPI    C3  995  17.615  14.882  10.842  0.0459 -0.1481 -0.1809
   63loPI   PO4  996  17.302  15.221  10.415 -0.1505  0.2403 -0.0589
   63loPI   GL1  997  17.307  15.533  10.067  0.1981  0.1850  0.0788
   63loPI   GL2  998  17.400  15.802   9.959 -0.2557 -0.3371  0.1179
   63loPI   C1A  999  17.321  15.356   9.589 -0.1849 -0.0280 -0.0093
   63loPI   C2A 1000  17.323  15.437   9.146 -0.2770 -0.1146 -0.2376
   63loPI   C3A 1001  17.177  15.296   8.744 -0.0384  0.1398  0.2680
   63loPI   C4A 1002  17.513  15.211   8.425  0.0459 -0.2971 -0.0024
   63loPI   C5A 1003  17.902  15.319   8.122  0.0284  0.2864  0.3574
   63loPI   C6A 1004  18.197  15.132   7.745 -0.4078  0.0469 -0.0353
   63loPI   C1B 1005  17.472  15.832   9.471  0.2077 -0.0108  0.0362
   63loPI   C2B 1006  17.429  15.948   9.162  0.0175  0.2155  0.3596
   63loPI   C3B 1007  17.463  15.836   8.704 -0.2622  0.2352  0.0730
   63loPI   C4B 1008  17.342  15.967   8.366  0.0979 -0.1581  0.0047
   64loPI    C1 1009  16.201  14.510  10.809  0.1096  0.1130  0.1417
   64loPI    C2 1010  15.973  14.181  10.823  0.1213  0.0867 -0.1984
   64loPI    C3 1011  16.098  14.353  11.162  0.0599 -0.2198 -0.0170
   64loPI   PO4 1012  16.321  14.401  10.548 -0.0781  0.2865  0.1795
   64loPI   GL1 1013  16.312  14.361  10.109 -0.1338 -0.2650  0.0826
   64loPI   GL2 1014  16.391  14.070  10.134  0.2506 -0.0659 -0.1656
   64loPI   C1A 1015  16.094  14.470   9.734 -0.0757 -0.1300 -0.1040
   64loPI   C2A 1016  16.022  14.496   9.299  0.1819  0.0771  0.1448
   64loPI   C3A 1017  16.035  14.561   8.821 -0.0401 -0.1469 -0.2293
   64loPI   C4A 1018  16.194  14.615   8.409  0.0888  0.2656  0.2648
   64loPI   C5A 1019  16.447  14.513   8.016  0.1595  0.0663 -0.2305
   64loPI   C6A 1020  16.941  14.517   7.965  0.0245  0.3488 -0.1438
   64loPI   C1B 1021  16.330  14.045   9.662  0.0913 -0.0623  0.1573
   64loPI   C2B 1022  16.245  14.088   9.305  0.0864  0.2950  0.0954
   64loPI   C3B 1023  16.206  14.086   8.847  0.3093 -0.2174 -0.1690
   64loPI   C4B 1024  16.359  14.078   8.486 -0.0058 -0.1097  0.0424
   65loPI    C1 1025   8.693   7.482  10.823  0.0542 -0.1127  0.0619
   65loPI    C2 1026   8.603   7.693  11.151  0.0667  0.0211 -0.0200
   65loPI    C3 1027   8.762   7.328  11.185 -0.1107 -0.0443  0.1237
   65loPI   PO4 1028   8.828   7.649  10.631  0.2084 -0.0937 -0.0486
   65loPI   GL1 1029   8.969   7.540  10.236  0.1288 -0.1045  0.0474
   65loPI   GL2 1030   9.007   7.856  10.121 -0.2869 -0.3227  0.0876
   65loPI   C1A 1031   9.265   7.477   9.976  0.2803  0.1413  0.1650
   65loPI   C2A 1032   9.212   7.516   9.534  0.3884  0.0597 -0.1162
   65loPI   C3A 1033   9.178   7.537   9.102  0.0080 -0.0936  0.4058
   65loPI   C4A 1034   9.330   7.497   8.769  0.0970 -0.0334 -0.0363
   65loPI   C5A 1035   9.643   7.515   8.581  0.1359  0.0056  0.0053
   65loPI   C6A 1036   9.990   7.750   8.386  0.2019  0.1197  0.2093
   65loPI   C1B 1037   8.982   7.945   9.698 -0.2026  0.2522 -0.1143
   65loPI   C2B 1038   9.058   8.108   9.313 -0.0064 -0.1971  0.0409
   65loPI   C3B 1039   9.144   8.020   8.807  0.0978 -0.0668  0.0207
   65loPI   C4B 1040   9.275   7.943   8.412 -0.0351  0.0996 -0.1868
   66loPI    C1 1041   8.211   4.423  10.847 -0.1361 -0.0695 -0.1394
   66loPI    C2 1042   8.407   4.340  11.185  0.0355 -0.0039 -0.2216
   66loPI    C3 1043   8.029   4.469  11.201  0.0265 -0.0471 -0.0578
   66loPI   PO4 1044   8.204   4.188  10.687 -0.1472  0.0530  0.1432
   66loPI   GL1 1045   8.129   4.133  10.360  0.1834 -0.1541 -0.1431
   66loPI   GL2 1046   8.059   3.877  10.348  0.0726  0.3744  0.3168
   66loPI   C1A 1047   8.323   4.250  10.038  0.1015  0.0093 -0.3466
   66loPI   C2A 1048   8.514   4.244   9.745  0.0916  0.3628 -0.2177
   66loPI   C3A 1049   8.664   4.162   9.310 -0.0441  0.1536  0.0166
   66loPI   C4A 1050   8.598   3.940   8.931  0.0148  0.0119  0.0226
   66loPI   C5A 1051   8.592   4.047   8.474 -0.0427 -0.2140 -0.0993
   66loPI   C6A 1052   8.791   3.945   8.119  0.0202 -0.1999 -0.0206
   66loPI   C1B 1053   8.071   3.866   9.870  0.1686  0.2995  0.1590
   66loPI   C2B 1054   8.221   3.827   9.331 -0.2190 -0.0035 -0.1667
   66loPI   C3B 1055   8.101   4.000   8.890 -0.1209 -0.0147 -0.0042
   66loPI   C4B 1056   8.055   3.979   8.408 -0.0437  0.1963 -0.1303
   67loPI    C1 1057   8.058   6.368  10.951 -0.0562  0.0241 -0.1759
   67loPI    C2 1058   7.868   6.161  11.235 -0.0920 -0.0450 -0.2497
   67loPI    C3 1059   8.130   6.446  11.336  0.0910 -0.2474 -0.1458
   67loPI   PO4 1060   7.790   6.519  10.668  0.1883  0.0618  0.0715
   67loPI   GL1 1061   7.781   6.587  10.187  0.1257  0.0779  0.0399
   67loPI   GL2 1062   7.952   6.886  10.030 -0.0978  0.1090  0.2051
   67loPI   C1A 1063   7.810   6.476   9.799  0.2220  0.3747 -0.2193
   67loPI   C2A 1064   7.619   6.521   9.366  0.1197 -0.2335 -0.2796
   67loPI   C3A 1065   7.734   6.366   8.998  0.1356 -0.0239 -0.1676
   67loPI   C4A 1066   8.110   6.569   8.659  0.0159  0.0450  0.0612
   67loPI   C5A 1067   8.196   6.891   8.389 -0.1738  0.1100 -0.0832
   67loPI   C6A 1068   8.312   6.964   7.923 -0.1331 -0.4118  0.0444
   67loPI   C1B 1069   7.984   6.853   9.663 -0.0273 -0.0439 -0.0503
   67loPI   C2B 1070   8.111   6.832   9.187 -0.1162  0.1150 -0.1023
   67loPI   C3B 1071   8.169   7.130   8.858  0.1003 -0.2341  0.1484
   67loPI   C4B 1072   8.428   7.229   8.624  0.0678  0.2844  0.0770
   68loPI    C1 1073   4.073   0.650  10.637 -0.0848  0.2419  0.2594
   68loPI    C2 1074   3.890   0.315  10.517  0.1365  0.2946 -0.2512
   68loPI    C3 1075   4.271   0.302  10.637  0.0019  0.2909  0.1930
   68loPI   PO4 1076   3.992   0.800  10.474 -0.2364 -0.0678  0.0595
   68loPI   GL1 1077   4.087   1.037  10.091  0.1767 -0.0914  0.0944
   68loPI   GL2 1078   4.006   1.311   9.974 -0.1247  0.2856 -0.2629
   68loPI   C1A 1079   4.197   1.026   9.620  0.0090  0.1399 -0.3229
   68loPI   C2A 1080   4.196   1.199   9.257 -0.0700 -0.0540  0.1666
   68loPI   C3A 1081   4.404   1.344   8.929 -0.1181 -0.1986 -0.0456
   68loPI   C4A 1082   4.580   1.766   8.634  0.3258  0.1510 -0.0310
   68loPI   C5A 1083   4.452   1.872   8.198 -0.1847 -0.0218  0.4697
   68loPI   C6A 1084   4.780   1.836   7.981  0.0549 -0.3135  0.0676
   68loPI   C1B 1085   4.012   1.527   9.556 -0.2153  0.2390 -0.4677
   68loPI   C2B 1086   4.129   1.700   9.194 -0.0157 -0.0790  0.0855
   68loPI   C3B 1087   4.434   1.985   9.028  0.4241  0.3541  0.0271
   68loPI   C4B 1088   4.555   2.286   8.953 -0.1250  0.0535 -0.1549
   69loPI    C1 1089  13.176  17.369  10.778 -0.0891  0.2747 -0.1065
   69loPI    C2 1090  12.781  17.307  10.765 -0.0711  0.1232  0.0250
   69loPI    C3 1091  12.961  17.377  11.115  0.0586 -0.0847  0.0013
   69loPI   PO4 1092  13.273  17.425  10.476  0.1656  0.1549 -0.0033
   69loPI   GL1 1093  13.347  17.683  10.092 -0.0039  0.4086 -0.0655
   69loPI   GL2 1094  13.057  17.589  10.038 -0.0264 -0.0505  0.0951
   69loPI   C1A 1095  13.577  17.315   9.880  0.2293  0.0937  0.0614
   69loPI   C2A 1096  13.554  17.062   9.579 -0.0847 -0.0087  0.3008
   69loPI   C3A 1097  13.635  16.953   9.138 -0.1485 -0.0229 -0.0094
   69loPI   C4A 1098  13.859  16.924   8.762 -0.0355 -0.2711  0.1201
   69loPI   C5A 1099  13.963  17.252   8.407 -0.1324 -0.1180  0.0463
   69loPI   C6A 1100  14.081  17.630   8.158 -0.2415  0.1715 -0.0267
   69loPI   C1B 1101  13.136  17.331   9.694  0.0700 -0.4111  0.0294
   69loPI   C2B 1102  13.159  17.267   9.293 -0.2615 -0.1716  0.0550
   69loPI   C3B 1103  13.072  17.210   8.953 -0.2656  0.0067 -0.0756
   69loPI   C4B 1104  12.865  17.202   8.571  0.3168 -0.2152  0.1694
   70loPI    C1 1105   2.723  18.091  10.844  0.2016 -0.3191 -0.1225
   70loPI    C2 1106   2.615  17.757  10.654 -0.0446 -0.2464 -0.1130
   70loPI    C3 1107   2.400  17.890  10.964 -0.0742  0.0356 -0.2516
   70loPI   PO4 1108   2.876  18.254  10.598 -0.1710  0.1743 -0.1839
   70loPI   GL1 1109   2.832  17.981  10.240 -0.0831  0.0862 -0.0484
   70loPI   GL2 1110   2.552  17.878  10.172 -0.2525 -0.0974 -0.0204
   70loPI   C1A 1111   3.036  17.979   9.788  0.2088  0.0697 -0.0131
   70loPI   C2A 1112   3.236  18.049   9.444  0.1033  0.1320  0.2926
   70loPI   C3A 1113   3.332  18.101   8.961 -0.0865  0.2056 -0.2083
   70loPI   C4A 1114   3.354  18.364   8.556 -0.0504 -0.1490 -0.2895
   70loPI   C5A 1115   3.550  18.572   8.173  0.1872  0.0828 -0.2234
   70loPI   C6A 1116   3.864  18.897   7.983  0.1178  0.1936 -0.0636
   70loPI   C1B 1117   2.589  17.716   9.782  0.2189 -0.0307 -0.3426
   70loPI   C2B 1118   2.764  17.787   9.335 -0.3161  0.2870 -0.3993
   70loPI   C3B 1119   2.894  17.882   9.024  0.3597 -0.0293 -0.2201
   70loPI   C4B 1120   2.817  18.173   8.748  0.0883  0.0815  0.1361
   71loPI    C1 1121   6.821   4.217  10.688 -0.2343 -0.0472  0.0988
   71loPI    C2 1122   6.950   4.596  10.670  0.0067 -0.1242  0.1602
   71loPI    C3 1123   6.767   4.462  11.000  0.0024 -0.0868  0.1730
   71loPI   PO4 1124   6.682   4.232  10.437 -0.0946 -0.1503  0.4070
   71loPI   GL1 1125   6.706   4.479  10.144  0.1486 -0.1877  0.2049
   71loPI   GL2 1126   6.793   4.688  10.166 -0.1000 -0.1553  0.0290
   71loPI   C1A 1127   6.874   4.344   9.708  0.0372  0.1705  0.1812
   71loPI   C2A 1128   7.298   4.256   9.438  0.4189 -0.1087 -0.1391
   71loPI   C3A 1129   7.348   4.484   9.233  0.0140 -0.3752 -0.3351
   71loPI   C4A 1130   7.469   4.661   8.833  0.0409 -0.0832 -0.1173
   71loPI   C5A 1131   7.517   4.591   8.378 -0.0303 -0.1694  0.2004
   71loPI   C6A 1132   7.823   4.341   8.149 -0.0247  0.0542  0.0950
   71loPI   C1B 1133   6.852   4.810   9.727 -0.1696 -0.1560  0.3047
   71loPI   C2B 1134   6.930   4.790   9.319 -0.0867  0.1121 -0.0808
   71loPI   C3B 1135   6.979   4.708   8.932  0.2396 -0.1349  0.2698
   71loPI   C4B 1136   6.923   4.624   8.448  0.2106 -0.1538  0.4911
   72loPI    C1 1137  12.476  10.414  10.724 -0.1195  0.2035  0.0703
   72loPI    C2 1138  12.201  10.319  10.451 -0.2066 -0.1041  0.2606
   72loPI    C3 1139  12.089  10.485  10.797 -0.0957  0.2941  0.1102
   72loPI   PO4 1140  12.708  10.453  10.548 -0.3229  0.0866 -0.1227
   72loPI   GL1 1141  12.932  10.647  10.222 -0.2268  0.1463 -0.2220
   72loPI   GL2 1142  12.927  10.915  10.140 -0.1804  0.0747  0.1086
   72loPI   C1A 1143  12.794  10.398   9.898 -0.0721 -0.1581  0.2310
   72loPI   C2A 1144  13.019  10.014   9.879 -0.0449 -0.1904  0.2840
   72loPI   C3A 1145  13.333   9.859   9.647  0.3925  0.0710  0.0724
   72loPI   C4A 1146  13.223   9.926   9.281 -0.0081  0.1017 -0.1297
   72loPI   C5A 1147  13.331   9.877   8.937 -0.2972 -0.2168  0.0198
   72loPI   C6A 1148  13.660   9.857   8.554 -0.2585  0.2269 -0.0414
   72loPI   C1B 1149  12.950  10.877   9.734  0.0730 -0.0128 -0.1225
   72loPI   C2B 1150  12.999  10.780   9.351  0.0111  0.0066  0.1517
   72loPI   C3B 1151  13.076  10.731   8.879  0.1959 -0.1434 -0.0920
   72loPI   C4B 1152  12.984  10.894   8.439 -0.2910  0.1680 -0.0850
   73loPI    C1 1153   7.284   5.948  10.849  0.0813 -0.1342  0.0682
   73loPI    C2 1154   7.666   6.038  10.771  0.0084  0.1262  0.0002
   73loPI    C3 1155   7.577   5.756  11.040  0.2506 -0.1091 -0.1619
   73loPI   PO4 1156   7.164   5.977  10.625  0.0308  0.0204  0.1904
   73loPI   GL1 1157   7.002   6.164  10.263  0.2936  0.4210 -0.0247
   73loPI   GL2 1158   6.822   6.189  10.035  0.0480 -0.1295  0.2572
   73loPI   C1A 1159   7.259   6.200   9.846 -0.1018  0.3073  0.1215
   73loPI   C2A 1160   7.225   6.300   9.416 -0.0499 -0.1725  0.0342
   73loPI   C3A 1161   7.211   6.385   8.999  0.1410  0.1907 -0.1051
   73loPI   C4A 1162   7.257   6.170   8.533  0.0826  0.1642 -0.0604
   73loPI   C5A 1163   7.779   6.111   8.434  0.1161  0.0983 -0.0563
   73loPI   C6A 1164   7.914   5.701   8.584 -0.2509 -0.1115 -0.0093
   73loPI   C1B 1165   6.764   6.449   9.730  0.2541  0.0090  0.3368
   73loPI   C2B 1166   6.623   6.412   9.361 -0.3826  0.0510 -0.1663
   73loPI   C3B 1167   6.569   6.030   9.104 -0.2220 -0.4003 -0.0371
   73loPI   C4B 1168   6.405   6.105   8.651  0.0645 -0.1089  0.1218
   74loPI    C1 1169  10.104  10.018  10.340  0.0515 -0.0983  0.0821
   74loPI    C2 1170  10.460  10.167  10.234 -0.0545  0.1163  0.0215
   74loPI    C3 1171  10.295  10.270  10.584 -0.0952  0.0842  0.0118
   74loPI   PO4 1172   9.955  10.059  10.198  0.1101  0.1568  0.3981
   74loPI   GL1 1173   9.742  10.067   9.853 -0.0737  0.2019  0.0738
   74loPI   GL2 1174   9.708  10.289   9.597 -0.0832  0.2563 -0.0426
   74loPI   C1A 1175   9.936   9.854   9.563  0.0791 -0.0911 -0.2583
   74loPI   C2A 1176  10.092   9.676   9.265 -0.2211  0.2178 -0.0707
   74loPI   C3A 1177  10.008   9.629   8.801 -0.3214  0.2955 -0.0856
   74loPI   C4A 1178  10.045   9.751   8.428 -0.0638  0.0508  0.0904
   74loPI   C5A 1179   9.802   9.893   8.159 -0.1619  0.1667  0.3006
   74loPI   C6A 1180   9.721  10.307   8.004  0.2380  0.0326  0.1972
   74loPI   C1B 1181   9.729  10.505   9.181  0.1025  0.3110  0.0295
   74loPI   C2B 1182  10.062  10.639   8.960 -0.0966  0.1742  0.1614
   74loPI   C3B 1183  10.278  10.549   8.589  0.1397  0.4470  0.2167
   74loPI   C4B 1184  10.235  10.194   8.272  0.0123 -0.0035  0.1797
   75loPI    C1 1185   6.996   9.541  10.776 -0.1457  0.0383 -0.3874
   75loPI    C2 1186   6.943   9.851  11.024 -0.0341  0.0212 -0.3420
   75loPI    C3 1187   6.716   9.524  11.061  0.2856 -0.1667  0.0375
   75loPI   PO4 1188   6.982   9.597  10.575 -0.0541 -0.1093 -0.2515
   75loPI   GL1 1189   6.991   9.531  10.100 -0.0030 -0.3057  0.1925
   75loPI   GL2 1190   6.639   9.495  10.094 -0.2328 -0.1009 -0.0608
   75loPI   C1A 1191   6.966   9.694   9.701 -0.1750  0.2471  0.0648
   75loPI   C2A 1192   6.939   9.729   9.296  0.1204  0.0597 -0.1029
   75loPI   C3A 1193   6.949   9.729   8.854 -0.0325 -0.2346 -0.2054
   75loPI   C4A 1194   6.964   9.747   8.382  0.0002 -0.0356  0.1158
   75loPI   C5A 1195   7.194   9.835   8.061  0.0053  0.0122  0.0365
   75loPI   C6A 1196   7.276   9.903   7.646  0.2653 -0.2265 -0.0934
   75loPI   C1B 1197   6.719   9.167   9.801 -0.0816 -0.0535  0.0187
   75loPI   C2B 1198   6.733   9.344   9.420 -0.1760  0.2224 -0.0651
   75loPI   C3B 1199   6.740   9.303   8.893  0.3896 -0.0431  0.0574
   75loPI   C4B 1200   6.680   9.347   8.609 -0.0294 -0.1482  0.0138
   76loPI    C1 1201   6.838   0.777  10.802  0.2286 -0.2159 -0.2472
   76loPI    C2 1202   6.565   0.519  10.941 -0.0015  0.1665  0.0329
   76loPI    C3 1203   6.899   0.588  11.149 -0.1266  0.3883  0.1639
   76loPI   PO4 1204   6.951   0.685  10.604  0.1339  0.0508 -0.0700
   76loPI   GL1 1205   6.777   0.795  10.224 -0.1658 -0.1203 -0.0323
   76loPI   GL2 1206   6.931   1.103  10.331  0.0854 -0.1056  0.0080
   76loPI   C1A 1207   7.091   0.698   9.772 -0.0085  0.2134 -0.0631
   76loPI   C2A 1208   7.150   0.732   9.405 -0.1517 -0.1161  0.2074
   76loPI   C3A 1209   7.299   0.953   9.023 -0.1924 -0.2038  0.0832
   76loPI   C4A 1210   7.427   1.148   8.654 -0.0416  0.3549 -0.1124
   76loPI   C5A 1211   7.298   1.387   8.330 -0.0861  0.0361 -0.1965
   76loPI   C6A 1212   7.496   1.696   8.083 -0.0205  0.0041  0.1975
   76loPI   C1B 1213   7.050   1.183   9.826  0.3870  0.2771  0.1778
   76loPI   C2B 1214   6.971   1.146   9.458  0.1072 -0.0068  0.0710
   76loPI   C3B 1215   7.171   1.533   9.147  0.2287  0.1652  0.0513
   76loPI   C4B 1216   7.118   1.665   8.823 -0.1193  0.0429  0.2924
   77loPI    C1 1217  15.724  15.481  10.494  0.0751  0.1458 -0.0181
   77loPI    C2 1218  15.790  15.488  10.888  0.0327  0.0732 -0.0097
   77loPI    C3 1219  15.418  15.531  10.746  0.0380  0.0258 -0.0383
   77loPI   PO4 1220  16.063  15.629  10.442 -0.0833  0.1827  0.1564
   77loPI   GL1 1221  16.268  15.644  10.096 -0.3240  0.1418  0.2510
   77loPI   GL2 1222  16.608  15.626  10.000 -0.0176 -0.1978 -0.2254
   77loPI   C1A 1223  16.141  15.465   9.682 -0.3599  0.1409  0.2863
   77loPI   C2A 1224  16.170  15.389   9.307  0.0980  0.0708 -0.0399
   77loPI   C3A 1225  16.140  15.384   8.907 -0.0379  0.0117 -0.1916
   77loPI   C4A 1226  16.191  15.494   8.436 -0.4107  0.3357 -0.1721
   77loPI   C5A 1227  16.588  15.359   8.166 -0.1478  0.1729 -0.2528
   77loPI   C6A 1228  16.803  15.539   7.819 -0.1337 -0.0614 -0.2260
   77loPI   C1B 1229  16.502  15.707   9.540  0.3014 -0.1373 -0.2175
   77loPI   C2B 1230  16.532  15.857   9.116  0.1213  0.3012 -0.0708
   77loPI   C3B 1231  16.413  15.794   8.736  0.2863 -0.0288 -0.1059
   77loPI   C4B 1232  16.504  15.828   8.266 -0.3334  0.1043  0.1469
   78loPI    C1 1233  13.651  17.893  10.666 -0.1642 -0.1352  0.1309
   78loPI    C2 1234  14.001  17.973  10.490 -0.2690  0.0532  0.0041
   78loPI    C3 1235  13.981  17.698  10.779 -0.0569 -0.1134 -0.1362
   78loPI   PO4 1236  13.525  17.983  10.512 -0.0771 -0.2490  0.0859
   78loPI   GL1 1237  13.525  18.162  10.135 -0.0027  0.0024  0.0510
   78loPI   GL2 1238  13.723  18.226  10.083  0.0598 -0.0728  0.0284
   78loPI   C1A 1239  13.185  18.161   9.751  0.0167 -0.0086 -0.1382
   78loPI   C2A 1240  13.194  18.201   9.378 -0.0570 -0.2897  0.0656
   78loPI   C3A 1241  13.204  18.152   9.001 -0.2880 -0.1671 -0.3411
   78loPI   C4A 1242  13.155  18.107   8.540 -0.0917 -0.1993  0.0407
   78loPI   C5A 1243  13.358  18.042   8.067  0.0339  0.1241  0.0023
   78loPI   C6A 1244  13.494  17.900   7.728  0.0166 -0.1922  0.0412
   78loPI   C1B 1245  13.605  18.401   9.700 -0.0123  0.1243 -0.1897
   78loPI   C2B 1246  13.699  18.311   9.247 -0.1078  0.1863  0.0165
   78loPI   C3B 1247  13.694  18.330   8.833  0.0247  0.1365  0.2313
   78loPI   C4B 1248  13.649  18.407   8.353 -0.1701 -0.1268  0.2905
   79loPI    C1 1249  15.839   2.824  10.226  0.0268  0.0692  0.0436
   79loPI    C2 1250  16.037   2.943  10.553  0.0057  0.1405  0.0307
   79loPI    C3 1251  15.645   3.013  10.520 -0.0569 -0.1488  0.1304
   79loPI   PO4 1252  15.931   2.554  10.186  0.1357 -0.0677 -0.0644
   79loPI   GL1 1253  16.230   2.598   9.813 -0.0337  0.0458  0.0630
   79loPI   GL2 1254  16.477   2.402   9.860 -0.2586 -0.0934 -0.2124
   79loPI   C1A 1255  16.497   2.841   9.594 -0.1978  0.1544  0.0438
   79loPI   C2A 1256  16.830   2.797   9.247  0.0008 -0.2628 -0.0751
   79loPI   C3A 1257  17.119   2.897   8.855  0.0139 -0.1196  0.2470
   79loPI   C4A 1258  17.319   2.978   8.508 -0.1728 -0.0375 -0.1351
   79loPI   C5A 1259  17.485   3.191   8.136 -0.0601 -0.1030 -0.2797
   79loPI   C6A 1260  17.703   3.449   7.940 -0.1102  0.1630  0.0393
   79loPI   C1B 1261  16.626   2.295   9.489  0.1317 -0.1101 -0.1508
   79loPI   C2B 1262  16.587   2.357   9.090 -0.0441  0.0703  0.1137
   79loPI   C3B 1263  16.658   2.407   8.638 -0.1999  0.1024  0.2213
   79loPI   C4B 1264  16.738   2.362   8.212 -0.0312  0.2314  0.0958
   80loPI    C1 1265   4.983   4.281  10.827  0.0691 -0.0069 -0.0397
   80loPI    C2 1266   4.912   4.395  11.204  0.0704 -0.1166 -0.0061
   80loPI    C3 1267   4.625   4.430  10.927  0.0743 -0.0220  0.0015
   80loPI   PO4 1268   5.139   4.366  10.669 -0.0099  0.0986 -0.3551
   80loPI   GL1 1269   5.267   4.292  10.164 -0.1171  0.2257  0.0265
   80loPI   GL2 1270   5.124   4.601  10.154  0.0080 -0.1096  0.1387
   80loPI   C1A 1271   5.046   4.174   9.833 -0.0092  0.1449 -0.0475
   80loPI   C2A 1272   4.731   4.110   9.629  0.0051 -0.2544 -0.0217
   80loPI   C3A 1273   4.583   3.836   9.388 -0.2010 -0.0067  0.0173
   80loPI   C4A 1274   4.505   3.779   8.920 -0.1403  0.1280 -0.2235
   80loPI   C5A 1275   4.476   3.750   8.526  0.0609 -0.0799  0.1723
   80loPI   C6A 1276   4.389   3.583   8.060  0.0300 -0.1231  0.2006
   80loPI   C1B 1277   4.995   4.684   9.713  0.1847 -0.4349  0.1065
   80loPI   C2B 1278   4.617   4.562   9.467  0.0521 -0.0215 -0.0089
   80loPI   C3B 1279   4.437   4.344   9.205  0.1159  0.3318 -0.2561
   80loPI   C4B 1280   4.253   4.377   8.803  0.0468  0.0146  0.2125
   81loPI    C1 1281   1.025   2.693  10.388 -0.1284 -0.2980 -0.0291
   81loPI    C2 1282   0.934   2.635  10.773  0.1039 -0.1105  0.0568
   81loPI    C3 1283   1.297   2.538  10.637  0.0491 -0.1020 -0.0978
   81loPI   PO4 1284   0.810   2.615  10.255  0.1744  0.0660  0.1905
   81loPI   GL1 1285   0.743   2.334  10.010 -0.0522  0.1435  0.0236
   81loPI   GL2 1286   0.413   2.284  10.086 -0.1149 -0.2667 -0.1368
   81loPI   C1A 1287   0.746   2.283   9.589  0.1419 -0.0344  0.1688
   81loPI   C2A 1288   0.909   2.235   9.185  0.1132  0.2701 -0.1411
   81loPI   C3A 1289   0.914   2.165   8.897 -0.2797 -0.2989 -0.0519
   81loPI   C4A 1290   0.915   2.187   8.411  0.0969  0.2069  0.3473
   81loPI   C5A 1291   0.782   2.187   8.045 -0.0124 -0.0035 -0.4626
   81loPI   C6A 1292   0.364   2.225   7.882 -0.1703  0.1451 -0.0254
   81loPI   C1B 1293   0.356   1.983   9.710 -0.2912 -0.2882  0.2646
   81loPI   C2B 1294   0.475   1.916   9.187  0.0182 -0.1832 -0.3290
   81loPI   C3B 1295   0.497   1.879   8.765 -0.0320 -0.2319 -0.1953
   81loPI   C4B 1296   0.346   2.048   8.363  0.0824  0.1826 -0.2423
   82loPI    C1 1297  11.438  11.528  10.824  0.1774 -0.1192 -0.2329
   82loPI    C2 1298  11.278  11.179  10.713 -0.0475 -0.1353  0.1222
   82loPI    C3 1299  11.427  11.222  11.081 -0.2757  0.2245  0.1768
   82loPI   PO4 1300  11.644  11.581  10.627 -0.0748  0.2621  0.1076
   82loPI   GL1 1301  11.765  11.644  10.232 -0.0698 -0.2752  0.1293
   82loPI   GL2 1302  11.501  11.585   9.995  0.1800  0.1130  0.1191
   82loPI   C1A 1303  11.918  11.701   9.740 -0.0777 -0.1404 -0.2821
   82loPI   C2A 1304  12.153  11.492   9.435 -0.2572  0.4241 -0.0039
   82loPI   C3A 1305  12.315  11.497   8.994  0.3965 -0.0250  0.1694
   82loPI   C4A 1306  12.305  11.473   8.616 -0.1902 -0.0260 -0.2334
   82loPI   C5A 1307  12.201  11.464   8.220  0.2080  0.0907  0.1240
   82loPI   C6A 1308  12.268  11.764   7.970  0.1248 -0.2220  0.0285
   82loPI   C1B 1309  11.328  11.759   9.618 -0.0899 -0.0630 -0.3548
   82loPI   C2B 1310  11.367  11.880   9.171 -0.0133 -0.0761 -0.0619
   82loPI   C3B 1311  11.448  12.015   8.722  0.3111 -0.3168  0.2984
   82loPI   C4B 1312  11.480  12.158   8.298 -0.2338  0.2883  0.1806
   83loPI    C1 1313  10.041  13.671  10.610 -0.0939 -0.0369 -0.0578
   83loPI    C2 1314   9.879  14.022  10.509 -0.1971 -0.1086 -0.1435
   83loPI    C3 1315  10.153  14.005  10.800 -0.2045  0.0401 -0.1268
   83loPI   PO4 1316  10.106  13.592  10.372  0.1715 -0.1400  0.1990
   83loPI   GL1 1317  10.242  13.197  10.171  0.0699  0.0783  0.0825
   83loPI   GL2 1318   9.867  13.193  10.188 -0.2536  0.2814 -0.0494
   83loPI   C1A 1319  10.581  12.902   9.888  0.3312  0.0376 -0.0357
   83loPI   C2A 1320  10.737  13.019   9.507  0.3651 -0.2493 -0.0066
   83loPI   C3A 1321  10.683  13.185   9.078  0.1685 -0.2450 -0.2195
   83loPI   C4A 1322  10.694  13.503   8.941  0.1305  0.1638 -0.2485
   83loPI   C5A 1323  10.563  13.368   8.483  0.2656  0.2137 -0.2581
   83loPI   C6A 1324  10.399  13.335   8.058 -0.0099  0.0474 -0.1995
   83loPI   C1B 1325  10.010  13.219   9.713 -0.1021  0.0421  0.0811
   83loPI   C2B 1326  10.265  13.230   9.361 -0.0160 -0.2271  0.1923
   83loPI   C3B 1327  10.171  13.181   8.890  0.2983 -0.1479 -0.1639
   83loPI   C4B 1328  10.037  13.225   8.559  0.0137  0.0111  0.1616
   84loPI    C1 1329  10.457   2.593  10.998 -0.0846  0.0918  0.0835
   84loPI    C2 1330  10.564   2.887  11.246 -0.0213 -0.0659  0.2452
   84loPI    C3 1331  10.240   2.667  11.325 -0.0700 -0.0389  0.1233
   84loPI   PO4 1332  10.474   2.804  10.645  0.4305  0.1873 -0.1246
   84loPI   GL1 1333  10.782   2.946  10.465 -0.1506  0.1069 -0.2684
   84loPI   GL2 1334  10.976   3.212  10.535 -0.1749  0.1179 -0.0279
   84loPI   C1A 1335  10.805   2.735  10.046 -0.1050 -0.2286  0.1190
   84loPI   C2A 1336  10.582   2.711   9.701 -0.4239 -0.0993 -0.0879
   84loPI   C3A 1337  10.765   2.664   9.331  0.1856 -0.3373 -0.4044
   84loPI   C4A 1338  10.756   2.506   8.991 -0.2150 -0.2216 -0.1067
   84loPI   C5A 1339  10.451   2.362   8.699  0.0651 -0.0400 -0.1149
   84loPI   C6A 1340   9.950   2.361   8.589  0.2138  0.0110 -0.2079
   84loPI   C1B 1341  10.956   3.346  10.069  0.0762 -0.3163  0.4011
   84loPI   C2B 1342  10.775   3.198   9.695 -0.0911  0.0018 -0.3267
   84loPI   C3B 1343  10.498   3.139   9.370  0.4000  0.0247  0.3828
   84loPI   C4B 1344  10.397   3.233   8.974  0.1943 -0.2310 -0.1655
   85loPI    C1 1345  13.432  13.250  10.899 -0.0889  0.0121  0.0090
   85loPI    C2 1346  13.646  12.912  10.908  0.1768  0.1694 -0.2130
   85loPI    C3 1347  13.690  13.185  11.198  0.0643  0.0768 -0.1075
   85loPI   PO4 1348  13.533  13.440  10.684 -0.0212  0.2266  0.0232
   85loPI   GL1 1349  13.604  13.440  10.218  0.2163  0.0079  0.2648
   85loPI   GL2 1350  13.411  13.257  10.077 -0.3865  0.0251 -0.0700
   85loPI   C1A 1351  13.987  13.218  10.013  0.0515 -0.0134 -0.1500
   85loPI   C2A 1352  14.202  12.977   9.684 -0.0620 -0.0053 -0.1266
   85loPI   C3A 1353  14.017  12.907   9.306  0.2037  0.0568 -0.0429
   85loPI   C4A 1354  13.813  12.804   8.916 -0.1904  0.1503  0.1659
   85loPI   C5A 1355  13.644  12.626   8.555 -0.1863  0.2028  0.0521
   85loPI   C6A 1356  13.746  12.514   8.116  0.0166  0.1774  0.0869
   85loPI   C1B 1357  13.645  13.393   9.652 -0.1762 -0.0236  0.0646
   85loPI   C2B 1358  13.730  13.356   9.251  0.4283  0.0675  0.0705
   85loPI   C3B 1359  13.780  13.314   8.823  0.1089  0.0487  0.0060
   85loPI   C4B 1360  13.708  13.180   8.402  0.0059 -0.0100 -0.2053
   86loPI    C1 1361   6.553  14.643  10.091  0.0407 -0.1366 -0.0364
   86loPI    C2 1362   6.548  14.518  10.471  0.0523  0.0215  0.0169
   86loPI    C3 1363   6.205  14.606  10.285  0.0512  0.0040  0.0105
   86loPI   PO4 1364   6.589  14.489   9.960  0.0870 -0.0309 -0.1793
   86loPI   GL1 1365   6.705  14.337   9.612  0.3271 -0.1557  0.0380
   86loPI   GL2 1366   6.461  14.156   9.542 -0.1038  0.3358  0.1800
   86loPI   C1A 1367   6.749  14.223   9.135 -0.2612 -0.1180  0.2243
   86loPI   C2A 1368   6.808  14.012   8.763 -0.0687  0.0822  0.0785
   86loPI   C3A 1369   6.637  13.740   8.531 -0.0839 -0.0372  0.1553
   86loPI   C4A 1370   6.461  13.383   8.355  0.0860 -0.0411  0.1142
   86loPI   C5A 1371   6.521  13.070   8.124 -0.4268 -0.1133 -0.2231
   86loPI   C6A 1372   6.776  12.868   7.829  0.0987 -0.1920  0.0028
   86loPI   C1B 1373   6.283  14.063   9.156  0.2169 -0.2184 -0.3731
   86loPI   C2B 1374   6.291  14.166   8.814  0.1409 -0.1565  0.1350
   86loPI   C3B 1375   6.453  14.182   8.350 -0.2239 -0.1183  0.0410
   86loPI   C4B 1376   6.309  14.049   7.913 -0.0821 -0.2606  0.1455
   87loPI    C1 1377  13.203  14.158  10.262 -0.0073  0.0045  0.0399
   87loPI    C2 1378  13.122  14.253  10.642  0.0298  0.0590  0.0344
   87loPI    C3 1379  12.860  14.342  10.353  0.0748  0.1657  0.0262
   87loPI   PO4 1380  13.250  13.961  10.274  0.1141 -0.0243 -0.1711
   87loPI   GL1 1381  13.130  13.622   9.979 -0.0877 -0.2541  0.0436
   87loPI   GL2 1382  13.375  13.921   9.787  0.0017 -0.0702 -0.2713
   87loPI   C1A 1383  13.182  13.424   9.603 -0.1979  0.1177  0.0714
   87loPI   C2A 1384  13.051  13.404   9.129 -0.0161 -0.1328  0.3814
   87loPI   C3A 1385  12.862  13.237   8.759 -0.1330 -0.1161  0.0998
   87loPI   C4A 1386  12.918  12.786   8.729  0.0288  0.1715 -0.1699
   87loPI   C5A 1387  12.789  12.525   8.389 -0.0372  0.3452  0.2993
   87loPI   C6A 1388  13.200  12.448   8.187  0.0628  0.2063  0.0735
   87loPI   C1B 1389  13.395  13.831   9.397 -0.2527  0.0518 -0.0910
   87loPI   C2B 1390  13.453  13.727   8.960  0.1037 -0.0035  0.1638
   87loPI   C3B 1391  13.507  13.604   8.499  0.1976  0.1657 -0.0389
   87loPI   C4B 1392  13.802  13.689   8.028 -0.0146 -0.0128  0.0466
   88loPI    C1 1393  11.497  15.334  10.731 -0.0870 -0.1672 -0.1370
   88loPI    C2 1394  11.317  14.980  10.682 -0.0328 -0.2034 -0.0772
   88loPI    C3 1395  11.179  15.240  10.954 -0.1766 -0.1082 -0.2395
   88loPI   PO4 1396  11.515  15.340  10.407 -0.0636  0.2687  0.2418
   88loPI   GL1 1397  11.314  15.380   9.966 -0.0251  0.1356 -0.0309
   88loPI   GL2 1398  10.967  15.501   9.908 -0.0093 -0.0135 -0.0465
   88loPI   C1A 1399  11.275  15.186   9.513  0.1640  0.1341  0.0718
   88loPI   C2A 1400  11.541  15.237   9.195  0.0622 -0.0761  0.0681
   88loPI   C3A 1401  11.700  15.154   8.787 -0.2215 -0.2478 -0.2832
   88loPI   C4A 1402  11.774  15.246   8.303 -0.1835  0.1365  0.0224
   88loPI   C5A 1403  11.801  15.542   8.014 -0.2844  0.1633  0.1600
   88loPI   C6A 1404  11.770  15.853   7.672 -0.0842  0.0359 -0.1236
   88loPI   C1B 1405  10.828  15.470   9.537  0.0163 -0.2309 -0.0443
   88loPI   C2B 1406  10.852  15.366   9.037 -0.3774  0.1244 -0.0065
   88loPI   C3B 1407  11.087  15.291   8.634  0.1107 -0.1550  0.0318
   88loPI   C4B 1408  11.325  15.024   8.398  0.0786 -0.5268 -0.0407
   89loPI    C1 1409   1.930   1.417  10.666 -0.1110  0.1433  0.0583
   89loPI    C2 1410   2.310   1.512  10.587 -0.0352 -0.0867  0.1360
   89loPI    C3 1411   2.139   1.638  10.926 -0.0951  0.1894  0.0065
   89loPI   PO4 1412   1.899   1.084  10.465 -0.2729  0.1361  0.1612
   89loPI   GL1 1413   1.787   0.948  10.119 -0.1725  0.3257  0.0869
   89loPI   GL2 1414   1.595   0.874   9.926 -0.2376 -0.0662  0.2245
   89loPI   C1A 1415   2.040   1.034   9.723 -0.1826  0.0085 -0.1252
   89loPI   C2A 1416   2.011   0.921   9.248  0.2053 -0.0823  0.2046
   89loPI   C3A 1417   2.173   0.870   8.819  0.2253 -0.1996 -0.0770
   89loPI   C4A 1418   2.176   1.076   8.562  0.1542 -0.0388 -0.0834
   89loPI   C5A 1419   2.280   0.991   8.122 -0.0753  0.0665 -0.0843
   89loPI   C6A 1420   2.563   0.979   7.746 -0.0757  0.0329 -0.1667
   89loPI   C1B 1421   1.574   1.009   9.515 -0.0813 -0.0550 -0.0305
   89loPI   C2B 1422   1.550   1.057   9.024 -0.1926  0.3185 -0.0983
   89loPI   C3B 1423   1.733   1.216   8.694 -0.2154 -0.0017 -0.1037
   89loPI   C4B 1424   1.811   1.215   8.255  0.0064 -0.3245 -0.0375
   90loPI    C1 1425   1.539  10.576  10.232  0.0989  0.0569  0.0615
   90loPI    C2 1426   1.464  10.268  10.477  0.0094  0.0504  0.0264
   90loPI    C3 1427   1.650  10.594  10.616  0.0048  0.0258  0.0905
   90loPI   PO4 1428   1.590  10.395   9.993  0.0190 -0.1712 -0.1094
   90loPI   GL1 1429   1.901  10.311   9.644 -0.3012 -0.0140  0.1338
   90loPI   GL2 1430   2.156  10.231   9.875 -0.1503 -0.0932 -0.3399
   90loPI   C1A 1431   1.990   9.883   9.558 -0.0125 -0.3074 -0.1324
   90loPI   C2A 1432   2.013   9.582   9.275 -0.1234 -0.2957 -0.1798
   90loPI   C3A 1433   2.110   9.711   8.860  0.1595  0.1018 -0.0634
   90loPI   C4A 1434   2.249   9.752   8.462 -0.0859 -0.3749  0.4185
   90loPI   C5A 1435   2.302   9.732   8.007  0.0738  0.1626  0.1708
   90loPI   C6A 1436   2.535   9.910   7.796 -0.1117  0.1026  0.1126
   90loPI   C1B 1437   2.390  10.273   9.394  0.0959 -0.1151  0.3394
   90loPI   C2B 1438   2.709  10.341   9.146  0.0926 -0.3988  0.1327
   90loPI   C3B 1439   2.796  10.353   8.741 -0.0927  0.2541 -0.0500
   90loPI   C4B 1440   3.023  10.582   8.560  0.0884 -0.0628 -0.3110
   91loPI    C1 1441   5.143   0.327  10.542 -0.1001 -0.0557  0.1457
   91loPI    C2 1442   4.891   0.491  10.806 -0.0605  0.1311  0.0690
   91loPI    C3 1443   5.283   0.477  10.886 -0.0775 -0.0315  0.1261
   91loPI   PO4 1444   5.103   0.560  10.367 -0.1603 -0.1406 -0.0112
   91loPI   GL1 1445   4.783   0.545  10.054  0.2007  0.3009  0.1647
   91loPI   GL2 1446   4.539   0.776   9.928 -0.0462 -0.1391  0.0635
   91loPI   C1A 1447   4.711   0.118   9.754 -0.0313  0.1613  0.1615
   91loPI   C2A 1448   4.724  -0.096   9.406  0.1702  0.0842  0.0996
   91loPI   C3A 1449   4.849  -0.087   8.915 -0.3400 -0.2406 -0.0492
   91loPI   C4A 1450   5.199   0.016   8.658  0.1022 -0.2044  0.0134
   91loPI   C5A 1451   5.631   0.131   8.571 -0.1090  0.1688  0.1035
   91loPI   C6A 1452   5.702   0.203   8.138 -0.0121  0.1549  0.4689
   91loPI   C1B 1453   4.606   0.583   9.544  0.2215 -0.0359  0.3259
   91loPI   C2B 1454   4.803   0.506   9.069 -0.0606  0.0945 -0.1600
   91loPI   C3B 1455   4.975   0.428   8.728  0.0671 -0.2104  0.3715
   91loPI   C4B 1456   5.128   0.308   8.273 -0.0525  0.0595  0.0137
   92loPI    C1 1457   7.737   9.665  10.361  0.0297  0.1744  0.0722
   92loPI    C2 1458   7.435   9.412  10.292  0.2294  0.0100 -0.2258
   92loPI    C3 1459   7.522   9.523  10.667 -0.0110 -0.1736 -0.1129
   92loPI   PO4 1460   7.732   9.819  10.200  0.1311  0.0149 -0.3205
   92loPI   GL1 1461   7.953   9.707   9.759  0.0835 -0.3302  0.2596
   92loPI   GL2 1462   8.252   9.786   9.801 -0.0632 -0.0862 -0.0064
   92loPI   C1A 1463   8.006   9.555   9.380  0.1186  0.0709 -0.0975
   92loPI   C2A 1464   7.924   9.546   8.900  0.0856 -0.1845  0.1525
   92loPI   C3A 1465   8.080   9.682   8.435  0.1551 -0.0559 -0.1989
   92loPI   C4A 1466   8.059   9.427   7.990  0.0127 -0.2953  0.1201
   92loPI   C5A 1467   8.236   9.424   7.646  0.1848 -0.2461  0.1810
   92loPI   C6A 1468   8.391   9.763   7.413  0.2635 -0.0594  0.0583
   92loPI   C1B 1469   8.300   9.970   9.448  0.2026  0.0205 -0.0531
   92loPI   C2B 1470   8.273   9.985   8.944 -0.1366  0.3631 -0.2933
   92loPI   C3B 1471   8.362  10.100   8.600 -0.0226 -0.0139 -0.1504
   92loPI   C4B 1472   8.455  10.153   8.165 -0.1283 -0.0617  0.2219
   93loPI    C1 1473   3.058   4.577  10.400 -0.0798  0.0170  0.0959
   93loPI    C2 1474   3.087   4.661  10.790 -0.0848 -0.1526  0.1337
   93loPI    C3 1475   2.994   4.290  10.672 -0.0519 -0.1096 -0.0298
   93loPI   PO4 1476   3.356   4.556  10.274 -0.1150  0.0619 -0.0666
   93loPI   GL1 1477   3.489   4.510   9.890 -0.3067  0.1801 -0.2431
   93loPI   GL2 1478   3.795   4.547   9.876 -0.1195  0.0024 -0.0035
   93loPI   C1A 1479   3.560   4.328   9.463  0.0839 -0.2309 -0.1312
   93loPI   C2A 1480   3.585   4.168   9.094 -0.0291 -0.0902 -0.3211
   93loPI   C3A 1481   3.499   4.135   8.712  0.2242  0.1274  0.0906
   93loPI   C4A 1482   3.478   4.069   8.312 -0.0356 -0.1567  0.1209
   93loPI   C5A 1483   3.798   4.309   7.994  0.1030 -0.2989  0.1445
   93loPI   C6A 1484   3.819   4.103   7.528  0.1330  0.1371 -0.1231
   93loPI   C1B 1485   3.675   4.878   9.567 -0.1592  0.0249  0.1125
   93loPI   C2B 1486   3.400   5.061   9.207  0.2952  0.1132  0.0996
   93loPI   C3B 1487   3.557   5.083   8.795 -0.0537 -0.0195 -0.0567
   93loPI   C4B 1488   3.680   4.932   8.487 -0.1758 -0.1674  0.2439
   94loPI    C1 1489  12.534  12.120  10.523  0.0945  0.0114  0.0104
   94loPI    C2 1490  12.606  12.275  10.885 -0.0800  0.0061  0.0483
   94loPI    C3 1491  12.368  11.955  10.847 -0.0097 -0.0335 -0.0651
   94loPI   PO4 1492  12.354  12.273  10.377  0.0740 -0.0980 -0.2625
   94loPI   GL1 1493  12.118  12.080  10.059 -0.2144  0.0077 -0.1073
   94loPI   GL2 1494  12.276  11.717  10.183  0.1799 -0.1966  0.1779
   94loPI   C1A 1495  12.240  12.127   9.658  0.1645 -0.2002 -0.2732
   94loPI   C2A 1496  12.181  11.938   9.216  0.1921  0.1679 -0.0134
   94loPI   C3A 1497  12.296  11.939   8.821  0.0618  0.0350  0.0160
   94loPI   C4A 1498  12.429  11.975   8.450  0.0392 -0.0656  0.3488
   94loPI   C5A 1499  12.574  12.139   8.131  0.0430 -0.0764  0.0120
   94loPI   C6A 1500  12.626  12.526   7.941  0.0851  0.0968 -0.0882
   94loPI   C1B 1501  12.464  11.711   9.705  0.0541 -0.0860  0.2361
   94loPI   C2B 1502  12.760  11.678   9.380 -0.1122 -0.0242  0.0614
   94loPI   C3B 1503  12.850  11.598   8.945 -0.1670 -0.0508 -0.3114
   94loPI   C4B 1504  12.772  11.633   8.584  0.0608  0.0408  0.1969
   95loPI    C1 1505   9.293   8.870  10.553 -0.0142  0.1575 -0.1263
   95loPI    C2 1506   8.971   8.639  10.500  0.2219 -0.1943 -0.0621
   95loPI    C3 1507   8.938   8.984  10.699 -0.1616 -0.1044 -0.2713
   95loPI   PO4 1508   9.384   8.887  10.266 -0.1284  0.0790  0.0705
   95loPI   GL1 1509   9.336   9.233   9.930 -0.2544  0.3714  0.1535
   95loPI   GL2 1510   9.302   8.862   9.770 -0.1211  0.0493 -0.0505
   95loPI   C1A 1511   9.062   9.387   9.587  0.0345  0.3039 -0.1921
   95loPI   C2A 1512   9.164   9.426   9.098 -0.0900 -0.1371 -0.0631
   95loPI   C3A 1513   8.972   9.356   8.694  0.1584  0.0204  0.1705
   95loPI   C4A 1514   9.067   9.592   8.335 -0.3119 -0.1157  0.0342
   95loPI   C5A 1515   8.901   9.640   7.900  0.2206 -0.1607  0.2058
   95loPI   C6A 1516   8.711   9.504   7.609  0.3321  0.1018 -0.0538
   95loPI   C1B 1517   9.276   8.859   9.378 -0.1183  0.1664 -0.0862
   95loPI   C2B 1518   9.176   8.936   8.999 -0.2576  0.1002 -0.0322
   95loPI   C3B 1519   9.243   8.865   8.584  0.0157 -0.0162 -0.0499
   95loPI   C4B 1520   9.243   8.454   8.329  0.1650 -0.1835 -0.0811
   96loPI    C1 1521   8.137  10.086  10.444 -0.1150 -0.1371  0.0407
   96loPI    C2 1522   8.022  10.432  10.609  0.1828  0.0325 -0.0977
   96loPI    C3 1523   8.242  10.173  10.820 -0.2936 -0.2166  0.1101
   96loPI   PO4 1524   8.100  10.139  10.232 -0.0146  0.1966 -0.3269
   96loPI   GL1 1525   8.033  10.269   9.877  0.2042  0.3598 -0.0849
   96loPI   GL2 1526   7.726  10.168   9.814  0.2729 -0.1984 -0.3393
   96loPI   C1A 1527   8.154  10.550   9.523 -0.0158  0.0345  0.1543
   96loPI   C2A 1528   8.163  10.411   9.074  0.2260 -0.2914  0.0243
   96loPI   C3A 1529   8.141  10.593   8.689 -0.1325 -0.0846  0.2672
   96loPI   C4A 1530   8.155  10.733   8.353  0.1171  0.1807 -0.0077
   96loPI   C5A 1531   8.199  10.680   8.007  0.0125  0.1161  0.0689
   96loPI   C6A 1532   8.455  10.546   7.704 -0.0751 -0.0725  0.0828
   96loPI   C1B 1533   7.810  10.108   9.429  0.2009  0.2779  0.1103
   96loPI   C2B 1534   7.749  10.079   9.084 -0.0858  0.3928  0.1524
   96loPI   C3B 1535   7.830  10.104   8.619 -0.1415 -0.0666  0.1588
   96loPI   C4B 1536   7.916  10.306   8.252 -0.2876  0.3044  0.0737
   97loPI    C1 1537   5.751   7.159  10.202  0.1774  0.0071  0.1233
   97loPI    C2 1538   5.492   6.890  10.348  0.0776 -0.0455 -0.1451
   97loPI    C3 1539   5.868   6.901  10.484 -0.1173  0.1719  0.4035
   97loPI   PO4 1540   5.640   7.435  10.282 -0.2275  0.1769 -0.0698
   97loPI   GL1 1541   5.400   7.743  10.106  0.1491 -0.1812  0.0532
   97loPI   GL2 1542   5.258   8.079  10.014  0.2534  0.3396  0.1637
   97loPI   C1A 1543   5.444   7.661   9.713  0.1064 -0.3632  0.1070
   97loPI   C2A 1544   5.518   7.653   9.270  0.0033  0.1370  0.1446
   97loPI   C3A 1545   5.397   7.621   8.845 -0.1233  0.0196 -0.0223
   97loPI   C4A 1546   5.562   7.363   8.693 -0.0512  0.1990  0.0736
   97loPI   C5A 1547   5.435   7.046   8.400 -0.3465 -0.0664  0.0403
   97loPI   C6A 1548   5.714   6.689   8.349 -0.0364 -0.0547  0.0604
   97loPI   C1B 1549   5.157   8.031   9.587 -0.0796 -0.0269  0.0576
   97loPI   C2B 1550   5.049   8.180   9.189 -0.2305 -0.2543 -0.2419
   97loPI   C3B 1551   5.239   8.149   8.794 -0.0166  0.3373  0.1615
   97loPI   C4B 1552   5.184   8.391   8.448 -0.0503 -0.0418 -0.0445
   98loPI    C1 1553   1.136   9.412  10.659  0.1931 -0.0919 -0.0643
   98loPI    C2 1554   0.945   9.071  10.743 -0.0156 -0.0097 -0.1970
   98loPI    C3 1555   1.189   9.236  11.014 -0.1842 -0.0817  0.0004
   98loPI   PO4 1556   1.054   9.495  10.412 -0.1502 -0.1482  0.0793
   98loPI   GL1 1557   0.815   9.636  10.132 -0.1849 -0.0963  0.0338
   98loPI   GL2 1558   0.917   9.298   9.899  0.0558  0.5449  0.0355
   98loPI   C1A 1559   0.889   9.800   9.715 -0.1198 -0.1957 -0.1959
   98loPI   C2A 1560   0.999   9.839   9.309  0.2448 -0.0475  0.2472
   98loPI   C3A 1561   1.219   9.917   8.911  0.0797  0.1145 -0.1648
   98loPI   C4A 1562   1.177   9.745   8.520 -0.0110 -0.0468  0.2322
   98loPI   C5A 1563   1.262   9.403   8.247 -0.2647 -0.4208  0.0805
   98loPI   C6A 1564   1.311   9.398   7.837 -0.2211  0.0639  0.2650
   98loPI   C1B 1565   0.973   9.340   9.484  0.0841 -0.0837  0.2901
   98loPI   C2B 1566   1.023   9.438   8.983 -0.1780 -0.0176  0.0179
   98loPI   C3B 1567   0.852   9.202   8.717 -0.0885 -0.0933 -0.1765
   98loPI   C4B 1568   0.820   9.168   8.272 -0.1127 -0.1282  0.2922
   99loPI    C1 1569   7.017  15.693  10.266  0.1897 -0.3324 -0.0742
   99loPI    C2 1570   7.164  15.809  10.620 -0.2288  0.2462 -0.0767
   99loPI    C3 1571   7.025  15.437  10.573  0.0829  0.0784  0.2815
   99loPI   PO4 1572   7.202  15.765  10.073 -0.2079 -0.0240 -0.2017
   99loPI   GL1 1573   7.231  15.808   9.561 -0.2262  0.0422  0.0837
   99loPI   GL2 1574   6.919  15.749   9.566 -0.0915  0.3063  0.4728
   99loPI   C1A 1575   7.143  15.873   9.130 -0.0678  0.0095  0.1260
   99loPI   C2A 1576   7.116  15.843   8.563 -0.2211 -0.0568 -0.0267
   99loPI   C3A 1577   7.323  15.818   8.139 -0.0883  0.0721  0.0278
   99loPI   C4A 1578   7.715  15.980   8.004  0.1107 -0.0375  0.0743
   99loPI   C5A 1579   7.838  16.302   7.631 -0.0729  0.0027  0.0489
   99loPI   C6A 1580   8.068  16.377   7.337  0.1324 -0.2419  0.0861
   99loPI   C1B 1581   6.790  15.565   9.280  0.0058  0.3085  0.1284
   99loPI   C2B 1582   6.807  15.540   8.866 -0.3604 -0.1019 -0.2652
   99loPI   C3B 1583   6.792  15.436   8.398  0.0998  0.1038 -0.0147
   99loPI   C4B 1584   6.998  15.402   7.962 -0.1877 -0.0079  0.3958
  100loPI    C1 1585   0.397  13.367  10.361  0.0123 -0.0727  0.0044
  100loPI    C2 1586   0.042  13.200  10.284  0.0883 -0.1698 -0.1388
  100loPI    C3 1587   0.128  13.323  10.654 -0.1442 -0.0261 -0.1303
  100loPI   PO4 1588   0.501  13.476  10.224 -0.4335 -0.1168 -0.0035
  100loPI   GL1 1589   0.515  13.599   9.823 -0.3542  0.0513 -0.0184
  100loPI   GL2 1590   0.331  13.328   9.796 -0.0012  0.0012 -0.1216
  100loPI   C1A 1591   0.458  13.969   9.594  0.0912  0.1612  0.2108
  100loPI   C2A 1592   0.334  14.101   9.230  0.0628  0.0777  0.1276
  100loPI   C3A 1593   0.167  14.214   8.939 -0.2194  0.1293 -0.1147
  100loPI   C4A 1594   0.394  14.257   8.524 -0.1576 -0.0890 -0.2247
  100loPI   C5A 1595   0.537  14.547   8.295  0.0374  0.1655  0.1073
  100loPI   C6A 1596   0.655  14.912   7.997  0.0260 -0.1167 -0.2073
  100loPI   C1B 1597   0.256  13.499   9.354  0.2066  0.4045  0.2630
  100loPI   C2B 1598   0.219  13.699   8.941  0.0701  0.1566 -0.0608
  100loPI   C3B 1599   0.128  13.845   8.550 -0.0111  0.1524 -0.1702
  100loPI   C4B 1600   0.062  14.096   8.212  0.3289 -0.1450  0.1311
  101loPI    C1 1601   4.813   4.952  10.541  0.1845 -0.0954 -0.1167
  101loPI    C2 1602   4.968   4.787  10.871 -0.0116 -0.1481 -0.0498
  101loPI    C3 1603   4.809   5.154  10.886  0.1576 -0.0698 -0.1320
  101loPI   PO4 1604   4.670   4.784  10.357 -0.2890  0.1354 -0.0999
  101loPI   GL1 1605   4.579   4.869   9.920 -0.3938  0.0184 -0.1535
  101loPI   GL2 1606   4.518   5.139   9.862 -0.1731  0.1624  0.2020
  101loPI   C1A 1607   4.175   4.826   9.575  0.2719 -0.0448  0.0875
  101loPI   C2A 1608   4.019   4.603   9.304  0.0095 -0.0347 -0.2012
  101loPI   C3A 1609   3.714   4.588   8.909  0.1702 -0.2682 -0.0712
  101loPI   C4A 1610   3.843   4.410   8.517  0.4337  0.0107 -0.0573
  101loPI   C5A 1611   4.209   4.357   8.320  0.1453 -0.4117 -0.0605
  101loPI   C6A 1612   4.566   4.492   8.265 -0.0232 -0.0962 -0.0350
  101loPI   C1B 1613   4.536   5.132   9.351  0.0350 -0.1667  0.0257
  101loPI   C2B 1614   4.537   4.909   9.015 -0.1899  0.1027  0.1836
  101loPI   C3B 1615   4.704   4.597   8.750 -0.0612 -0.0767  0.2231
  101loPI   C4B 1616   4.735   4.155   8.558  0.0532  0.2631  0.1530
  102loPI    C1 1617  15.279   8.878  10.935  0.1719  0.0069  0.0625
  102loPI    C2 1618  15.253   8.549  11.162 -0.0500  0.1461  0.2441
  102loPI    C3 1619  15.517   8.836  11.254 -0.0115  0.1197  0.2164
  102loPI   PO4 1620  15.277   8.822  10.645 -0.1659 -0.0378  0.0662
  102loPI   GL1 1621  15.455   8.780  10.185  0.0579 -0.2396 -0.0119
  102loPI   GL2 1622  15.604   9.074  10.275 -0.0534 -0.1305  0.1808
  102loPI   C1A 1623  15.357   8.861   9.756  0.1677  0.0883  0.5451
  102loPI   C2A 1624  15.439   8.968   9.384  0.2450 -0.1009 -0.2658
  102loPI   C3A 1625  15.694   9.227   9.167 -0.3561  0.1062 -0.2792
  102loPI   C4A 1626  15.645   9.361   8.716 -0.0410 -0.0376 -0.0309
  102loPI   C5A 1627  16.031   9.370   8.483  0.1598 -0.0835 -0.0197
  102loPI   C6A 1628  16.319   9.690   8.314 -0.1854 -0.1443  0.1541
  102loPI   C1B 1629  15.567   9.277   9.779  0.2064 -0.0659 -0.0520
  102loPI   C2B 1630  15.373   9.473   9.485 -0.0318  0.0468  0.1020
  102loPI   C3B 1631  15.210   9.534   9.088 -0.1088  0.0572  0.0417
  102loPI   C4B 1632  15.392   9.763   8.736 -0.1537 -0.1661  0.0732
  103loPI    C1 1633   3.697   9.973  10.379 -0.0104  0.2338  0.2238
  103loPI    C2 1634   3.494   9.690  10.577  0.0137 -0.0505 -0.1469
  103loPI    C3 1635   3.639  10.007  10.773 -0.4894 -0.0131  0.1830
  103loPI   PO4 1636   3.510   9.975  10.153  0.2508 -0.1931  0.1199
  103loPI   GL1 1637   3.333  10.042   9.748 -0.1138 -0.1848 -0.1025
  103loPI   GL2 1638   3.210   9.752   9.690  0.0502  0.2176  0.0027
  103loPI   C1A 1639   3.513  10.098   9.348 -0.2025  0.0056  0.0707
  103loPI   C2A 1640   3.625   9.925   8.869 -0.0098  0.0477 -0.1468
  103loPI   C3A 1641   3.918   9.759   8.589 -0.0535  0.2340 -0.0732
  103loPI   C4A 1642   4.171   9.692   8.319  0.3657  0.0965  0.3798
  103loPI   C5A 1643   3.985   9.814   7.958  0.1835  0.1027 -0.1771
  103loPI   C6A 1644   3.961   9.594   7.562  0.0702  0.2976  0.2792
  103loPI   C1B 1645   3.451   9.574   9.422 -0.0036  0.0729  0.1158
  103loPI   C2B 1646   3.384   9.524   9.024  0.2500  0.0723 -0.2198
  103loPI   C3B 1647   3.579   9.416   8.638  0.2441 -0.0936  0.1244
  103loPI   C4B 1648   3.814   9.374   8.248  0.1369 -0.0288 -0.0257
  104loPI    C1 1649   4.633   7.312  10.612  0.0112 -0.0534  0.0094
  104loPI    C2 1650   4.448   7.209  10.951 -0.0370 -0.0799 -0.0247
  104loPI    C3 1651   4.340   7.542  10.758  0.0762  0.0023  0.0526
  104loPI   PO4 1652   4.686   7.020  10.468  0.0178 -0.2156  0.0438
  104loPI   GL1 1653   4.540   6.870  10.137  0.3295  0.0444 -0.1889
  104loPI   GL2 1654   4.493   6.639   9.970 -0.0409  0.0871 -0.0835
  104loPI   C1A 1655   4.801   7.057   9.780  0.2828 -0.0568  0.0278
  104loPI   C2A 1656   4.902   6.962   9.284  0.0434  0.3359  0.1549
  104loPI   C3A 1657   4.965   7.219   8.920 -0.2065  0.0384 -0.0479
  104loPI   C4A 1658   4.977   7.341   8.526 -0.0800 -0.1756 -0.1278
  104loPI   C5A 1659   5.005   7.140   8.175 -0.4987  0.4887 -0.0256
  104loPI   C6A 1660   4.656   7.043   7.937  0.2132  0.2384  0.0223
  104loPI   C1B 1661   4.702   6.487   9.568  0.0226  0.0409  0.0163
  104loPI   C2B 1662   4.716   6.394   9.090  0.1020 -0.1757  0.1217
  104loPI   C3B 1663   4.743   6.307   8.686 -0.0212  0.0994 -0.0104
  104loPI   C4B 1664   4.836   6.132   8.345 -0.1237  0.0684  0.0221
  105loPI    C1 1665  14.372   0.314  10.662 -0.0877 -0.0111 -0.1735
  105loPI    C2 1666  14.528   0.099  10.363  0.2803  0.1583 -0.1080
  105loPI    C3 1667  14.766   0.252  10.646 -0.0251  0.2956  0.0802
  105loPI   PO4 1668  14.197   0.489  10.569 -0.0927 -0.1812 -0.0037
  105loPI   GL1 1669  14.154   0.453  10.136 -0.0116 -0.0479 -0.1121
  105loPI   GL2 1670  14.180   0.160  10.035  0.0016 -0.1713  0.2863
  105loPI   C1A 1671  14.104   0.548   9.635 -0.0126 -0.1505  0.0952
  105loPI   C2A 1672  14.021   0.702   9.238  0.0644 -0.0202  0.2988
  105loPI   C3A 1673  13.737   0.873   8.949 -0.2223 -0.0629  0.0972
  105loPI   C4A 1674  13.575   0.771   8.526  0.1158  0.0564 -0.1186
  105loPI   C5A 1675  13.675   0.801   8.186 -0.1426  0.1418 -0.1175
  105loPI   C6A 1676  13.917   0.578   7.824 -0.0071 -0.1703  0.4336
  105loPI   C1B 1677  14.121   0.008   9.642  0.4729 -0.3135  0.0916
  105loPI   C2B 1678  14.200   0.214   9.185 -0.1798 -0.1379 -0.2881
  105loPI   C3B 1679  14.246   0.129   8.749  0.3781  0.0514 -0.0348
  105loPI   C4B 1680  13.962  -0.043   8.440 -0.0106  0.1164 -0.1190
  106loPI    C1 1681  10.217  15.923  10.472 -0.0768 -0.1354 -0.1168
  106loPI    C2 1682  10.405  16.047  10.803  0.0906 -0.0674 -0.2364
  106loPI    C3 1683  10.017  16.127  10.752 -0.0210 -0.3699  0.0980
  106loPI   PO4 1684  10.451  15.912  10.278  0.1525 -0.2221 -0.3319
  106loPI   GL1 1685  10.684  15.952   9.882  0.1081 -0.3880  0.1701
  106loPI   GL2 1686  10.962  16.145   9.888  0.0573 -0.1266 -0.3483
  106loPI   C1A 1687  10.413  15.731   9.579  0.1112 -0.0591 -0.2185
  106loPI   C2A 1688  10.437  15.479   9.237 -0.3191  0.0895  0.0891
  106loPI   C3A 1689  10.324  15.515   8.756  0.1923  0.2224 -0.1755
  106loPI   C4A 1690  10.206  15.829   8.538 -0.0376 -0.2248 -0.1653
  106loPI   C5A 1691   9.819  15.933   8.294  0.2083  0.1654 -0.0222
  106loPI   C6A 1692   9.389  15.830   8.114 -0.2886  0.1085 -0.0077
  106loPI   C1B 1693  10.969  16.025   9.415 -0.2538  0.0840 -0.0529
  106loPI   C2B 1694  10.829  15.927   9.012  0.6380  0.4307  0.3403
  106loPI   C3B 1695  10.731  15.704   8.589 -0.1706 -0.2860 -0.0042
  106loPI   C4B 1696  10.644  15.437   8.298  0.3160  0.1235  0.2785
  107loPI    C1 1697   9.694  17.538  10.960 -0.0641 -0.3804  0.0226
  107loPI    C2 1698   9.788  17.314  11.277  0.1762 -0.3724 -0.0409
  107loPI    C3 1699  10.043  17.593  11.147 -0.0554 -0.1641 -0.0545
  107loPI   PO4 1700   9.586  17.364  10.819  0.0411  0.0964  0.1484
  107loPI   GL1 1701   9.435  17.448  10.382  0.1443 -0.0999  0.0166
  107loPI   GL2 1702   9.721  17.638  10.154 -0.3857  0.1446 -0.3406
  107loPI   C1A 1703   9.475  17.194  10.012  0.0902  0.0024 -0.0342
  107loPI   C2A 1704   9.525  17.195   9.566 -0.2463 -0.2522  0.1711
  107loPI   C3A 1705   9.496  17.135   9.090 -0.2144  0.1830 -0.0712
  107loPI   C4A 1706   9.682  17.009   8.742 -0.2701  0.1955 -0.1029
  107loPI   C5A 1707   9.555  16.717   8.398  0.1028 -0.0126  0.0877
  107loPI   C6A 1708   9.217  16.582   8.197 -0.0600  0.1655 -0.2943
  107loPI   C1B 1709   9.892  17.637   9.831 -0.0780  0.2423  0.0522
  107loPI   C2B 1710   9.881  17.585   9.438  0.0722 -0.0249  0.0022
  107loPI   C3B 1711   9.812  17.522   9.052  0.1050 -0.2014 -0.4895
  107loPI   C4B 1712   9.962  17.522   8.611 -0.0153  0.1621 -0.1579
  108loPI    C1 1713  12.830  16.123  10.492  0.0391 -0.0529 -0.0389
  108loPI    C2 1714  13.188  16.291  10.552  0.0502 -0.0295 -0.1665
  108loPI    C3 1715  12.872  16.413  10.764  0.0389  0.2174 -0.3218
  108loPI   PO4 1716  12.810  16.079  10.211 -0.1655 -0.0691 -0.1681
  108loPI   GL1 1717  12.722  15.813   9.894 -0.3617 -0.1719 -0.1702
  108loPI   GL2 1718  12.888  15.505   9.868  0.2169 -0.3105  0.0788
  108loPI   C1A 1719  12.694  15.961   9.567 -0.1199  0.2545 -0.1038
  108loPI   C2A 1720  12.701  15.847   9.140  0.0142 -0.2756  0.2257
  108loPI   C3A 1721  12.493  15.722   8.834  0.0971  0.0742  0.3595
  108loPI   C4A 1722  12.234  15.864   8.424  0.0432 -0.1161  0.2060
  108loPI   C5A 1723  12.022  16.031   8.079 -0.1537 -0.0880 -0.1798
  108loPI   C6A 1724  12.058  16.354   7.869 -0.0510 -0.1207 -0.1665
  108loPI   C1B 1725  13.002  15.511   9.471 -0.1624 -0.1673 -0.0532
  108loPI   C2B 1726  13.001  15.486   9.026 -0.0261 -0.0602 -0.1369
  108loPI   C3B 1727  12.972  15.816   8.727 -0.0365 -0.1479  0.3692
  108loPI   C4B 1728  12.733  15.933   8.358  0.1500  0.0321  0.0104
  109loPI    C1 1729  10.160   8.954  10.754 -0.0784 -0.1755 -0.0556
  109loPI    C2 1730  10.462   8.765  10.936  0.1160  0.0189 -0.1715
  109loPI    C3 1731  10.218   9.002  11.147  0.1762  0.0311 -0.1152
  109loPI   PO4 1732  10.249   8.913  10.519 -0.3651  0.1336 -0.1425
  109loPI   GL1 1733  10.251   8.841  10.080 -0.3939  0.0198  0.1693
  109loPI   GL2 1734  10.153   8.561   9.841  0.1755  0.2290 -0.0820
  109loPI   C1A 1735  10.440   8.939   9.626  0.0381  0.2317  0.0233
  109loPI   C2A 1736  10.438   8.882   9.202 -0.0884  0.1606 -0.1683
  109loPI   C3A 1737  10.604   8.875   8.808  0.4533 -0.1778  0.0414
  109loPI   C4A 1738  10.594   8.919   8.369  0.0908 -0.3680 -0.2561
  109loPI   C5A 1739  10.465   9.356   7.991 -0.0342 -0.1122 -0.4224
  109loPI   C6A 1740  10.444   9.754   8.047  0.0700  0.0629 -0.0477
  109loPI   C1B 1741  10.297   8.468   9.396 -0.0308 -0.1802  0.2346
  109loPI   C2B 1742  10.491   8.442   8.995  0.1037 -0.1588 -0.4478
  109loPI   C3B 1743  10.581   8.465   8.526  0.3050 -0.2787 -0.3451
  109loPI   C4B 1744  10.530   8.447   8.098 -0.1258 -0.1323 -0.0301
  110loPI    C1 1745  16.201   5.054  10.111 -0.1916  0.0294  0.0556
  110loPI    C2 1746  16.170   4.965  10.500 -0.1463 -0.0119  0.0499
  110loPI    C3 1747  16.503   4.870  10.299 -0.0388  0.2969  0.0761
  110loPI   PO4 1748  15.948   4.905   9.930 -0.0132  0.0093  0.1601
  110loPI   GL1 1749  15.564   5.101   9.820 -0.1266  0.0612  0.2384
  110loPI   GL2 1750  15.282   5.000   9.884 -0.0219 -0.0347  0.0039
  110loPI   C1A 1751  15.382   5.380   9.464 -0.0869 -0.0435 -0.0230
  110loPI   C2A 1752  15.483   5.404   9.087 -0.1366  0.0517  0.2200
  110loPI   C3A 1753  15.381   5.543   8.682  0.0182 -0.1811  0.2080
  110loPI   C4A 1754  15.115   5.723   8.452  0.0659  0.1409  0.1849
  110loPI   C5A 1755  14.765   6.069   8.429  0.3100 -0.2458  0.1837
  110loPI   C6A 1756  14.873   6.396   8.726 -0.0384  0.0126 -0.1811
  110loPI   C1B 1757  15.456   4.856   9.397  0.0765  0.0295  0.0848
  110loPI   C2B 1758  15.477   4.834   9.034 -0.0956  0.1515 -0.0057
  110loPI   C3B 1759  15.293   5.041   8.705  0.1067  0.0212  0.1245
  110loPI   C4B 1760  15.277   5.222   8.280  0.1843  0.1485  0.0863
  111loPI    C1 1761  14.657   9.336  10.751 -0.1407  0.0477  0.0596
  111loPI    C2 1762  14.803   8.968  10.807 -0.1756  0.0547  0.2011
  111loPI    C3 1763  14.964   9.278  11.000 -0.0357  0.1400 -0.0475
  111loPI   PO4 1764  14.628   9.284  10.465 -0.1472  0.1835  0.0510
  111loPI   GL1 1765  14.479   9.254  10.127 -0.0105 -0.0365  0.0133
  111loPI   GL2 1766  14.531   9.453  10.006 -0.3946  0.0173  0.2093
  111loPI   C1A 1767  14.591   9.018   9.749  0.0738 -0.2065 -0.3156
  111loPI   C2A 1768  14.360   8.933   9.369  0.1772 -0.1565 -0.2680
  111loPI   C3A 1769  14.167   9.255   9.115  0.0786  0.2143  0.1251
  111loPI   C4A 1770  14.232   9.334   8.652 -0.1892  0.1476  0.1827
  111loPI   C5A 1771  14.600   9.375   8.518  0.1877 -0.2283  0.3153
  111loPI   C6A 1772  15.052   9.346   8.563 -0.3619  0.1219 -0.3394
  111loPI   C1B 1773  14.597   9.768   9.681  0.2114  0.4140  0.0975
  111loPI   C2B 1774  14.300  10.156   9.629 -0.2515 -0.0530  0.0158
  111loPI   C3B 1775  14.377  10.549   9.518 -0.3957  0.1034 -0.0306
  111loPI   C4B 1776  14.455  10.881   9.323 -0.2535 -0.4640  0.1482
  112loPI    C1 1777   4.100  15.653  10.556 -0.1948  0.0039 -0.1580
  112loPI    C2 1778   4.016  15.619  10.945  0.0275 -0.2118 -0.1264
  112loPI    C3 1779   4.207  15.323  10.755  0.1117 -0.0173 -0.3499
  112loPI   PO4 1780   3.840  15.727  10.438 -0.1404 -0.0994 -0.0081
  112loPI   GL1 1781   3.879  15.659   9.990  0.1353 -0.2110 -0.0180
  112loPI   GL2 1782   4.192  15.565   9.920 -0.0535  0.1163  0.0565
  112loPI   C1A 1783   3.603  15.529   9.564 -0.1979  0.2374  0.0244
  112loPI   C2A 1784   3.652  15.387   9.185 -0.0498 -0.2329 -0.1697
  112loPI   C3A 1785   3.737  15.374   8.778  0.0792  0.1332  0.2087
  112loPI   C4A 1786   3.934  15.503   8.396  0.3234  0.0118  0.0235
  112loPI   C5A 1787   3.850  15.523   7.953  0.1956 -0.0075  0.0734
  112loPI   C6A 1788   3.925  15.522   7.594  0.1117  0.1630  0.1900
  112loPI   C1B 1789   4.462  15.538   9.494 -0.1325 -0.3634 -0.3453
  112loPI   C2B 1790   4.567  15.585   9.090  0.1046 -0.0428 -0.1710
  112loPI   C3B 1791   4.853  15.333   8.698 -0.3704 -0.2079  0.1662
  112loPI   C4B 1792   4.899  15.319   8.229  0.1780 -0.0231  0.0413
  113loPI    C1 1793   1.983   2.231  10.184  0.2415  0.4303 -0.0247
  113loPI    C2 1794   1.615   2.262  10.031  0.1419 -0.1411  0.0769
  113loPI    C3 1795   1.692   2.406  10.396  0.0696  0.1407 -0.0162
  113loPI   PO4 1796   2.155   2.364   9.953  0.4054 -0.0974  0.1323
  113loPI   GL1 1797   2.329   2.227   9.572  0.3621 -0.3006 -0.2399
  113loPI   GL2 1798   2.324   1.932   9.624  0.0256 -0.3914  0.0740
  113loPI   C1A 1799   2.330   2.197   9.088 -0.0523  0.0629 -0.0244
  113loPI   C2A 1800   2.493   2.219   8.702  0.3320  0.1652 -0.2586
  113loPI   C3A 1801   2.514   1.865   8.419 -0.0132 -0.0332  0.2736
  113loPI   C4A 1802   2.561   1.366   8.358  0.0325  0.2269  0.1544
  113loPI   C5A 1803   2.759   0.887   8.188  0.4110 -0.1692  0.0725
  113loPI   C6A 1804   2.943   0.505   8.341  0.2374 -0.2010 -0.0013
  113loPI   C1B 1805   2.211   1.761   9.297 -0.1963  0.0433 -0.1746
  113loPI   C2B 1806   1.817   1.847   8.971  0.0606  0.4280  0.2685
  113loPI   C3B 1807   1.632   1.775   8.607 -0.0851  0.0140  0.0902
  113loPI   C4B 1808   1.724   1.675   8.165  0.0749  0.0124 -0.2244
  114loPI    C1 1809  11.067   7.965  10.459 -0.0319  0.0128 -0.0859
  114loPI    C2 1810  10.952   7.955  10.842 -0.1149 -0.1683 -0.1144
  114loPI    C3 1811  11.333   7.879  10.745  0.0474  0.4631 -0.0169
  114loPI   PO4 1812  10.890   8.221  10.323 -0.3824 -0.2841  0.2868
  114loPI   GL1 1813  10.906   8.256   9.945  0.2197 -0.1970  0.2101
  114loPI   GL2 1814  10.648   8.525   9.826 -0.1141 -0.2228  0.1015
  114loPI   C1A 1815  11.220   8.212   9.616  0.4160 -0.1345 -0.1100
  114loPI   C2A 1816  11.404   8.195   9.209 -0.1690  0.0767 -0.0870
  114loPI   C3A 1817  11.567   8.457   8.924 -0.3135  0.0567 -0.1033
  114loPI   C4A 1818  11.535   8.542   8.431 -0.1866  0.3392 -0.1411
  114loPI   C5A 1819  11.449   8.304   8.030  0.1225 -0.2450 -0.0728
  114loPI   C6A 1820  11.071   8.482   7.760 -0.0716  0.1842  0.0747
  114loPI   C1B 1821  10.831   8.545   9.427  0.1111 -0.0812 -0.0725
  114loPI   C2B 1822  11.036   8.461   8.996  0.2278 -0.0772  0.5784
  114loPI   C3B 1823  11.138   8.277   8.580  0.1866 -0.1222 -0.1420
  114loPI   C4B 1824  11.017   8.123   8.251  0.4049 -0.1533 -0.5661
  115loPI    C1 1825  13.469  15.136  10.566 -0.3123 -0.0768 -0.1919
  115loPI    C2 1826  13.663  15.136  10.217 -0.0209 -0.2979 -0.0343
  115loPI    C3 1827  13.682  15.456  10.456 -0.0406 -0.2304 -0.1226
  115loPI   PO4 1828  13.194  15.044  10.498 -0.0329  0.3049 -0.1727
  115loPI   GL1 1829  12.841  14.819  10.211  0.2530  0.2981 -0.0903
  115loPI   GL2 1830  12.716  15.010   9.879  0.0413 -0.0111 -0.1376
  115loPI   C1A 1831  13.127  14.579   9.820 -0.1733 -0.1357 -0.1434
  115loPI   C2A 1832  13.320  14.324   9.542  0.1070 -0.0694 -0.2191
  115loPI   C3A 1833  13.418  14.217   9.073  0.0341 -0.0762 -0.2071
  115loPI   C4A 1834  13.498  14.184   8.699  0.0790 -0.1118  0.2226
  115loPI   C5A 1835  13.843  14.239   8.322  0.1537  0.0932 -0.1204
  115loPI   C6A 1836  14.264  14.352   8.195  0.0247  0.1638  0.0728
  115loPI   C1B 1837  12.940  14.987   9.583 -0.0922  0.0626 -0.0343
  115loPI   C2B 1838  12.956  14.980   9.189 -0.1003 -0.2342 -0.1285
  115loPI   C3B 1839  13.013  15.039   8.766 -0.2026 -0.1703  0.0376
  115loPI   C4B 1840  13.057  14.869   8.288 -0.1441 -0.0216 -0.1093
  116loPI    C1 1841  10.617   4.643  11.006 -0.2428 -0.1679  0.1508
  116loPI    C2 1842  10.763   4.356  11.243 -0.0169 -0.0928  0.1053
  116loPI    C3 1843  10.881   4.734  11.293 -0.0443 -0.0614 -0.0624
  116loPI   PO4 1844  10.628   4.510  10.699  0.1094 -0.1758  0.0954
  116loPI   GL1 1845  10.905   4.541  10.375  0.1503  0.3470 -0.1297
  116loPI   GL2 1846  10.841   4.209  10.242 -0.0279 -0.3019 -0.1870
  116loPI   C1A 1847  11.013   4.632   9.951  0.0427  0.2824  0.1001
  116loPI   C2A 1848  11.063   4.729   9.541  0.0223  0.0540  0.0464
  116loPI   C3A 1849  11.090   4.751   9.140 -0.0510 -0.1336 -0.0947
  116loPI   C4A 1850  11.084   4.578   8.777 -0.1539  0.1932  0.1246
  116loPI   C5A 1851  11.409   4.659   8.478  0.2556  0.1486  0.3691
  116loPI   C6A 1852  11.615   4.944   8.146 -0.3388  0.0872  0.0144
  116loPI   C1B 1853  10.832   4.204   9.796  0.2422  0.1155 -0.0506
  116loPI   C2B 1854  10.875   4.199   9.371 -0.0122  0.1493 -0.0558
  116loPI   C3B 1855  10.917   4.182   9.007  0.2217  0.0320 -0.0138
  116loPI   C4B 1856  10.730   4.021   8.609  0.1081 -0.1407 -0.2250
  117loPI    C1 1857   9.288  14.006  10.806 -0.0716 -0.1859  0.0195
  117loPI    C2 1858   9.617  13.823  10.941  0.0872  0.0286 -0.0711
  117loPI    C3 1859   9.295  13.853  11.175  0.1545 -0.1234  0.0427
  117loPI   PO4 1860   9.343  13.940  10.500 -0.1560  0.3790  0.0345
  117loPI   GL1 1861   9.411  14.051  10.056  0.3810 -0.1412  0.0831
  117loPI   GL2 1862   9.533  14.052   9.730  0.0600  0.0278  0.0986
  117loPI   C1A 1863   9.283  14.428   9.879  0.2483  0.0807  0.0902
  117loPI   C2A 1864   9.400  14.507   9.464 -0.1455  0.1176  0.0594
  117loPI   C3A 1865   9.368  14.716   8.988 -0.0887  0.2604  0.0004
  117loPI   C4A 1866   9.591  14.897   8.721 -0.0785 -0.1437  0.2254
  117loPI   C5A 1867   9.657  15.033   8.253 -0.0032  0.1904 -0.6013
  117loPI   C6A 1868   9.720  15.380   8.072  0.0067 -0.2410  0.2777
  117loPI   C1B 1869   9.652  13.799   9.343  0.2402 -0.1511  0.1478
  117loPI   C2B 1870   9.687  13.808   8.863 -0.0265 -0.3109  0.2988
  117loPI   C3B 1871   9.777  13.666   8.480  0.1859  0.1819  0.0097
  117loPI   C4B 1872   9.888  13.420   8.148  0.2369 -0.0364 -0.0577
  118loPI    C1 1873  16.030  17.708  10.826  0.1545  0.1196 -0.0350
  118loPI    C2 1874  16.341  17.879  11.011  0.0558  0.0333  0.2148
  118loPI    C3 1875  16.171  17.552  11.166 -0.1170  0.0404  0.0433
  118loPI   PO4 1876  16.095  17.774  10.563  0.2725 -0.0779  0.0205
  118loPI   GL1 1877  16.277  17.936  10.086  0.0260 -0.0767  0.0048
  118loPI   GL2 1878  16.422  17.706   9.868 -0.2611 -0.1091 -0.1524
  118loPI   C1A 1879  15.988  18.019   9.682 -0.1705 -0.2212 -0.1050
  118loPI   C2A 1880  15.955  17.902   9.323 -0.0819 -0.0499 -0.0905
  118loPI   C3A 1881  15.947  17.860   8.935 -0.0970  0.0404 -0.2570
  118loPI   C4A 1882  15.812  18.081   8.556  0.2010 -0.0578  0.2513
  118loPI   C5A 1883  15.600  18.048   8.182 -0.0358 -0.2359  0.1195
  118loPI   C6A 1884  15.324  17.997   7.814  0.1835 -0.1760  0.2373
  118loPI   C1B 1885  16.414  17.757   9.468 -0.1463 -0.0021  0.3585
  118loPI   C2B 1886  16.400  17.782   8.974 -0.0003  0.0208 -0.2415
  118loPI   C3B 1887  16.280  17.684   8.587  0.2639 -0.0518 -0.1251
  118loPI   C4B 1888  16.035  17.754   8.167 -0.0966 -0.0844  0.0773
  119loPI    C1 1889   2.931   1.000  10.874  0.3056 -0.1725 -0.1494
  119loPI    C2 1890   3.215   0.936  11.149 -0.0496 -0.1415  0.2350
  119loPI    C3 1891   2.868   1.105  11.255 -0.1115  0.0742 -0.2790
  119loPI   PO4 1892   3.033   1.042  10.676  0.2730 -0.4656 -0.3519
  119loPI   GL1 1893   3.027   0.966  10.253 -0.0788  0.0329  0.1738
  119loPI   GL2 1894   2.800   0.790  10.023 -0.0780  0.0127  0.0557
  119loPI   C1A 1895   3.218   0.977   9.863 -0.1831 -0.2726  0.1972
  119loPI   C2A 1896   3.551   1.083   9.639  0.0850 -0.1796 -0.3706
  119loPI   C3A 1897   3.755   0.977   9.282  0.2487  0.2262 -0.1008
  119loPI   C4A 1898   3.894   1.013   8.866  0.0572 -0.2854  0.0671
  119loPI   C5A 1899   4.115   1.081   8.548 -0.0689 -0.1213 -0.1584
  119loPI   C6A 1900   4.101   1.351   8.244  0.0103 -0.1571 -0.0555
  119loPI   C1B 1901   2.503   0.739   9.624 -0.0605  0.3751 -0.0828
  119loPI   C2B 1902   2.514   0.703   9.171 -0.0640 -0.1312 -0.2506
  119loPI   C3B 1903   2.522   0.483   8.769  0.1997 -0.0268 -0.0956
  119loPI   C4B 1904   2.393   0.651   8.407 -0.1182  0.0815 -0.0325
  120loPI    C1 1905   1.431   3.484  10.502  0.1227  0.0859 -0.2730
  120loPI    C2 1906   1.632   3.794  10.656 -0.2278  0.1737  0.0210
  120loPI    C3 1907   1.464   3.524  10.899 -0.1691 -0.0917 -0.2280
  120loPI   PO4 1908   1.462   3.509  10.195 -0.1365 -0.0309  0.1680
  120loPI   GL1 1909   1.417   3.297   9.817  0.0124  0.1793  0.1117
  120loPI   GL2 1910   1.272   3.047   9.743  0.2030  0.2053  0.0862
  120loPI   C1A 1911   1.635   3.481   9.459 -0.0058 -0.3879 -0.0369
  120loPI   C2A 1912   1.645   3.458   8.958 -0.1638  0.2469 -0.2205
  120loPI   C3A 1913   1.749   3.469   8.552  0.1025  0.0841 -0.1459
  120loPI   C4A 1914   1.427   3.521   8.221 -0.0582  0.2053 -0.0599
  120loPI   C5A 1915   1.487   3.748   7.889  0.0078 -0.0796  0.6022
  120loPI   C6A 1916   1.350   4.228   7.851  0.2318  0.0100  0.0934
  120loPI   C1B 1917   1.292   2.697   9.487 -0.0349 -0.1436  0.1767
  120loPI   C2B 1918   1.336   2.518   9.085 -0.0839 -0.0369 -0.0135
  120loPI   C3B 1919   1.408   2.157   8.784 -0.0465 -0.1533 -0.1019
  120loPI   C4B 1920   1.443   2.166   8.376 -0.0874  0.0264  0.0086
  121loPI    C1 1921   7.693  12.807  10.636 -0.1182 -0.3664  0.0467
  121loPI    C2 1922   7.434  12.891  10.343  0.1190 -0.0922 -0.0897
  121loPI    C3 1923   7.313  12.896  10.725 -0.1174 -0.1448 -0.1622
  121loPI   PO4 1924   7.892  12.685  10.506 -0.1370  0.1260 -0.2877
  121loPI   GL1 1925   7.804  12.637  10.045 -0.2152  0.0870 -0.0775
  121loPI   GL2 1926   8.104  12.432   9.917  0.0429  0.1138 -0.1030
  121loPI   C1A 1927   7.718  12.727   9.549 -0.0298  0.2223 -0.0249
  121loPI   C2A 1928   7.315  12.918   9.366 -0.0791  0.3108  0.0286
  121loPI   C3A 1929   6.968  12.708   9.012  0.3751  0.2155 -0.1944
  121loPI   C4A 1930   7.066  12.588   8.572 -0.0788  0.2926 -0.3117
  121loPI   C5A 1931   6.851  12.537   8.150 -0.3119  0.2191  0.1055
  121loPI   C6A 1932   6.743  12.421   7.717  0.0238  0.0318 -0.1961
  121loPI   C1B 1933   8.127  12.505   9.554 -0.0653 -0.0326  0.0262
  121loPI   C2B 1934   8.045  12.624   9.208 -0.2592 -0.0462 -0.1061
  121loPI   C3B 1935   8.202  12.557   8.796  0.1675  0.2298  0.0693
  121loPI   C4B 1936   8.186  12.677   8.369 -0.2123  0.1302  0.1286
  122loPI    C1 1937   0.683   7.388  10.827 -0.1111 -0.2344  0.0341
  122loPI    C2 1938   0.790   7.467  11.204  0.1975 -0.0260 -0.0934
  122loPI    C3 1939   0.433   7.303  11.128 -0.0229  0.2738  0.2604
  122loPI   PO4 1940   0.922   7.246  10.758 -0.0113  0.0502  0.1178
  122loPI   GL1 1941   0.942   7.205  10.299  0.0408  0.0700  0.1817
  122loPI   GL2 1942   1.229   7.313  10.081 -0.0479 -0.1667 -0.1161
  122loPI   C1A 1943   0.791   7.177   9.896 -0.1337  0.0576 -0.2959
  122loPI   C2A 1944   0.751   7.069   9.477 -0.1377  0.1553  0.2443
  122loPI   C3A 1945   0.769   7.029   8.975  0.0962  0.0803  0.1379
  122loPI   C4A 1946   0.730   7.039   8.567 -0.1685  0.2303  0.3272
  122loPI   C5A 1947   0.783   7.016   8.176  0.0921 -0.0452 -0.1577
  122loPI   C6A 1948   0.611   7.102   7.771 -0.0181 -0.1776  0.0179
  122loPI   C1B 1949   1.204   7.333   9.705 -0.0354 -0.0708  0.0146
  122loPI   C2B 1950   1.218   7.200   9.179 -0.1613  0.0018  0.0362
  122loPI   C3B 1951   1.211   7.341   8.728  0.3114  0.2079  0.2617
  122loPI   C4B 1952   1.318   7.117   8.256  0.0124 -0.0406 -0.2909
  123loPI    C1 1953  11.414   2.847  11.064 -0.3086 -0.2295  0.1449
  123loPI    C2 1954  11.151   3.146  11.102  0.0352  0.0654  0.2649
  123loPI    C3 1955  11.440   3.099  11.374  0.1198 -0.2431  0.1260
  123loPI   PO4 1956  11.540   2.891  10.789  0.0938 -0.0944  0.0929
  123loPI   GL1 1957  11.316   2.695  10.384  0.1300 -0.0646 -0.2142
  123loPI   GL2 1958  11.364   3.048  10.361 -0.0978 -0.2024  0.3089
  123loPI   C1A 1959  11.561   2.554  10.068  0.0551 -0.2912 -0.0940
  123loPI   C2A 1960  11.675   2.394   9.654 -0.0328  0.1393 -0.3163
  123loPI   C3A 1961  11.809   2.404   9.222  0.0809  0.1712 -0.2370
  123loPI   C4A 1962  11.803   2.368   8.766 -0.2651 -0.2957  0.1977
  123loPI   C5A 1963  11.521   2.220   8.467 -0.1052 -0.1704 -0.0783
  123loPI   C6A 1964  11.474   2.206   7.992  0.0168 -0.2618 -0.1053
  123loPI   C1B 1965  11.224   2.932   9.932 -0.1780  0.0842  0.3666
  123loPI   C2B 1966  11.312   2.763   9.521  0.1324 -0.1486  0.0640
  123loPI   C3B 1967  11.217   2.687   9.118 -0.1481 -0.1436  0.1155
  123loPI   C4B 1968  11.240   2.737   8.664 -0.0377  0.0741 -0.1048
  124loPI    C1 1969  10.461  15.029  10.268 -0.0219  0.1614  0.1561
  124loPI    C2 1970  10.479  15.355  10.499 -0.2570  0.2218  0.0916
  124loPI    C3 1971  10.338  15.012  10.648 -0.0294  0.1533  0.1533
  124loPI   PO4 1972  10.778  15.092  10.114 -0.2871 -0.3754  0.0660
  124loPI   GL1 1973  10.836  14.942   9.832 -0.1111 -0.0252  0.1003
  124loPI   GL2 1974  11.123  14.839   9.813 -0.1222 -0.3280 -0.1096
  124loPI   C1A 1975  10.863  14.884   9.340  0.1878 -0.2196  0.1814
  124loPI   C2A 1976  11.038  14.865   8.938 -0.1587  0.1006 -0.4926
  124loPI   C3A 1977  10.881  14.844   8.501 -0.0978  0.0992 -0.2272
  124loPI   C4A 1978  10.867  14.805   8.109 -0.2773 -0.1073  0.2650
  124loPI   C5A 1979  10.627  14.628   7.849  0.0098 -0.0223  0.0009
  124loPI   C6A 1980  10.423  14.223   7.844  0.0073 -0.2487  0.0103
  124loPI   C1B 1981  11.316  14.685   9.422  0.1077  0.0332 -0.1839
  124loPI   C2B 1982  11.488  14.742   8.980  0.0534 -0.2204  0.1713
  124loPI   C3B 1983  11.733  14.711   8.626  0.1135 -0.2923 -0.4858
  124loPI   C4B 1984  11.642  14.672   8.087 -0.0458  0.2004  0.1566
  125loPI    C1 1985  13.192  10.398  10.892 -0.0346 -0.1710  0.1069
  125loPI    C2 1986  12.852  10.428  11.102 -0.1103  0.1432 -0.0540
  125loPI    C3 1987  12.940  10.088  10.910 -0.1947 -0.0365  0.2198
  125loPI   PO4 1988  13.211  10.520  10.659  0.0006  0.0843  0.3116
  125loPI   GL1 1989  13.424  10.537  10.369  0.3113  0.3288 -0.1473
  125loPI   GL2 1990  13.435  10.824  10.271 -0.2415  0.0477  0.2959
  125loPI   C1A 1991  13.437  10.174  10.120 -0.2831  0.0419  0.0763
  125loPI   C2A 1992  13.698  10.155   9.732 -0.0760  0.2263 -0.0131
  125loPI   C3A 1993  13.722   9.984   9.289 -0.2497 -0.1818  0.2061
  125loPI   C4A 1994  13.842  10.142   8.930  0.0410  0.1681 -0.0257
  125loPI   C5A 1995  13.931  10.543   8.620  0.5521  0.0284 -0.0991
  125loPI   C6A 1996  14.307  10.566   8.292 -0.1214 -0.4820  0.2202
  125loPI   C1B 1997  13.374  10.660   9.885  0.1810 -0.1458  0.0743
  125loPI   C2B 1998  13.217  10.344   9.557 -0.3058  0.3172  0.1690
  125loPI   C3B 1999  13.365  10.396   9.174 -0.0424 -0.1731 -0.1720
  125loPI   C4B 2000  13.418  10.424   8.729  0.0681  0.1693  0.3038
  126loPI    C1 2001   8.960   1.570  10.412 -0.0967 -0.1672  0.0890
  126loPI    C2 2002   9.024   1.516  10.803  0.0132 -0.1734  0.0704
  126loPI    C3 2003   9.319   1.649  10.568 -0.0898 -0.0445  0.0125
  126loPI   PO4 2004   8.725   1.739  10.440  0.0553  0.3898  0.2439
  126loPI   GL1 2005   8.667   1.928  10.094  0.1060 -0.1968 -0.1819
  126loPI   GL2 2006   8.611   1.618   9.967  0.2784  0.0157 -0.1716
  126loPI   C1A 2007   8.811   2.164   9.680 -0.1299 -0.1850 -0.3523
  126loPI   C2A 2008   8.915   2.249   9.316 -0.2011  0.3166 -0.0771
  126loPI   C3A 2009   9.073   2.086   8.898  0.1295  0.0193  0.1091
  126loPI   C4A 2010   9.189   2.049   8.494 -0.1236  0.4057 -0.1856
  126loPI   C5A 2011   9.517   2.307   8.350  0.1274  0.0160 -0.0073
  126loPI   C6A 2012   9.574   2.590   8.053 -0.1481  0.2803 -0.2070
  126loPI   C1B 2013   8.753   1.654   9.542  0.0284  0.2422  0.0464
  126loPI   C2B 2014   8.764   1.662   9.092 -0.2103  0.2416 -0.0104
  126loPI   C3B 2015   8.920   1.496   8.759  0.3130 -0.1171 -0.1182
  126loPI   C4B 2016   9.282   1.557   8.637 -0.1874  0.1730  0.0565
  127loPI    C1 2017   2.040   9.300  10.602  0.0272  0.0993 -0.0095
  127loPI    C2 2018   2.248   9.604  10.757  0.0457  0.0475  0.0682
  127loPI    C3 2019   2.065   9.344  10.999  0.0931 -0.0468  0.0032
  127loPI   PO4 2020   2.001   9.495  10.318  0.1278  0.2324  0.0403
  127loPI   GL1 2021   2.154   9.535   9.853 -0.2477  0.1291  0.2028
  127loPI   GL2 2022   1.889   9.357   9.830 -0.2413  0.1237 -0.1902
  127loPI   C1A 2023   2.354   9.358   9.546 -0.0586 -0.0900 -0.0215
  127loPI   C2A 2024   2.425   9.355   9.137  0.0781  0.1981 -0.1588
  127loPI   C3A 2025   2.478   9.294   8.675  0.1278 -0.0470 -0.1515
  127loPI   C4A 2026   2.513   9.394   8.282  0.1465  0.3546  0.2295
  127loPI   C5A 2027   2.818   9.502   7.952  0.1766  0.4364 -0.0839
  127loPI   C6A 2028   3.060   9.855   7.982 -0.0605 -0.1601 -0.2389
  127loPI   C1B 2029   1.928   9.118   9.408 -0.0150  0.1905 -0.1314
  127loPI   C2B 2030   1.999   9.138   8.935 -0.2106 -0.0471 -0.0400
  127loPI   C3B 2031   1.942   9.245   8.497 -0.1826  0.1706  0.2783
  127loPI   C4B 2032   1.822   9.013   8.073 -0.2017 -0.1232 -0.2556
  128loPI    C1 2033   5.314  14.720   9.781 -0.0165 -0.0615 -0.1068
  128loPI    C2 2034   5.176  14.543  10.113  0.1211  0.0343  0.0028
  128loPI    C3 2035   4.920  14.679   9.837  0.0071 -0.0745  0.0543
  128loPI   PO4 2036   5.489  14.432   9.600 -0.1478  0.1972 -0.0980
  128loPI   GL1 2037   5.544  14.080   9.533  0.1851 -0.0102  0.3789
  128loPI   GL2 2038   5.767  13.876   9.524  0.0814  0.1133  0.2208
  128loPI   C1A 2039   5.350  13.891   9.256 -0.1938  0.0710 -0.4392
  128loPI   C2A 2040   5.363  13.810   8.824 -0.3183 -0.2704  0.0507
  128loPI   C3A 2041   5.431  13.979   8.342  0.0565 -0.1640 -0.0742
  128loPI   C4A 2042   5.347  14.142   7.994  0.1466 -0.1685 -0.2045
  128loPI   C5A 2043   5.316  14.485   7.818  0.3915 -0.1877  0.2418
  128loPI   C6A 2044   5.402  14.919   7.527 -0.0939 -0.3695 -0.0501
  128loPI   C1B 2045   5.767  14.058   9.070 -0.1437 -0.0465 -0.0307
  128loPI   C2B 2046   5.843  14.056   8.685  0.2126  0.0403 -0.0842
  128loPI   C3B 2047   5.912  14.122   8.202  0.3304 -0.2849  0.1917
  128loPI   C4B 2048   5.807  14.195   7.818 -0.2046  0.1096  0.1557
  129loPI    C1 2049   3.610  16.888  10.660  0.2240  0.1498  0.2226
  129loPI    C2 2050   3.227  16.969  10.743  0.1353  0.0104 -0.0388
  129loPI    C3 2051   3.484  16.892  11.040 -0.0379  0.1054  0.1384
  129loPI   PO4 2052   3.567  16.679  10.408 -0.2084 -0.3083 -0.0146
  129loPI   GL1 2053   3.550  16.652  10.030 -0.2131 -0.0353  0.2512
  129loPI   GL2 2054   3.757  16.795   9.968 -0.1750 -0.0381 -0.0640
  129loPI   C1A 2055   3.405  16.553   9.621 -0.2242 -0.1211 -0.1047
  129loPI   C2A 2056   3.474  16.656   9.193  0.0456  0.2446  0.1092
  129loPI   C3A 2057   3.421  16.735   8.806 -0.1289  0.0350  0.0252
  129loPI   C4A 2058   3.221  16.789   8.363  0.0678 -0.1410  0.2788
  129loPI   C5A 2059   2.952  16.960   8.097  0.2167 -0.0395  0.0459
  129loPI   C6A 2060   2.565  17.129   7.967  0.0745  0.0042 -0.1211
  129loPI   C1B 2061   3.897  16.835   9.578  0.1685  0.1862  0.2042
  129loPI   C2B 2062   3.952  16.881   9.162  0.2432  0.1046  0.1260
  129loPI   C3B 2063   3.905  16.795   8.734 -0.0425  0.2127 -0.0158
  129loPI   C4B 2064   3.721  16.840   8.331 -0.2994 -0.1568 -0.0128
  130loPI    C1 2065   3.394   9.143  10.483 -0.1969 -0.1282 -0.1549
  130loPI    C2 2066   3.629   8.911  10.709 -0.1111 -0.0698 -0.1835
  130loPI    C3 2067   3.460   9.237  10.866  0.0355  0.0303 -0.2319
  130loPI   PO4 2068   3.599   9.005  10.211  0.1203 -0.2559 -0.2917
  130loPI   GL1 2069   3.763   8.883   9.800  0.1326 -0.1260 -0.1008
  130loPI   GL2 2070   4.003   8.674   9.701  0.0543 -0.1176 -0.0601
  130loPI   C1A 2071   3.644   8.670   9.407  0.1856 -0.1552 -0.2788
  130loPI   C2A 2072   3.653   8.508   8.958 -0.1349  0.1071 -0.0855
  130loPI   C3A 2073   3.784   8.428   8.470  0.0673 -0.0137 -0.1215
  130loPI   C4A 2074   3.854   8.325   8.035 -0.1617 -0.3352 -0.1856
  130loPI   C5A 2075   3.821   8.055   7.693 -0.2724 -0.0844 -0.0950
  130loPI   C6A 2076   3.484   7.903   7.501 -0.0884  0.1357  0.1049
  130loPI   C1B 2077   4.114   8.559   9.222 -0.0617  0.2499  0.2430
  130loPI   C2B 2078   4.101   8.316   8.897 -0.1666 -0.2141  0.3117
  130loPI   C3B 2079   4.156   8.107   8.458 -0.1461  0.2522 -0.0449
  130loPI   C4B 2080   4.238   7.925   8.040 -0.0960  0.1236 -0.1306
  131loPI    C1 2081  15.357   4.535  10.672  0.3712  0.0085 -0.0450
  131loPI    C2 2082  15.267   4.163  10.788 -0.0312  0.0893 -0.0846
  131loPI    C3 2083  15.240   4.466  11.048 -0.1775  0.1584 -0.1787
  131loPI   PO4 2084  15.397   4.402  10.336  0.0908 -0.3315 -0.2699
  131loPI   GL1 2085  15.167   4.322  10.061 -0.2767 -0.0281  0.0774
  131loPI   GL2 2086  14.985   4.587   9.844 -0.0592 -0.1833 -0.2407
  131loPI   C1A 2087  15.435   4.408   9.702  0.1481 -0.0627  0.0945
  131loPI   C2A 2088  15.453   4.327   9.287 -0.2479  0.1132 -0.1632
  131loPI   C3A 2089  15.536   4.325   8.893  0.0625 -0.1140  0.0283
  131loPI   C4A 2090  15.696   4.138   8.547  0.0578  0.0847 -0.1817
  131loPI   C5A 2091  16.112   3.937   8.399 -0.2267  0.1327  0.0290
  131loPI   C6A 2092  16.426   3.575   8.294 -0.1654 -0.3761  0.1850
  131loPI   C1B 2093  14.941   4.682   9.414 -0.1260  0.0486 -0.0759
  131loPI   C2B 2094  15.030   4.626   8.945 -0.2673  0.2035  0.0834
  131loPI   C3B 2095  14.787   4.516   8.569  0.1800  0.1758 -0.0855
  131loPI   C4B 2096  14.569   4.486   8.092  0.0495  0.0819 -0.2392
  132loPI    C1 2097   6.374   2.693  10.900  0.0314  0.0078  0.2325
  132loPI    C2 2098   6.408   2.386  11.154 -0.0210  0.0665  0.3109
  132loPI    C3 2099   6.564   2.742  11.248  0.2683 -0.0030  0.1062
  132loPI   PO4 2100   6.399   2.582  10.662 -0.1864 -0.2562 -0.0111
  132loPI   GL1 2101   6.151   2.553  10.305 -0.1935 -0.0140  0.0836
  132loPI   GL2 2102   6.444   2.757  10.200  0.0732  0.2754  0.4445
  132loPI   C1A 2103   5.960   2.822   9.933 -0.0846 -0.1552 -0.3421
  132loPI   C2A 2104   5.985   2.910   9.567 -0.1403  0.2679  0.2649
  132loPI   C3A 2105   5.898   2.978   9.222 -0.1034 -0.3599  0.1694
  132loPI   C4A 2106   5.850   3.111   8.720  0.1793  0.1905  0.2049
  132loPI   C5A 2107   5.740   3.078   8.393 -0.1220 -0.2171  0.2589
  132loPI   C6A 2108   5.612   3.083   7.971  0.0139  0.2745 -0.0835
  132loPI   C1B 2109   6.423   2.789   9.717  0.2413  0.4402 -0.1017
  132loPI   C2B 2110   6.425   2.863   9.297 -0.0907  0.0656  0.2353
  132loPI   C3B 2111   6.296   2.913   8.837  0.1097 -0.2519 -0.1152
  132loPI   C4B 2112   6.300   2.845   8.453 -0.0306 -0.0455 -0.0480
  133loPI    C1 2113  12.198   3.466  11.038 -0.2121 -0.2106  0.0244
  133loPI    C2 2114  12.112   3.497  11.427 -0.1416 -0.0674  0.0290
  133loPI    C3 2115  12.315   3.180  11.292  0.1133  0.0367  0.1598
  133loPI   PO4 2116  12.010   3.549  10.862 -0.2517 -0.3709 -0.2848
  133loPI   GL1 2117  11.922   3.504  10.417 -0.1281 -0.0287 -0.0078
  133loPI   GL2 2118  11.838   3.213  10.558  0.0636 -0.2056 -0.2406
  133loPI   C1A 2119  11.958   3.520  10.002 -0.1213 -0.3857  0.5001
  133loPI   C2A 2120  11.903   3.388   9.648  0.2273 -0.1723  0.0979
  133loPI   C3A 2121  11.802   3.354   9.134  0.2089  0.1378  0.1825
  133loPI   C4A 2122  11.403   3.286   9.020  0.1266  0.2920  0.0776
  133loPI   C5A 2123  11.425   3.237   8.617 -0.0768  0.0940  0.1554
  133loPI   C6A 2124  11.606   3.306   8.232  0.3277 -0.2594  0.1636
  133loPI   C1B 2125  11.813   3.025  10.130 -0.1046 -0.0611  0.3109
  133loPI   C2B 2126  11.716   2.905   9.727 -0.0644 -0.0860  0.2269
  133loPI   C3B 2127  11.718   2.897   9.225  0.0796  0.2802 -0.1034
  133loPI   C4B 2128  11.754   2.840   8.835  0.2403  0.2895 -0.0607
  134loPI    C1 2129  17.058   0.881  10.481  0.0698 -0.0714 -0.0136
  134loPI    C2 2130  17.192   0.866  10.858  0.0129  0.0911  0.0139
  134loPI    C3 2131  16.895   1.116  10.760 -0.3063 -0.2980 -0.0365
  134loPI   PO4 2132  17.260   0.947  10.372  0.0886 -0.2182  0.1923
  134loPI   GL1 2133  17.371   0.899   9.948  0.1446  0.1299 -0.2175
  134loPI   GL2 2134  17.048   0.838   9.939  0.0895 -0.0933 -0.0901
  134loPI   C1A 2135  17.312   1.030   9.508 -0.0061  0.0140  0.0005
  134loPI   C2A 2136  17.403   1.023   9.076 -0.2032 -0.2776 -0.1775
  134loPI   C3A 2137  17.466   1.034   8.676 -0.0510  0.0502 -0.1013
  134loPI   C4A 2138  17.399   1.172   8.333 -0.1257  0.0342 -0.0369
  134loPI   C5A 2139  17.517   1.030   7.967 -0.1844 -0.1516  0.0993
  134loPI   C6A 2140  17.579   0.704   7.688  0.0982  0.0622  0.1205
  134loPI   C1B 2141  16.832   0.970   9.594 -0.0290 -0.1123  0.0799
  134loPI   C2B 2142  16.908   1.057   9.150 -0.2749 -0.1429  0.1358
  134loPI   C3B 2143  16.981   1.078   8.743 -0.2873 -0.0992  0.0188
  134loPI   C4B 2144  16.997   0.857   8.387  0.1020  0.4009 -0.1456
  135loPI    C1 2145  12.397   2.379  10.976 -0.2024 -0.0644  0.0547
  135loPI    C2 2146  12.433   2.732  11.162 -0.1711 -0.0911  0.0996
  135loPI    C3 2147  12.760   2.525  11.062 -0.1813  0.0167 -0.1655
  135loPI   PO4 2148  12.244   2.435  10.814  0.1155  0.1220  0.0382
  135loPI   GL1 2149  12.282   2.154  10.445 -0.3331  0.0303 -0.0412
  135loPI   GL2 2150  12.288   2.454  10.323  0.0775  0.1775 -0.0879
  135loPI   C1A 2151  12.329   1.851  10.003 -0.0376 -0.2437  0.0779
  135loPI   C2A 2152  12.338   1.988   9.613 -0.0362  0.1850 -0.2096
  135loPI   C3A 2153  12.202   2.120   9.145  0.0142  0.0299  0.0081
  135loPI   C4A 2154  12.191   2.040   8.727 -0.3418 -0.5703  0.2182
  135loPI   C5A 2155  12.279   1.812   8.365  0.2180 -0.4232  0.1296
  135loPI   C6A 2156  12.093   1.641   7.953  0.1285 -0.0285 -0.0091
  135loPI   C1B 2157  12.025   2.554   9.950  0.0882 -0.2494 -0.0112
  135loPI   C2B 2158  12.126   2.704   9.468  0.0949 -0.1809 -0.1100
  135loPI   C3B 2159  12.180   2.723   9.083  0.1424  0.0583  0.2020
  135loPI   C4B 2160  12.261   2.599   8.703  0.1123  0.0574 -0.3858
  136loPI    C1 2161   5.786  15.846  10.473  0.1287 -0.0893  0.0154
  136loPI    C2 2162   5.400  15.801  10.376  0.1169  0.0501 -0.0034
  136loPI    C3 2163   5.501  15.941  10.737  0.1452  0.1794 -0.0609
  136loPI   PO4 2164   5.869  16.045  10.217 -0.3408  0.1955  0.0058
  136loPI   GL1 2165   6.015  15.967   9.789 -0.3734 -0.1663  0.1011
  136loPI   GL2 2166   6.268  15.803   9.762 -0.1292  0.0982 -0.0272
  136loPI   C1A 2167   5.909  15.881   9.345 -0.0851  0.2740 -0.1721
  136loPI   C2A 2168   6.053  15.885   8.968  0.2675 -0.2384  0.0645
  136loPI   C3A 2169   6.031  15.967   8.538 -0.1170 -0.0349  0.2373
  136loPI   C4A 2170   6.270  16.023   8.135 -0.0245  0.1326 -0.2976
  136loPI   C5A 2171   6.112  16.189   7.802 -0.1374 -0.1590  0.2702
  136loPI   C6A 2172   6.011  16.497   7.457 -0.0170 -0.3549  0.1686
  136loPI   C1B 2173   6.414  15.841   9.398  0.0105 -0.2233  0.2505
  136loPI   C2B 2174   6.541  15.963   8.938  0.0879  0.1127 -0.0335
  136loPI   C3B 2175   6.614  15.986   8.526 -0.4821 -0.0367  0.0276
  136loPI   C4B 2176   6.803  15.973   8.210 -0.2872 -0.1265  0.0047
  137loPI    C1 2177  16.315  15.313  10.827 -0.0084  0.0972  0.0374
  137loPI    C2 2178  16.229  15.688  10.936 -0.0428  0.0473  0.1841
  137loPI    C3 2179  16.544  15.501  11.096 -0.0323  0.0098  0.1196
  137loPI   PO4 2180  16.065  15.092  10.702  0.0625  0.0163  0.1568
  137loPI   GL1 2181  15.970  15.035  10.313  0.2174 -0.0305  0.1424
  137loPI   GL2 2182  16.180  14.823  10.219 -0.2018  0.0164 -0.0354
  137loPI   C1A 2183  15.847  14.887   9.898 -0.1259  0.1864 -0.2297
  137loPI   C2A 2184  15.747  15.005   9.512  0.0620 -0.5548 -0.1008
  137loPI   C3A 2185  15.813  14.973   9.213 -0.1234  0.0238 -0.2376
  137loPI   C4A 2186  15.827  14.989   8.834 -0.1082 -0.4344  0.1284
  137loPI   C5A 2187  15.925  15.066   8.421  0.0383 -0.1112  0.1263
  137loPI   C6A 2188  16.208  15.048   8.103 -0.0220  0.3616  0.0016
  137loPI   C1B 2189  16.374  15.082   9.946  0.1432  0.0547  0.2193
  137loPI   C2B 2190  16.285  14.956   9.596 -0.1007  0.1954 -0.0021
  137loPI   C3B 2191  16.310  14.883   9.151 -0.1447  0.0542 -0.1930
  137loPI   C4B 2192  16.345  14.933   8.732 -0.0548 -0.0792  0.2407
  138loPI    C1 2193  14.364  11.952  10.461 -0.1692  0.1135 -0.0253
  138loPI    C2 2194  14.465  12.333  10.532  0.0236  0.0653 -0.0347
  138loPI    C3 2195  14.229  12.137  10.789  0.1325  0.1133  0.1026
  138loPI   PO4 2196  14.609  11.795  10.372  0.0831  0.0937  0.0305
  138loPI   GL1 2197  14.615  11.844   9.895 -0.3867  0.2798  0.2280
  138loPI   GL2 2198  14.786  12.171   9.816 -0.0837  0.4144  0.0041
  138loPI   C1A 2199  14.551  11.910   9.496  0.0330  0.1105  0.0094
  138loPI   C2A 2200  14.489  11.954   9.044 -0.1601  0.0545  0.1780
  138loPI   C3A 2201  14.543  11.979   8.626  0.1461 -0.1824  0.1574
  138loPI   C4A 2202  14.520  11.955   8.164  0.0155  0.0182  0.1592
  138loPI   C5A 2203  14.373  11.939   7.764  0.0192  0.0357 -0.0596
  138loPI   C6A 2204  14.388  11.980   7.313  0.5890  0.1395  0.2050
  138loPI   C1B 2205  14.804  12.298   9.357 -0.2553  0.0326  0.3242
  138loPI   C2B 2206  14.760  12.377   8.956  0.2347 -0.0690  0.1594
  138loPI   C3B 2207  14.608  12.450   8.642  0.3594 -0.1153  0.0776
  138loPI   C4B 2208  14.718  12.481   8.179 -0.0385 -0.1314  0.1393
  139loPI    C1 2209  13.773  14.810  10.773  0.0496  0.0636 -0.0353
  139loPI    C2 2210  13.407  14.654  10.809  0.0031  0.1247 -0.2279
  139loPI    C3 2211  13.660  14.644  11.119 -0.0574 -0.1809 -0.1848
  139loPI   PO4 2212  13.898  14.722  10.502 -0.0863 -0.0324 -0.0151
  139loPI   GL1 2213  13.944  14.746  10.090 -0.0243 -0.0024  0.0197
  139loPI   GL2 2214  14.098  14.783   9.832 -0.0952 -0.0724 -0.0459
  139loPI   C1A 2215  13.583  14.892   9.831 -0.0117 -0.2767  0.0211
  139loPI   C2A 2216  13.440  14.789   9.445  0.0694  0.1086 -0.1888
  139loPI   C3A 2217  13.464  14.693   8.958 -0.0315 -0.0509 -0.1361
  139loPI   C4A 2218  13.482  14.735   8.569  0.2568  0.2078 -0.1077
  139loPI   C5A 2219  13.456  14.590   8.235 -0.1041 -0.1110  0.0709
  139loPI   C6A 2220  13.618  14.533   7.806 -0.0100  0.0847 -0.3228
  139loPI   C1B 2221  14.299  14.681   9.545 -0.0243  0.0430 -0.1037
  139loPI   C2B 2222  14.406  14.687   9.150  0.1341 -0.0480 -0.1807
  139loPI   C3B 2223  14.517  14.690   8.740  0.1108 -0.4574 -0.0329
  139loPI   C4B 2224  14.641  14.626   8.326  0.0859 -0.1966 -0.1186
  140loPI    C1 2225   3.842  10.635  10.234 -0.2107  0.0507  0.1679
  140loPI    C2 2226   3.658  10.427  10.521 -0.0702  0.0041  0.2252
  140loPI    C3 2227   3.969  10.661  10.612 -0.0201 -0.0168  0.1102
  140loPI   PO4 2228   3.641  10.768  10.063 -0.5476  0.2251  0.1929
  140loPI   GL1 2229   3.765  10.992   9.693 -0.3120 -0.0580 -0.0826
  140loPI   GL2 2230   4.072  10.688   9.788  0.1712 -0.3016  0.0817
  140loPI   C1A 2231   3.504  10.960   9.299 -0.1534  0.1440  0.3501
  140loPI   C2A 2232   3.426  11.014   8.818  0.1270 -0.3546  0.0096
  140loPI   C3A 2233   3.498  10.723   8.507  0.2640 -0.0933  0.3786
  140loPI   C4A 2234   3.688  10.635   8.230  0.0689  0.0876 -0.1504
  140loPI   C5A 2235   4.063  10.946   7.958  0.2751 -0.1906 -0.0670
  140loPI   C6A 2236   4.536  11.035   7.946 -0.2032 -0.0902  0.2175
  140loPI   C1B 2237   4.147  10.726   9.451  0.0748  0.0624  0.3508
  140loPI   C2B 2238   3.992  11.009   9.153 -0.1095  0.1855  0.1438
  140loPI   C3B 2239   3.884  11.036   8.714 -0.0640 -0.0035 -0.2334
  140loPI   C4B 2240   3.670  11.144   8.318  0.0345  0.1899 -0.0187
  141loPI    C1 2241  15.899   3.665  10.564  0.1019 -0.0897 -0.0879
  141loPI    C2 2242  15.793   3.387  10.832 -0.0591  0.1317  0.0815
  141loPI    C3 2243  15.970   3.725  10.953  0.0062  0.1669 -0.1083
  141loPI   PO4 2244  15.915   3.452  10.356 -0.1814 -0.3006  0.1120
  141loPI   GL1 2245  15.717   3.277  10.056  0.0921 -0.1347  0.0654
  141loPI   GL2 2246  15.405   3.065  10.070  0.3867 -0.0002  0.3258
  141loPI   C1A 2247  15.768   2.950   9.703 -0.0477  0.0459  0.0703
  141loPI   C2A 2248  15.960   2.797   9.467 -0.2624 -0.2926  0.1265
  141loPI   C3A 2249  16.242   2.788   9.162 -0.2270 -0.0650 -0.0845
  141loPI   C4A 2250  16.551   2.825   8.827 -0.1101 -0.0002  0.2896
  141loPI   C5A 2251  16.824   2.843   8.416  0.1992  0.0319 -0.1179
  141loPI   C6A 2252  17.028   2.898   8.042  0.0520  0.1355 -0.1335
  141loPI   C1B 2253  15.280   2.951   9.614  0.0309 -0.0465  0.3037
  141loPI   C2B 2254  15.205   2.941   9.184 -0.3424  0.0615 -0.1363
  141loPI   C3B 2255  15.049   2.798   8.627 -0.0040 -0.3044 -0.1617
  141loPI   C4B 2256  14.917   3.042   8.273  0.1688 -0.1086  0.4197
  142loPI    C1 2257  10.358  16.582  10.519  0.0164  0.0970  0.1816
  142loPI    C2 2258  10.228  16.630  10.894  0.0526  0.1310  0.1899
  142loPI    C3 2259  10.607  16.523  10.826 -0.0423 -0.2091  0.1745
  142loPI   PO4 2260  10.275  16.410  10.368  0.2306  0.4019  0.1501
  142loPI   GL1 2261  10.304  16.306  10.034  0.1777 -0.1906 -0.2235
  142loPI   GL2 2262  10.611  16.494   9.901 -0.0540  0.0493 -0.1190
  142loPI   C1A 2263  10.296  16.233   9.593  0.0971 -0.3634 -0.5873
  142loPI   C2A 2264  10.332  16.016   9.131  0.0888 -0.0986  0.1657
  142loPI   C3A 2265  10.474  16.166   8.723 -0.0425  0.2579 -0.2574
  142loPI   C4A 2266  10.470  16.502   8.371 -0.0782  0.2170 -0.1396
  142loPI   C5A 2267  10.335  16.456   8.016 -0.0595  0.1202  0.1553
  142loPI   C6A 2268  10.069  16.134   7.809 -0.0405  0.3696  0.1802
  142loPI   C1B 2269  10.711  16.458   9.485 -0.0111  0.1905 -0.1778
  142loPI   C2B 2270  10.724  16.423   9.073  0.1209 -0.3100  0.0379
  142loPI   C3B 2271  10.903  16.364   8.639 -0.1279 -0.1578 -0.1411
  142loPI   C4B 2272  11.239  16.521   8.451 -0.0545 -0.0337  0.3464
  143loPI    C1 2273  10.558  12.666  10.693 -0.1701  0.1628 -0.0139
  143loPI    C2 2274  10.454  12.405  10.978 -0.1493  0.1207 -0.0448
  143loPI    C3 2275  10.171  12.604  10.777 -0.1630  0.1767  0.0295
  143loPI   PO4 2276  10.708  12.526  10.531 -0.0733 -0.0066  0.1409
  143loPI   GL1 2277  10.642  12.379  10.081  0.0564 -0.2709 -0.0465
  143loPI   GL2 2278  10.793  12.163  10.230  0.1144 -0.0784 -0.0336
  143loPI   C1A 2279  10.779  12.525   9.618 -0.1742  0.0783 -0.2590
  143loPI   C2A 2280  10.883  12.639   9.247  0.2658  0.0648  0.2830
  143loPI   C3A 2281  11.051  12.823   9.067 -0.2567 -0.1384  0.2261
  143loPI   C4A 2282  10.949  13.052   8.676 -0.0309  0.0064 -0.1880
  143loPI   C5A 2283  11.163  13.181   8.312 -0.0023 -0.0431  0.1547
  143loPI   C6A 2284  11.505  13.251   8.109 -0.0837 -0.0621 -0.1105
  143loPI   C1B 2285  11.049  12.140   9.840  0.1136  0.2098 -0.0454
  143loPI   C2B 2286  11.135  12.223   9.416 -0.2062  0.2759 -0.0831
  143loPI   C3B 2287  11.131  12.307   9.022  0.0612  0.0319  0.0683
  143loPI   C4B 2288  11.081  12.339   8.584  0.0444  0.2404 -0.0695
  144loPI    C1 2289   8.179  11.288  10.415  0.1464 -0.1072 -0.1335
  144loPI    C2 2290   8.281  10.964  10.626  0.1397  0.0212  0.0701
  144loPI    C3 2291   8.396  11.326  10.749 -0.0026  0.1116 -0.0593
  144loPI   PO4 2292   8.166  11.249  10.176 -0.3623 -0.1247 -0.2188
  144loPI   GL1 2293   8.345  11.143   9.833  0.0001 -0.2147  0.3517
  144loPI   GL2 2294   8.467  10.992   9.653  0.1396  0.0380  0.0994
  144loPI   C1A 2295   7.940  11.057   9.567 -0.1323 -0.0432 -0.3130
  144loPI   C2A 2296   7.876  11.086   9.182  0.0875 -0.1631  0.0293
  144loPI   C3A 2297   7.914  11.051   8.777  0.0064  0.0390  0.2791
  144loPI   C4A 2298   7.795  11.215   8.425  0.2301  0.1297 -0.2545
  144loPI   C5A 2299   7.707  11.369   8.056 -0.0295  0.2224  0.0068
  144loPI   C6A 2300   7.410  11.246   7.805 -0.2435 -0.2193 -0.2785
  144loPI   C1B 2301   8.369  10.952   9.145  0.0832 -0.3496  0.2040
  144loPI   C2B 2302   8.417  11.070   8.775  0.0899  0.2373  0.0350
  144loPI   C3B 2303   8.393  11.173   8.400 -0.1553  0.1915 -0.0835
  144loPI   C4B 2304   8.219  11.212   8.082 -0.1637 -0.0457 -0.0880
  145loPI    C1 2305   4.377   0.169  10.172  0.0509  0.0640 -0.0012
  145loPI    C2 2306   4.692   0.197  10.417  0.0071 -0.2742  0.0985
  145loPI    C3 2307   4.667  -0.106  10.156 -0.1070 -0.0999 -0.0959
  145loPI   PO4 2308   4.250   0.473  10.172  0.2717 -0.3594 -0.0067
  145loPI   GL1 2309   3.819   0.597  10.027  0.0124  0.1296 -0.0908
  145loPI   GL2 2310   3.796   0.185   9.898 -0.3706  0.2044 -0.1018
  145loPI   C1A 2311   3.953   0.611   9.572 -0.0836  0.0416  0.0743
  145loPI   C2A 2312   4.100   0.652   9.165 -0.0398  0.1022  0.0272
  145loPI   C3A 2313   4.371   0.746   8.892  0.2053  0.1030 -0.1959
  145loPI   C4A 2314   4.668   0.799   8.647 -0.0583 -0.0167 -0.1134
  145loPI   C5A 2315   4.932   0.808   8.366 -0.1501  0.0395  0.0872
  145loPI   C6A 2316   4.897   0.715   7.934  0.0711 -0.1894 -0.0336
  145loPI   C1B 2317   3.779   0.197   9.326 -0.0389 -0.1297  0.3066
  145loPI   C2B 2318   3.936   0.135   8.899  0.4028  0.0468 -0.1730
  145loPI   C3B 2319   3.831   0.119   8.347  0.3174  0.1372  0.3386
  145loPI   C4B 2320   3.540   0.000   8.095  0.0235 -0.0540  0.2467
  146loPI    C1 2321  15.424   5.494  10.493  0.2291  0.0443  0.1030
  146loPI    C2 2322  15.134   5.663  10.710  0.0867 -0.0359 -0.0230
  146loPI    C3 2323  15.515   5.699  10.824  0.0137 -0.0805  0.2426
  146loPI   PO4 2324  15.291   5.493  10.212  0.0509 -0.1265  0.2551
  146loPI   GL1 2325  14.861   5.541  10.186 -0.0194  0.1617 -0.0614
  146loPI   GL2 2326  14.814   5.236  10.392  0.0561  0.1741  0.4127
  146loPI   C1A 2327  14.925   5.529   9.735 -0.0370  0.0314 -0.0376
  146loPI   C2A 2328  14.947   5.140   9.532 -0.1956  0.0067 -0.2693
  146loPI   C3A 2329  15.075   5.092   9.148 -0.0539  0.0521  0.0430
  146loPI   C4A 2330  14.888   5.311   8.721 -0.1767  0.5264 -0.1066
  146loPI   C5A 2331  14.738   5.435   8.353 -0.2078 -0.1971 -0.2416
  146loPI   C6A 2332  14.370   5.758   8.392 -0.0915 -0.1604 -0.0601
  146loPI   C1B 2333  14.728   5.116   9.965  0.1411 -0.0634  0.1889
  146loPI   C2B 2334  14.549   4.768   9.671  0.2389 -0.2721 -0.1404
  146loPI   C3B 2335  14.498   4.469   9.326 -0.1428 -0.0121  0.2673
  146loPI   C4B 2336  14.525   4.313   8.933  0.1104 -0.2532 -0.0016
  147loPI    C1 2337  11.934  10.011  10.956  0.0941  0.1006 -0.0344
  147loPI    C2 2338  12.297  10.108  11.093  0.1148  0.1147 -0.0985
  147loPI    C3 2339  11.973  10.297  11.232  0.1089 -0.0631  0.1350
  147loPI   PO4 2340  11.973   9.991  10.712  0.1139 -0.1706  0.2381
  147loPI   GL1 2341  12.010   9.877  10.303  0.2262  0.1175  0.3627
  147loPI   GL2 2342  11.957   9.568  10.132  0.1636 -0.4172 -0.0401
  147loPI   C1A 2343  12.302  10.143  10.000  0.0019 -0.0494  0.0872
  147loPI   C2A 2344  12.543  10.127   9.573  0.1210  0.0310 -0.0644
  147loPI   C3A 2345  12.823  10.256   9.327 -0.2016 -0.1222  0.0740
  147loPI   C4A 2346  12.946  10.269   8.871 -0.2541  0.0963  0.0613
  147loPI   C5A 2347  13.001  10.430   8.358 -0.0678  0.0719  0.0563
  147loPI   C6A 2348  13.178  10.588   8.043  0.1335  0.1238  0.5709
  147loPI   C1B 2349  12.056   9.543   9.743  0.0843  0.1079 -0.2262
  147loPI   C2B 2350  12.317   9.476   9.406  0.1678  0.0389  0.0946
  147loPI   C3B 2351  12.330   9.491   8.963  0.2668 -0.1580 -0.1108
  147loPI   C4B 2352  12.399   9.684   8.577  0.0625  0.1330  0.1037
  148loPI    C1 2353   8.735  10.842  10.306  0.0487  0.1065 -0.2807
  148loPI    C2 2354   8.678  11.236  10.270 -0.0066  0.1269  0.0063
  148loPI    C3 2355   8.851  11.088  10.600  0.1896 -0.0732 -0.1831
  148loPI   PO4 2356   8.754  10.740  10.080 -0.2418 -0.1361  0.0287
  148loPI   GL1 2357   8.984  10.801   9.813 -0.1909  0.3336  0.1522
  148loPI   GL2 2358   9.266  10.815   9.924 -0.2065  0.1261 -0.3636
  148loPI   C1A 2359   8.852  10.940   9.377  0.0270  0.0414  0.2913
  148loPI   C2A 2360   9.139  11.205   9.289  0.2106  0.1573 -0.1535
  148loPI   C3A 2361   9.448  11.229   9.048 -0.2734 -0.0435  0.1720
  148loPI   C4A 2362   9.616  10.917   8.831 -0.0380 -0.1908  0.1956
  148loPI   C5A 2363   9.957  10.898   8.540  0.1031 -0.1290  0.0634
  148loPI   C6A 2364  10.179  11.139   8.275 -0.0670 -0.2117 -0.1149
  148loPI   C1B 2365   9.301  10.651   9.383  0.3440  0.1631 -0.0676
  148loPI   C2B 2366   9.170  10.798   9.037 -0.1007  0.2197 -0.1301
  148loPI   C3B 2367   8.964  11.058   8.799  0.0373  0.1712  0.1132
  148loPI   C4B 2368   9.035  11.422   8.737 -0.2304 -0.1167  0.2756
  149loPI    C1 2369   5.100   6.098  10.802  0.3173 -0.0918  0.2325
  149loPI    C2 2370   4.719   6.170  10.901  0.2571  0.0230 -0.0708
  149loPI    C3 2371   4.977   6.041  11.178  0.0353  0.0914  0.1715
  149loPI   PO4 2372   5.188   6.156  10.575  0.2431 -0.0295 -0.0257
  149loPI   GL1 2373   5.248   6.471  10.281  0.0912  0.1057 -0.3460
  149loPI   GL2 2374   5.043   6.634  10.154 -0.1002  0.2873  0.0660
  149loPI   C1A 2375   5.440   6.310   9.993 -0.0895  0.0198 -0.1200
  149loPI   C2A 2376   5.554   6.255   9.730  0.1206  0.0118  0.2596
  149loPI   C3A 2377   5.504   6.143   9.349 -0.0668 -0.2792  0.1042
  149loPI   C4A 2378   5.509   5.985   9.045 -0.3445 -0.1924  0.0099
  149loPI   C5A 2379   5.569   5.760   8.687 -0.1685 -0.0603 -0.1625
  149loPI   C6A 2380   5.662   5.940   8.274 -0.1523  0.0205  0.1737
  149loPI   C1B 2381   5.155   6.652   9.730 -0.1304 -0.0624 -0.1557
  149loPI   C2B 2382   5.203   6.571   9.319 -0.0044  0.1265  0.1949
  149loPI   C3B 2383   5.180   6.427   8.872 -0.1187 -0.0527  0.0649
  149loPI   C4B 2384   5.411   6.273   8.570  0.1721  0.0210 -0.0628
  150loPI    C1 2385  12.515  14.808  10.743  0.1749 -0.3152 -0.1064
  150loPI    C2 2386  12.883  14.656  10.780  0.2475 -0.0695  0.2406
  150loPI    C3 2387  12.826  15.051  10.810  0.0082 -0.0599 -0.2393
  150loPI   PO4 2388  12.346  14.738  10.476 -0.3344  0.1695  0.1082
  150loPI   GL1 2389  12.360  14.946  10.210  0.0155  0.0406  0.2098
  150loPI   GL2 2390  12.076  15.088  10.198  0.3730 -0.1258 -0.3465
  150loPI   C1A 2391  12.262  14.853   9.795  0.2744  0.2343  0.0218
  150loPI   C2A 2392  12.445  14.876   9.349  0.1703  0.2043  0.1487
  150loPI   C3A 2393  12.574  14.765   8.929  0.1103  0.0318 -0.2591
  150loPI   C4A 2394  12.548  14.690   8.415  0.5652  0.1470  0.1597
  150loPI   C5A 2395  12.654  14.576   8.011  0.1205 -0.0213 -0.0700
  150loPI   C6A 2396  12.506  14.206   7.730 -0.0836 -0.2679 -0.1867
  150loPI   C1B 2397  11.779  15.095   9.818 -0.1819 -0.1286 -0.1189
  150loPI   C2B 2398  11.772  14.883   9.478 -0.0618  0.1344  0.1546
  150loPI   C3B 2399  11.934  14.887   9.131 -0.1086  0.2410 -0.3042
  150loPI   C4B 2400  12.192  14.977   8.680  0.1426 -0.0197 -0.0639
  151loPI    C1 2401   0.092   9.266  10.566 -0.1119 -0.0365  0.2071
  151loPI    C2 2402   0.122   9.548  10.849  0.1951  0.1197  0.0251
  151loPI    C3 2403   0.421   9.288  10.793  0.1111  0.0523 -0.1180
  151loPI   PO4 2404   0.087   9.344  10.330  0.1181 -0.0545  0.2053
  151loPI   GL1 2405   0.315   9.463   9.981  0.2287 -0.1935  0.0274
  151loPI   GL2 2406   0.358   9.796   9.975 -0.0447 -0.0975 -0.1661
  151loPI   C1A 2407   0.398   9.474   9.624  0.2610  0.0484  0.2246
  151loPI   C2A 2408   0.603   9.591   9.173 -0.0649  0.0325 -0.0774
  151loPI   C3A 2409   0.711   9.783   8.790  0.2215 -0.1717 -0.0760
  151loPI   C4A 2410   0.627   9.796   8.365 -0.1567 -0.2132  0.3720
  151loPI   C5A 2411   0.389   9.807   8.005  0.0922  0.2021  0.2440
  151loPI   C6A 2412  -0.089   9.746   7.943  0.4248  0.2948  0.0692
  151loPI   C1B 2413   0.179   9.964   9.548 -0.2183  0.3534  0.0697
  151loPI   C2B 2414   0.069   9.722   9.196  0.2000  0.2945 -0.0167
  151loPI   C3B 2415   0.198   9.759   8.733 -0.2415 -0.0807 -0.2012
  151loPI   C4B 2416   0.072  10.006   8.379  0.1968  0.1482 -0.2043
  152loPI    C1 2417  14.707  14.902  10.449  0.0183 -0.0478  0.1230
  152loPI    C2 2418  14.942  14.628  10.278 -0.1908 -0.2470  0.1491
  152loPI    C3 2419  14.807  14.571  10.650 -0.0531  0.0006  0.2396
  152loPI   PO4 2420  14.520  14.915  10.317  0.0983 -0.1198 -0.3068
  152loPI   GL1 2421  14.640  14.814   9.901  0.1945 -0.1348 -0.0596
  152loPI   GL2 2422  14.621  14.487   9.897 -0.0360  0.1168  0.1076
  152loPI   C1A 2423  14.797  15.053   9.545  0.2216  0.1041 -0.0147
  152loPI   C2A 2424  14.813  15.000   9.151  0.3977 -0.1525 -0.1093
  152loPI   C3A 2425  14.843  15.069   8.719  0.0276 -0.1168  0.0381
  152loPI   C4A 2426  14.839  15.081   8.233 -0.1593 -0.0645  0.1597
  152loPI   C5A 2427  14.766  15.363   7.899  0.3584  0.0217  0.4612
  152loPI   C6A 2428  14.868  15.600   7.581 -0.0433  0.0690 -0.2580
  152loPI   C1B 2429  14.781  14.543   9.421  0.1773 -0.2785 -0.0711
  152loPI   C2B 2430  14.949  14.585   8.944 -0.0414  0.0911 -0.1383
  152loPI   C3B 2431  15.103  14.641   8.610  0.1480  0.1457 -0.0339
  152loPI   C4B 2432  15.133  14.555   8.258  0.1674  0.0297 -0.0442
  153loPI    C1 2433   0.790  13.144  10.658  0.1420  0.0801 -0.0341
  153loPI    C2 2434   0.981  13.290  10.977 -0.0204  0.0715  0.0685
  153loPI    C3 2435   0.604  13.161  11.012  0.0803 -0.2645 -0.0462
  153loPI   PO4 2436   0.886  13.303  10.467  0.0152 -0.3165  0.0520
  153loPI   GL1 2437   0.892  13.210   9.981 -0.3957  0.0335  0.0551
  153loPI   GL2 2438   1.038  13.509  10.013 -0.1273  0.2924  0.4424
  153loPI   C1A 2439   0.756  13.325   9.514 -0.1686 -0.0951 -0.1521
  153loPI   C2A 2440   0.762  13.451   9.075  0.1501 -0.0761 -0.1613
  153loPI   C3A 2441   0.784  13.435   8.678 -0.0677 -0.1269 -0.1739
  153loPI   C4A 2442   0.772  13.361   8.189  0.1722 -0.5454  0.2528
  153loPI   C5A 2443   1.189  13.615   7.954 -0.0334 -0.2736  0.1385
  153loPI   C6A 2444   1.442  13.371   7.755 -0.0578 -0.1102 -0.4445
  153loPI   C1B 2445   0.967  13.716   9.712  0.1463  0.3142  0.0720
  153loPI   C2B 2446   0.848  13.923   9.272  0.0692  0.0006  0.2918
  153loPI   C3B 2447   0.680  14.008   8.840  0.0799  0.2321 -0.0486
  153loPI   C4B 2448   0.620  13.842   8.419  0.1345  0.0804  0.0780
  154loPI    C1 2449   7.023  10.577  10.414 -0.0907 -0.1865 -0.0072
  154loPI    C2 2450   7.359  10.621  10.626 -0.0970 -0.0711 -0.0206
  154loPI    C3 2451   7.008  10.735  10.781 -0.0979  0.0407 -0.1039
  154loPI   PO4 2452   7.057  10.452  10.268  0.1067  0.2898 -0.1544
  154loPI   GL1 2453   7.328  10.544   9.935  0.1952  0.1527 -0.0475
  154loPI   GL2 2454   7.699  10.643   9.889  0.3185  0.1915 -0.0515
  154loPI   C1A 2455   7.126  10.567   9.536 -0.1412  0.1489 -0.2774
  154loPI   C2A 2456   6.975  10.635   9.041 -0.0509 -0.1815 -0.1430
  154loPI   C3A 2457   6.949  10.758   8.603  0.2644  0.1984  0.2006
  154loPI   C4A 2458   7.134  10.566   8.337  0.1204 -0.2983 -0.1773
  154loPI   C5A 2459   7.046  10.339   8.079 -0.1568  0.2184 -0.1392
  154loPI   C6A 2460   7.088  10.409   7.646  0.2787 -0.0606  0.2935
  154loPI   C1B 2461   7.624  10.528   9.476 -0.2694 -0.2993 -0.1980
  154loPI   C2B 2462   7.708  10.626   9.042 -0.1427 -0.0795  0.1053
  154loPI   C3B 2463   7.663  10.603   8.594 -0.2296  0.1848 -0.0745
  154loPI   C4B 2464   7.658  10.792   8.164  0.1339  0.2310  0.1303
  155loPI    C1 2465   3.630  12.848  10.502 -0.1172 -0.0129  0.0843
  155loPI    C2 2466   3.991  12.898  10.665  0.0426 -0.2317 -0.1927
  155loPI    C3 2467   3.764  12.588  10.775 -0.0202 -0.1506 -0.0919
  155loPI   PO4 2468   3.612  12.974  10.245 -0.0583 -0.4143 -0.1614
  155loPI   GL1 2469   3.701  12.925   9.861 -0.2034  0.2045  0.0299
  155loPI   GL2 2470   3.969  13.071   9.832  0.1216 -0.1862 -0.3176
  155loPI   C1A 2471   3.620  12.715   9.514  0.2858  0.0295  0.0499
  155loPI   C2A 2472   3.626  12.760   9.113 -0.1326 -0.3087 -0.3371
  155loPI   C3A 2473   3.634  12.832   8.645 -0.3667 -0.2728  0.2823
  155loPI   C4A 2474   3.485  12.931   8.275 -0.3170 -0.0055  0.2335
  155loPI   C5A 2475   3.665  12.962   7.940 -0.2445  0.4142  0.3159
  155loPI   C6A 2476   3.926  12.930   7.600 -0.2207  0.0215  0.0037
  155loPI   C1B 2477   3.738  13.344   9.531 -0.1173 -0.1084  0.1712
  155loPI   C2B 2478   3.597  13.369   9.150  0.0745  0.1878 -0.1377
  155loPI   C3B 2479   3.635  13.358   8.649  0.2206  0.2872  0.3238
  155loPI   C4B 2480   3.416  13.416   8.213  0.1634  0.0343  0.2642
  156loPI    C1 2481   6.507   6.163  10.923 -0.0552  0.2122  0.0325
  156loPI    C2 2482   6.672   5.927  10.645 -0.3111 -0.0737  0.1180
  156loPI    C3 2483   6.815   5.926  11.019  0.0304  0.3078 -0.0047
  156loPI   PO4 2484   6.249   6.112  10.833  0.1802 -0.0429 -0.1405
  156loPI   GL1 2485   6.130   6.254  10.460 -0.0826  0.2393 -0.2170
  156loPI   GL2 2486   5.919   6.430  10.162  0.0624  0.0084 -0.0096
  156loPI   C1A 2487   6.265   6.094  10.052  0.3289  0.3110  0.0490
  156loPI   C2A 2488   6.380   6.052   9.747  0.1760  0.0559  0.2178
  156loPI   C3A 2489   6.167   6.140   9.402  0.0576  0.4059  0.1394
  156loPI   C4A 2490   6.069   6.059   9.024 -0.0096 -0.1006  0.0634
  156loPI   C5A 2491   6.044   5.817   8.697  0.1311 -0.0821  0.0623
  156loPI   C6A 2492   5.903   5.518   8.364 -0.0361  0.0566  0.2011
  156loPI   C1B 2493   6.042   6.448   9.788  0.0818  0.1890 -0.1958
  156loPI   C2B 2494   6.201   6.640   9.427 -0.1692 -0.0304  0.0776
  156loPI   C3B 2495   6.214   6.501   8.982  0.0314 -0.1470 -0.1808
  156loPI   C4B 2496   5.964   6.348   8.620 -0.0107 -0.1090 -0.1079
  157loPI    C1 2497   9.256   6.521  10.709 -0.1814  0.1533  0.0047
  157loPI    C2 2498   9.309   6.210  10.463  0.0478  0.1937  0.0008
  157loPI    C3 2499   8.961   6.255  10.656 -0.0964  0.1035 -0.2324
  157loPI   PO4 2500   9.367   6.687  10.477 -0.0573 -0.2800 -0.0709
  157loPI   GL1 2501   9.179   6.971  10.173 -0.0899  0.0591 -0.2017
  157loPI   GL2 2502   8.842   7.098  10.079 -0.0606 -0.0509 -0.2479
  157loPI   C1A 2503   9.302   6.988   9.712 -0.1875  0.2327  0.2990
  157loPI   C2A 2504   9.467   6.728   9.372  0.1024 -0.2215 -0.2032
  157loPI   C3A 2505   9.687   6.409   9.050  0.1816 -0.0975 -0.2143
  157loPI   C4A 2506   9.992   6.144   8.872 -0.2841 -0.1450  0.3727
  157loPI   C5A 2507  10.043   6.093   8.432  0.0073 -0.2002  0.1402
  157loPI   C6A 2508  10.254   5.702   8.219 -0.0970 -0.3505 -0.0582
  157loPI   C1B 2509   8.872   7.183   9.701 -0.2532 -0.2340 -0.1092
  157loPI   C2B 2510   9.089   7.085   9.274  0.2611 -0.1328  0.0644
  157loPI   C3B 2511   9.407   7.032   8.981 -0.3251 -0.0870  0.3454
  157loPI   C4B 2512   9.486   6.720   8.664  0.2097  0.2449 -0.0475
  158loPI    C1 2513   9.453  10.268  10.205 -0.0387 -0.2605  0.1666
  158loPI    C2 2514   9.121  10.484  10.261  0.2248  0.1823  0.0631
  158loPI    C3 2515   9.285  10.287  10.568 -0.0914  0.0165  0.1296
  158loPI   PO4 2516   9.665  10.489  10.058 -0.0853  0.2305 -0.0025
  158loPI   GL1 2517   9.970  10.644   9.762  0.0977 -0.2292 -0.1486
  158loPI   GL2 2518  10.222  10.375   9.803 -0.5441 -0.1596  0.0508
  158loPI   C1A 2519  10.280  10.848   9.360  0.3460  0.1934  0.0452
  158loPI   C2A 2520  10.512  10.877   9.035  0.0831  0.0331 -0.2007
  158loPI   C3A 2521  10.658  10.875   8.597 -0.1339 -0.1128  0.0483
  158loPI   C4A 2522  11.055  10.737   8.314  0.1706 -0.2439  0.1818
  158loPI   C5A 2523  11.493  10.640   8.329 -0.2385 -0.1620  0.0530
  158loPI   C6A 2524  11.862  10.814   8.547 -0.1330 -0.2346  0.1167
  158loPI   C1B 2525  10.141  10.289   9.353 -0.0683  0.0421  0.1130
  158loPI   C2B 2526  10.237  10.085   8.914  0.1939  0.0939  0.0811
  158loPI   C3B 2527  10.522   9.850   8.681 -0.0695  0.1061  0.0618
  158loPI   C4B 2528  10.751  10.182   8.461  0.0315  0.1016 -0.1161
  159loPI    C1 2529   5.653   8.614  10.371 -0.3227  0.3500 -0.2146
  159loPI    C2 2530   5.507   8.413  10.684  0.2418 -0.0216 -0.1748
  159loPI    C3 2531   5.570   8.807  10.711 -0.1904  0.0415 -0.0024
  159loPI   PO4 2532   5.840   8.462  10.344  0.1520  0.0937  0.2970
  159loPI   GL1 2533   6.119   8.549  10.110 -0.1097  0.1438 -0.1648
  159loPI   GL2 2534   5.924   8.628   9.864  0.2222  0.0831  0.0832
  159loPI   C1A 2535   6.228   8.183   9.763  0.0433  0.1852 -0.2546
  159loPI   C2A 2536   6.204   8.090   9.347 -0.1232 -0.3203  0.0759
  159loPI   C3A 2537   6.209   8.008   8.844  0.3253  0.2138  0.0534
  159loPI   C4A 2538   6.316   8.021   8.396 -0.0963  0.1816  0.1285
  159loPI   C5A 2539   6.261   8.018   7.986 -0.0539  0.1302  0.1307
  159loPI   C6A 2540   6.175   8.265   7.634 -0.1419  0.0496  0.1293
  159loPI   C1B 2541   6.044   8.590   9.540 -0.2039 -0.0188  0.0155
  159loPI   C2B 2542   6.017   8.509   9.120 -0.0214 -0.0637  0.1092
  159loPI   C3B 2543   6.039   8.405   8.624  0.0268  0.3186  0.1878
  159loPI   C4B 2544   5.984   8.402   8.152  0.2565 -0.0971 -0.1232
  160loPI    C1 2545   2.666   9.203  10.314 -0.1200  0.0002 -0.1632
  160loPI    C2 2546   2.655   8.957   9.999  0.1013  0.0701 -0.2274
  160loPI    C3 2547   3.001   9.021  10.190  0.0184  0.2271 -0.1287
  160loPI   PO4 2548   2.471   9.365  10.287  0.5037 -0.2094  0.1607
  160loPI   GL1 2549   2.635   9.669   9.946  0.1538  0.1734 -0.3386
  160loPI   GL2 2550   2.744   9.453   9.823  0.0118 -0.0034 -0.0168
  160loPI   C1A 2551   2.490   9.845   9.645  0.0441 -0.2085  0.1900
  160loPI   C2A 2552   2.477   9.815   9.173 -0.0501 -0.2197  0.3311
  160loPI   C3A 2553   2.622   9.798   8.802  0.1176 -0.1366  0.0819
  160loPI   C4A 2554   2.762   9.857   8.425  0.0735 -0.0224  0.0164
  160loPI   C5A 2555   2.802  10.219   8.185  0.0098  0.1661 -0.1282
  160loPI   C6A 2556   3.124  10.421   8.126  0.1479 -0.2414  0.3363
  160loPI   C1B 2557   2.881   9.592   9.405  0.0780  0.2508 -0.2385
  160loPI   C2B 2558   2.904   9.459   9.032  0.1870  0.1237 -0.1115
  160loPI   C3B 2559   2.978   9.401   8.597  0.1247 -0.1611 -0.0947
  160loPI   C4B 2560   3.233   9.469   8.256  0.0636 -0.0853 -0.0648
  161loPI    C1 2561   1.551   5.240  10.358  0.1420  0.0433  0.0152
  161loPI    C2 2562   1.548   4.843  10.413  0.4154  0.0539  0.1191
  161loPI    C3 2563   1.292   5.075  10.615  0.1223 -0.0852 -0.0857
  161loPI   PO4 2564   1.568   5.223  10.095  0.0560 -0.2701  0.1167
  161loPI   GL1 2565   1.982   5.323   9.797  0.1829 -0.1928 -0.0107
  161loPI   GL2 2566   1.603   5.219   9.613  0.3749  0.0515 -0.0623
  161loPI   C1A 2567   1.988   5.325   9.346  0.2408 -0.1243 -0.0760
  161loPI   C2A 2568   2.052   5.186   8.874 -0.0068 -0.1096 -0.0694
  161loPI   C3A 2569   1.965   5.311   8.463  0.0365 -0.0190 -0.0109
  161loPI   C4A 2570   1.978   5.202   8.016 -0.0188 -0.0418  0.1265
  161loPI   C5A 2571   2.027   5.070   7.594  0.1306  0.0887  0.0369
  161loPI   C6A 2572   1.885   4.654   7.434  0.3289  0.0215  0.2912
  161loPI   C1B 2573   1.375   5.106   9.247  0.0370  0.1915  0.5182
  161loPI   C2B 2574   1.310   4.849   8.955  0.0410  0.0634 -0.2459
  161loPI   C3B 2575   1.305   4.632   8.580 -0.0058 -0.1742 -0.1471
  161loPI   C4B 2576   1.153   4.778   8.182 -0.1980  0.0457  0.0786
  162loPI    C1 2577   6.251   9.282  10.633 -0.0822  0.0560  0.0190
  162loPI    C2 2578   6.462   9.608  10.539 -0.0358  0.0485  0.0969
  162loPI    C3 2579   6.646   9.255  10.577 -0.0660  0.0373  0.1406
  162loPI   PO4 2580   6.010   9.266  10.494 -0.2330 -0.2114 -0.3272
  162loPI   GL1 2581   5.797   9.034  10.145 -0.4796 -0.2911  0.1377
  162loPI   GL2 2582   5.796   9.362  10.013 -0.0215 -0.0694 -0.0293
  162loPI   C1A 2583   5.743   9.055   9.630 -0.1168  0.2624 -0.2444
  162loPI   C2A 2584   5.781   9.028   9.227 -0.1909  0.3604  0.2724
  162loPI   C3A 2585   5.897   8.945   8.836 -0.1228  0.0075 -0.0162
  162loPI   C4A 2586   5.985   8.863   8.422 -0.2020  0.0369 -0.0989
  162loPI   C5A 2587   6.238   9.173   8.133  0.0676 -0.2668  0.0001
  162loPI   C6A 2588   6.169   9.573   8.021 -0.0903  0.0770  0.1145
  162loPI   C1B 2589   6.084   9.471   9.686  0.0436 -0.1665 -0.2407
  162loPI   C2B 2590   6.103   9.429   9.338 -0.2607 -0.0076  0.1805
  162loPI   C3B 2591   6.135   9.370   8.968  0.1702 -0.2890 -0.0136
  162loPI   C4B 2592   6.153   9.429   8.523 -0.2941  0.0430 -0.1598
  163loPI    C1 2593  10.889  14.044  10.684 -0.0159 -0.2520 -0.1513
  163loPI    C2 2594  10.595  14.261  10.846  0.0871 -0.0240 -0.2651
  163loPI    C3 2595  10.868  14.087  11.081  0.0485  0.0343 -0.1766
  163loPI   PO4 2596  10.867  14.161  10.423  0.1726  0.2660  0.2199
  163loPI   GL1 2597  10.725  14.080   9.985 -0.1224  0.0191 -0.2093
  163loPI   GL2 2598  10.712  14.470   9.957  0.2725 -0.2015 -0.0931
  163loPI   C1A 2599  10.385  14.089   9.707 -0.0528 -0.1973 -0.1924
  163loPI   C2A 2600  10.034  14.136   9.379 -0.0389 -0.2569  0.0192
  163loPI   C3A 2601   9.708  14.296   9.173  0.1184 -0.0941  0.0777
  163loPI   C4A 2602   9.661  14.355   8.790  0.0486  0.1662 -0.2259
  163loPI   C5A 2603   9.687  14.529   8.326  0.2574  0.1028  0.0462
  163loPI   C6A 2604   9.603  14.657   7.872 -0.3045 -0.0359  0.0759
  163loPI   C1B 2605  10.847  14.315   9.483  0.1998 -0.2404 -0.2864
  163loPI   C2B 2606  11.046  14.350   9.116  0.0556 -0.2068 -0.1989
  163loPI   C3B 2607  11.161  14.446   8.791  0.2313 -0.4713 -0.1966
  163loPI   C4B 2608  11.266  14.506   8.439 -0.0067  0.2097 -0.2759
  164loPI    C1 2609   8.250   6.929  10.466 -0.0656  0.0180  0.0859
  164loPI    C2 2610   8.500   7.052  10.753 -0.0382 -0.0848  0.1063
  164loPI    C3 2611   8.507   7.227  10.393  0.0830 -0.1068  0.0977
  164loPI   PO4 2612   8.245   6.653  10.486 -0.0644  0.1025  0.0697
  164loPI   GL1 2613   8.487   6.555  10.121  0.0670  0.0331  0.3045
  164loPI   GL2 2614   8.250   6.383   9.961 -0.4345 -0.0425 -0.0941
  164loPI   C1A 2615   8.418   6.938   9.965 -0.1503 -0.0308  0.1046
  164loPI   C2A 2616   8.418   7.180   9.561 -0.1393 -0.0701 -0.0091
  164loPI   C3A 2617   8.606   7.237   9.161  0.1318  0.0080 -0.1456
  164loPI   C4A 2618   8.858   7.233   8.805 -0.0467 -0.1709 -0.2249
  164loPI   C5A 2619   9.098   7.127   8.455 -0.0451 -0.4410 -0.0502
  164loPI   C6A 2620   9.192   6.729   8.236  0.3579 -0.0655 -0.1498
  164loPI   C1B 2621   8.361   6.563   9.616 -0.2885 -0.2909 -0.2077
  164loPI   C2B 2622   8.640   6.771   9.295  0.2232 -0.0087 -0.1170
  164loPI   C3B 2623   8.552   6.701   8.851 -0.3390  0.0519 -0.0810
  164loPI   C4B 2624   8.669   6.731   8.473 -0.1754  0.0574  0.2009
  165loPI    C1 2625   4.168   3.115  10.486 -0.0566  0.0898  0.1242
  165loPI    C2 2626   4.182   2.826  10.761  0.3703 -0.0935 -0.0815
  165loPI    C3 2627   4.367   3.174  10.828 -0.0877  0.1159  0.1380
  165loPI   PO4 2628   3.934   3.262  10.414  0.0061 -0.0017 -0.0867
  165loPI   GL1 2629   3.663   3.189  10.096  0.1230 -0.1830  0.0515
  165loPI   GL2 2630   3.489   2.870  10.053 -0.1615 -0.1785 -0.2116
  165loPI   C1A 2631   3.628   3.164   9.633 -0.1190 -0.0422 -0.0102
  165loPI   C2A 2632   3.508   3.251   9.263 -0.2350  0.0914 -0.1336
  165loPI   C3A 2633   3.619   3.229   8.879 -0.1324 -0.0367  0.1203
  165loPI   C4A 2634   3.741   3.163   8.466 -0.1166  0.1760 -0.2201
  165loPI   C5A 2635   3.704   3.430   8.092 -0.2332  0.2673  0.2887
  165loPI   C6A 2636   3.915   3.368   7.678  0.1368  0.3086  0.0469
  165loPI   C1B 2637   3.201   2.849   9.746  0.1511  0.1374 -0.0247
  165loPI   C2B 2638   3.085   2.924   9.312  0.1412  0.3701 -0.3834
  165loPI   C3B 2639   3.198   2.895   8.931 -0.1342 -0.0751  0.0241
  165loPI   C4B 2640   3.246   2.865   8.620 -0.2635 -0.1566 -0.0476
  166loPI    C1 2641  17.669  12.080  10.873  0.1880  0.0445 -0.2040
  166loPI    C2 2642  17.881  11.926  11.175 -0.0300  0.1139 -0.0130
  166loPI    C3 2643  17.929  12.310  11.072  0.1925  0.0376 -0.2019
  166loPI   PO4 2644  17.631  11.976  10.683 -0.2472  0.0875 -0.1310
  166loPI   GL1 2645  17.654  11.970  10.323 -0.0630  0.2374  0.1141
  166loPI   GL2 2646  17.943  12.150  10.375 -0.2084  0.2502  0.0573
  166loPI   C1A 2647  17.599  11.907   9.939 -0.0597  0.0646 -0.0057
  166loPI   C2A 2648  17.665  12.291   9.632  0.1890 -0.1427  0.0845
  166loPI   C3A 2649  17.797  12.289   9.259 -0.0633 -0.0089 -0.2279
  166loPI   C4A 2650  17.719  12.171   8.852  0.3396 -0.0189  0.2829
  166loPI   C5A 2651  17.533  12.076   8.437 -0.1269  0.0856 -0.1799
  166loPI   C6A 2652  17.216  12.292   8.313 -0.3287 -0.1122  0.0348
  166loPI   C1B 2653  18.021  12.133   9.978  0.1866  0.0634  0.3857
  166loPI   C2B 2654  18.197  12.166   9.632  0.1781  0.0546  0.4279
  166loPI   C3B 2655  18.522  12.443   9.407 -0.1957 -0.2613  0.0131
  166loPI   C4B 2656  18.546  12.570   8.968 -0.4539 -0.1097  0.1761
  167loPI    C1 2657   3.172   5.475  10.200 -0.0032  0.1626  0.1327
  167loPI    C2 2658   3.199   5.090  10.306 -0.4237  0.0935  0.0081
  167loPI    C3 2659   3.111   5.367  10.580 -0.2449  0.0860  0.0742
  167loPI   PO4 2660   3.393   5.522  10.030  0.3160  0.1762  0.0083
  167loPI   GL1 2661   3.465   5.768   9.708 -0.2561 -0.0534  0.0527
  167loPI   GL2 2662   3.237   5.820   9.651 -0.1745  0.2531  0.0135
  167loPI   C1A 2663   3.603   5.463   9.423  0.2743 -0.1674 -0.1582
  167loPI   C2A 2664   3.795   5.456   8.968  0.0300 -0.0786  0.3341
  167loPI   C3A 2665   4.030   5.433   8.626  0.0536 -0.0850  0.0119
  167loPI   C4A 2666   3.927   5.296   8.290  0.1732 -0.0776  0.1225
  167loPI   C5A 2667   3.637   5.266   8.006  0.0497  0.2062 -0.0013
  167loPI   C6A 2668   3.201   5.151   7.955 -0.0977 -0.2746 -0.0479
  167loPI   C1B 2669   3.390   5.963   9.219 -0.0579 -0.0076 -0.3164
  167loPI   C2B 2670   3.377   6.093   8.848 -0.0201 -0.0495  0.1271
  167loPI   C3B 2671   3.395   6.107   8.414 -0.0208 -0.0872  0.2012
  167loPI   C4B 2672   3.371   6.265   8.021 -0.2195 -0.0801 -0.0664
  168loPI    C1 2673  12.261   1.533  10.941 -0.1697  0.0599 -0.0752
  168loPI    C2 2674  12.466   1.804  10.731 -0.1136  0.0911  0.0190
  168loPI    C3 2675  12.529   1.767  11.124 -0.1864  0.0031  0.0227
  168loPI   PO4 2676  12.267   1.343  10.787 -0.0621 -0.0443  0.2539
  168loPI   GL1 2677  12.395   1.285  10.532  0.2105  0.1246 -0.2150
  168loPI   GL2 2678  12.587   1.554  10.360 -0.2105  0.0969 -0.2023
  168loPI   C1A 2679  12.266   1.270  10.114  0.3395  0.3543  0.4390
  168loPI   C2A 2680  12.091   1.043   9.836  0.2801  0.1669  0.2339
  168loPI   C3A 2681  12.075   0.998   9.425  0.1540 -0.0614 -0.0495
  168loPI   C4A 2682  12.121   0.973   8.968  0.1041 -0.0212 -0.4928
  168loPI   C5A 2683  11.976   0.804   8.549  0.0003  0.0160  0.0074
  168loPI   C6A 2684  12.004   0.627   8.204  0.0364  0.2754 -0.0456
  168loPI   C1B 2685  12.710   1.565   9.939 -0.0239 -0.4507  0.3143
  168loPI   C2B 2686  12.681   1.624   9.508 -0.1149  0.2702  0.3175
  168loPI   C3B 2687  12.614   1.844   9.085  0.1135 -0.0194  0.0919
  168loPI   C4B 2688  12.739   1.723   8.645 -0.1151  0.0714 -0.0625
  169loPI    C1 2689  11.948   4.952  10.783  0.1580  0.0419 -0.2255
  169loPI    C2 2690  12.150   4.612  10.721  0.0397 -0.0911  0.0936
  169loPI    C3 2691  12.253   4.854  11.023 -0.0276  0.0394  0.0132
  169loPI   PO4 2692  11.875   5.037  10.533 -0.0597 -0.2988 -0.0074
  169loPI   GL1 2693  11.906   4.829  10.165  0.0252 -0.0090 -0.1017
  169loPI   GL2 2694  12.189   4.693  10.182  0.2259 -0.1343  0.2453
  169loPI   C1A 2695  12.106   4.829   9.696 -0.1618  0.6051  0.1322
  169loPI   C2A 2696  12.141   4.725   9.203  0.0011 -0.0980  0.0185
  169loPI   C3A 2697  12.330   4.683   8.875 -0.0855  0.0214 -0.1920
  169loPI   C4A 2698  12.441   4.649   8.471 -0.1760  0.1233 -0.0791
  169loPI   C5A 2699  12.311   4.388   8.158 -0.0467 -0.0909  0.2752
  169loPI   C6A 2700  12.345   4.457   7.735  0.1615  0.0093 -0.0314
  169loPI   C1B 2701  12.392   4.385   9.840 -0.1554  0.1671  0.2603
  169loPI   C2B 2702  12.503   4.155   9.473 -0.0201  0.1483 -0.1175
  169loPI   C3B 2703  12.608   4.253   9.004 -0.0805  0.0954  0.3109
  169loPI   C4B 2704  12.698   4.194   8.539 -0.0679  0.0148 -0.2553
  170loPI    C1 2705   7.033  13.834  10.083  0.0763  0.3436 -0.1568
  170loPI    C2 2706   6.680  13.953   9.937  0.0123  0.1655 -0.1494
  170loPI    C3 2707   6.801  14.079  10.297 -0.0429  0.2281 -0.1525
  170loPI   PO4 2708   7.168  13.880   9.857 -0.0794 -0.0488 -0.0039
  170loPI   GL1 2709   6.995  13.964   9.488 -0.0629  0.1919 -0.0285
  170loPI   GL2 2710   7.240  14.241   9.482  0.1064 -0.2375 -0.1108
  170loPI   C1A 2711   7.046  13.710   9.148 -0.2706  0.2135  0.3213
  170loPI   C2A 2712   7.087  13.549   8.822  0.3781 -0.0489 -0.1495
  170loPI   C3A 2713   7.050  13.399   8.363  0.1089 -0.1179  0.2090
  170loPI   C4A 2714   7.113  13.022   8.149  0.0923 -0.0499 -0.2266
  170loPI   C5A 2715   7.285  12.655   7.957  0.1498  0.1837 -0.1237
  170loPI   C6A 2716   7.638  12.428   7.822  0.1948  0.0672 -0.0242
  170loPI   C1B 2717   7.245  14.115   8.980  0.0936  0.3721 -0.0363
  170loPI   C2B 2718   7.259  14.014   8.599 -0.0509 -0.1999 -0.1007
  170loPI   C3B 2719   6.916  14.029   8.249 -0.1459 -0.1236  0.0624
  170loPI   C4B 2720   6.726  13.857   8.038  0.0714 -0.3633  0.0147
  171loPI    C1 2721  13.176   9.685  10.871  0.0640  0.1672 -0.0187
  171loPI    C2 2722  13.514   9.504  10.758 -0.1017 -0.0037 -0.2531
  171loPI    C3 2723  13.361   9.434  11.121  0.1302  0.1019 -0.1324
  171loPI   PO4 2724  13.061   9.673  10.670  0.2270 -0.0118 -0.1888
  171loPI   GL1 2725  12.753   9.547  10.264  0.4106  0.1485 -0.0852
  171loPI   GL2 2726  12.428   9.677  10.127 -0.0002  0.2678 -0.2719
  171loPI   C1A 2727  12.897   9.349   9.916  0.0616  0.0084  0.1973
  171loPI   C2A 2728  13.078   9.269   9.568 -0.1325  0.0062  0.2380
  171loPI   C3A 2729  13.169   9.371   9.126 -0.0837  0.0306 -0.0872
  171loPI   C4A 2730  13.251   9.462   8.718 -0.1460  0.0647  0.1940
  171loPI   C5A 2731  13.305   9.552   8.257  0.1490  0.0190 -0.0630
  171loPI   C6A 2732  13.564   9.838   7.970 -0.1427  0.1171  0.1949
  171loPI   C1B 2733  12.574   9.718   9.790 -0.1058  0.2211 -0.0316
  171loPI   C2B 2734  12.789   9.703   9.491 -0.2508 -0.0534  0.1087
  171loPI   C3B 2735  12.831   9.743   9.028  0.0736  0.2087  0.1834
  171loPI   C4B 2736  12.964   9.857   8.581 -0.4647  0.0417 -0.0118
  172loPI    C1 2737   7.312   8.462  10.756 -0.2203  0.1056 -0.1896
  172loPI    C2 2738   7.209   8.622  11.108 -0.1076  0.0630 -0.1368
  172loPI    C3 2739   6.955   8.380  10.916 -0.1156 -0.0232 -0.0186
  172loPI   PO4 2740   7.395   8.633  10.635  0.0863  0.0211 -0.0244
  172loPI   GL1 2741   7.421   8.957  10.225  0.2088  0.2012 -0.2208
  172loPI   GL2 2742   7.463   8.618  10.127  0.0844  0.2359  0.3545
  172loPI   C1A 2743   7.296   9.092   9.874  0.2788  0.2850 -0.0802
  172loPI   C2A 2744   7.208   9.175   9.523 -0.0353 -0.0442  0.0907
  172loPI   C3A 2745   7.195   9.258   9.123 -0.0693  0.1129 -0.0157
  172loPI   C4A 2746   7.211   9.357   8.619  0.3275  0.1361  0.0257
  172loPI   C5A 2747   7.026   9.249   8.234  0.3422  0.0426  0.0070
  172loPI   C6A 2748   6.721   9.417   8.003 -0.0855  0.0546  0.2523
  172loPI   C1B 2749   7.509   8.663   9.658  0.0060  0.1716  0.0961
  172loPI   C2B 2750   7.430   8.799   9.290 -0.2710  0.2144 -0.1546
  172loPI   C3B 2751   7.367   8.808   8.882  0.1862  0.2621  0.1291
  172loPI   C4B 2752   7.443   8.889   8.416 -0.1287  0.2517 -0.2212
  173loPI    C1 2753   2.283   0.097  10.567  0.0044  0.0540  0.0026
  173loPI    C2 2754   2.285   0.410  10.816 -0.2868 -0.0125  0.0930
  173loPI    C3 2755   2.044   0.099  10.888 -0.0970 -0.2006 -0.0686
  173loPI   PO4 2756   2.433   0.252  10.322  0.0530  0.0331 -0.0669
  173loPI   GL1 2757   2.280   0.143   9.981 -0.0081  0.0106 -0.1620
  173loPI   GL2 2758   2.187  -0.081   9.743  0.0395 -0.3560 -0.1769
  173loPI   C1A 2759   2.616   0.142   9.593  0.0303  0.1201  0.0541
  173loPI   C2A 2760   2.629   0.207   9.216 -0.3831 -0.3042  0.1415
  173loPI   C3A 2761   3.011   0.343   9.125 -0.1450 -0.3093 -0.1515
  173loPI   C4A 2762   2.995   0.631   8.809 -0.0435  0.1741  0.0991
  173loPI   C5A 2763   3.269   0.781   8.627 -0.2964 -0.2577 -0.0561
  173loPI   C6A 2764   3.644   0.998   8.406 -0.0050 -0.1167 -0.0749
  173loPI   C1B 2765   2.289  -0.173   9.370  0.2231  0.2806  0.4409
  173loPI   C2B 2766   2.383  -0.176   8.953  0.1240  0.0988  0.0393
  173loPI   C3B 2767   2.091  -0.306   8.656  0.0933 -0.2772  0.0528
  173loPI   C4B 2768   2.078  -0.229   8.284  0.1796  0.0626 -0.1077
  174loPI    C1 2769  16.373  10.952  10.343 -0.1754  0.0994 -0.0287
  174loPI    C2 2770  16.490  10.573  10.288 -0.2293  0.0214  0.3682
  174loPI    C3 2771  16.762  10.860  10.347 -0.1886  0.0465  0.0728
  174loPI   PO4 2772  16.236  11.067  10.108  0.1048 -0.0112  0.3492
  174loPI   GL1 2773  16.377  11.495   9.944 -0.0258 -0.1299 -0.2955
  174loPI   GL2 2774  16.210  11.822  10.047 -0.1832  0.0311 -0.0704
  174loPI   C1A 2775  16.384  11.446   9.478 -0.0585 -0.1219 -0.1431
  174loPI   C2A 2776  16.528  11.555   9.129  0.1151  0.1900  0.0508
  174loPI   C3A 2777  16.631  11.700   8.730 -0.1475 -0.0096 -0.1766
  174loPI   C4A 2778  16.749  11.724   8.307  0.3318 -0.1773  0.2973
  174loPI   C5A 2779  16.886  11.992   8.040  0.0812  0.1647  0.0795
  174loPI   C6A 2780  17.078  12.196   7.677  0.1883 -0.0010  0.1962
  174loPI   C1B 2781  16.053  11.872   9.623 -0.3937 -0.2456  0.1262
  174loPI   C2B 2782  16.075  11.792   9.099 -0.2532 -0.1156 -0.1585
  174loPI   C3B 2783  16.123  11.653   8.780 -0.1456 -0.1417 -0.1679
  174loPI   C4B 2784  16.216  11.596   8.385  0.1658  0.2709  0.0821
  175loPI    C1 2785   3.805  15.042  10.475  0.0082  0.0319 -0.0180
  175loPI    C2 2786   3.699  15.316  10.746 -0.0970 -0.1147  0.0906
  175loPI    C3 2787   3.449  15.017  10.656 -0.0048 -0.1454 -0.0661
  175loPI   PO4 2788   3.986  15.187  10.305  0.0822  0.0571  0.0521
  175loPI   GL1 2789   3.868  15.161   9.917  0.0597  0.2044 -0.0376
  175loPI   GL2 2790   3.683  15.114   9.771 -0.0215 -0.0293  0.2603
  175loPI   C1A 2791   4.063  15.281   9.513  0.1606 -0.0567 -0.2231
  175loPI   C2A 2792   4.166  15.302   9.164  0.2352 -0.1504  0.1317
  175loPI   C3A 2793   4.301  15.365   8.741 -0.1794  0.1709 -0.1058
  175loPI   C4A 2794   4.503  15.697   8.470  0.0531 -0.3588  0.1124
  175loPI   C5A 2795   4.312  16.097   8.188  0.0469 -0.1507 -0.0353
  175loPI   C6A 2796   3.959  16.014   8.028 -0.0828 -0.1005  0.1173
  175loPI   C1B 2797   3.642  14.887   9.333 -0.1503  0.1211 -0.1117
  175loPI   C2B 2798   3.522  14.810   8.928  0.0142  0.0880  0.1526
  175loPI   C3B 2799   3.455  14.894   8.556 -0.0822  0.2737 -0.1297
  175loPI   C4B 2800   3.322  14.918   8.157  0.0747  0.0168 -0.2301
  176loPI    C1 2801  11.129  16.896  10.748 -0.1493 -0.1271  0.2730
  176loPI    C2 2802  10.743  16.998  10.727 -0.1407 -0.1603 -0.1176
  176loPI    C3 2803  11.026  17.276  10.675 -0.1084 -0.1279  0.2104
  176loPI   PO4 2804  11.095  16.666  10.586  0.1366  0.0992  0.0124
  176loPI   GL1 2805  11.097  16.649  10.176  0.2020  0.0110 -0.2547
  176loPI   GL2 2806  11.084  17.022  10.231 -0.5523  0.1237  0.1789
  176loPI   C1A 2807  11.059  16.754   9.743  0.1341  0.4006  0.0887
  176loPI   C2A 2808  11.074  16.777   9.283 -0.1162 -0.4069 -0.1196
  176loPI   C3A 2809  11.117  16.799   8.906  0.0878 -0.1571  0.0952
  176loPI   C4A 2810  11.453  16.970   8.502 -0.0296  0.2243  0.4110
  176loPI   C5A 2811  11.800  17.194   8.212 -0.0776 -0.1463 -0.0838
  176loPI   C6A 2812  12.006  17.511   8.079 -0.2161 -0.3379 -0.2565
  176loPI   C1B 2813  11.178  17.168   9.890  0.3681  0.1580 -0.2761
  176loPI   C2B 2814  11.167  17.233   9.456 -0.0214  0.0103  0.1325
  176loPI   C3B 2815  10.998  17.235   9.096 -0.1826 -0.1472  0.0639
  176loPI   C4B 2816  10.987  17.214   8.652 -0.0307  0.2814 -0.3440
  177loPI    C1 2817  13.282   3.243  10.826  0.0598  0.1400 -0.0658
  177loPI    C2 2818  13.466   3.508  11.063 -0.2393  0.2369  0.0617
  177loPI    C3 2819  13.175   3.276  11.210  0.0098 -0.1564 -0.0519
  177loPI   PO4 2820  13.149   3.295  10.640  0.1740  0.0607 -0.1382
  177loPI   GL1 2821  13.075   3.716  10.343  0.1396  0.1040  0.1021
  177loPI   GL2 2822  12.840   3.501  10.264  0.2690 -0.0797  0.1688
  177loPI   C1A 2823  13.284   3.854   9.984 -0.1672  0.1848 -0.1430
  177loPI   C2A 2824  13.358   3.928   9.559 -0.0506  0.0294  0.0137
  177loPI   C3A 2825  13.492   3.982   9.047 -0.0206 -0.2453  0.0603
  177loPI   C4A 2826  13.654   4.077   8.717 -0.2752  0.0663 -0.1525
  177loPI   C5A 2827  13.725   4.461   8.554  0.0397  0.0112  0.0252
  177loPI   C6A 2828  13.841   4.849   8.515 -0.1635 -0.0384 -0.1514
  177loPI   C1B 2829  13.085   3.422   9.916 -0.0145  0.1186 -0.0334
  177loPI   C2B 2830  13.094   3.482   9.475 -0.2109  0.0404  0.0623
  177loPI   C3B 2831  13.236   3.492   9.113 -0.0629  0.0545  0.4657
  177loPI   C4B 2832  13.291   3.596   8.723  0.0743  0.2864  0.2710
  178loPI    C1 2833  17.375   1.705  10.486  0.0805  0.0275  0.0101
  178loPI    C2 2834  17.509   1.381  10.292  0.0349 -0.0647  0.1312
  178loPI    C3 2835  17.328   1.342  10.647  0.1199  0.1029  0.1943
  178loPI   PO4 2836  17.197   1.809  10.321  0.0120 -0.1056 -0.2417
  178loPI   GL1 2837  17.117   1.675   9.931  0.0756 -0.2197  0.0403
  178loPI   GL2 2838  17.290   1.394   9.856  0.1207  0.0634 -0.0958
  178loPI   C1A 2839  16.815   1.845   9.626 -0.1311 -0.0596 -0.0820
  178loPI   C2A 2840  16.808   1.903   9.176  0.0818  0.0189  0.1488
  178loPI   C3A 2841  16.980   1.954   8.792 -0.1167 -0.1780 -0.0126
  178loPI   C4A 2842  16.955   1.947   8.364  0.2320  0.2515 -0.1478
  178loPI   C5A 2843  16.934   1.883   8.003 -0.0894  0.0607 -0.1862
  178loPI   C6A 2844  16.773   2.120   7.743  0.1504 -0.2035  0.2640
  178loPI   C1B 2845  17.062   1.488   9.440  0.0146 -0.0166  0.0798
  178loPI   C2B 2846  17.131   1.515   8.993 -0.1749 -0.2514  0.2758
  178loPI   C3B 2847  17.141   1.528   8.590  0.3728  0.0749 -0.1824
  178loPI   C4B 2848  17.374   1.629   8.175 -0.0346 -0.1010  0.0486
  179loPI    C1 2849  17.096   6.421  10.503  0.1946 -0.2389 -0.1083
  179loPI    C2 2850  17.272   6.586  10.822 -0.1255 -0.1615  0.0326
  179loPI    C3 2851  17.294   6.191  10.764  0.1146 -0.1496  0.0328
  179loPI   PO4 2852  17.282   6.625  10.303  0.0709 -0.4618 -0.3782
  179loPI   GL1 2853  17.510   6.495   9.925  0.2798  0.2048 -0.2698
  179loPI   GL2 2854  17.320   6.690   9.727 -0.1680 -0.1488  0.1174
  179loPI   C1A 2855  17.779   6.484   9.515  0.1100  0.1071 -0.0203
  179loPI   C2A 2856  17.862   6.663   9.132 -0.0932 -0.1795  0.1789
  179loPI   C3A 2857  17.714   6.641   8.773  0.2352 -0.0664  0.0192
  179loPI   C4A 2858  17.648   6.577   8.367 -0.1567 -0.2042 -0.0086
  179loPI   C5A 2859  17.829   6.783   8.112  0.0693  0.1040  0.1899
  179loPI   C6A 2860  18.216   7.001   7.994 -0.1289  0.2521 -0.2883
  179loPI   C1B 2861  17.389   6.833   9.284 -0.0915 -0.1263 -0.0067
  179loPI   C2B 2862  17.448   7.056   8.880  0.1307  0.0603  0.1149
  179loPI   C3B 2863  17.208   7.203   8.570  0.1072  0.1166  0.0366
  179loPI   C4B 2864  16.829   7.026   8.388 -0.0614 -0.2743 -0.0245
  180loPI    C1 2865  10.369  11.628  10.698  0.1149  0.0304  0.1268
  180loPI    C2 2866  10.245  11.258  10.608  0.4683 -0.0531 -0.0327
  180loPI    C3 2867  10.016  11.497  10.833  0.2272 -0.3598  0.0533
  180loPI   PO4 2868  10.520  11.667  10.393  0.0222 -0.3397  0.1725
  180loPI   GL1 2869  10.606  11.513  10.033  0.1931  0.0749 -0.0027
  180loPI   GL2 2870  10.713  11.673   9.859  0.0268  0.0029  0.3169
  180loPI   C1A 2871  10.343  11.545   9.570  0.3487  0.2017  0.0821
  180loPI   C2A 2872  10.255  11.805   9.240  0.2473  0.0358 -0.1121
  180loPI   C3A 2873  10.333  11.870   8.797 -0.0927 -0.2067  0.1098
  180loPI   C4A 2874  10.594  11.993   8.498  0.0420 -0.0216 -0.1445
  180loPI   C5A 2875  10.928  12.123   8.195  0.0648 -0.1004  0.1038
  180loPI   C6A 2876  11.085  12.436   8.021  0.0314 -0.0489  0.3261
  180loPI   C1B 2877  10.806  11.737   9.389  0.0725  0.2688 -0.1136
  180loPI   C2B 2878  10.865  11.857   9.012 -0.1207 -0.2089  0.2879
  180loPI   C3B 2879  11.011  11.803   8.589 -0.0159 -0.2605  0.0516
  180loPI   C4B 2880  10.927  11.624   8.147  0.2113 -0.1244  0.0463
  181loPI    C1 2881   3.932  12.240  10.483  0.0043  0.0772 -0.0521
  181loPI    C2 2882   3.954  11.872  10.639 -0.0426  0.0809 -0.0367
  181loPI    C3 2883   4.053  12.190  10.862 -0.0450  0.0809 -0.0359
  181loPI   PO4 2884   4.073  12.124  10.143 -0.0257  0.0218 -0.0786
  181loPI   GL1 2885   4.381  11.963   9.803  0.1293 -0.1313  0.2576
  181loPI   GL2 2886   4.658  12.046   9.685  0.1016  0.0629 -0.0547
  181loPI   C1A 2887   4.227  12.078   9.428  0.1572 -0.0461  0.0152
  181loPI   C2A 2888   3.998  12.336   9.259  0.0410 -0.2316  0.1956
  181loPI   C3A 2889   3.888  12.419   8.887 -0.0144  0.1518 -0.0351
  181loPI   C4A 2890   4.068  12.577   8.471  0.2047  0.0186 -0.0892
  181loPI   C5A 2891   3.892  12.507   8.021 -0.1136  0.0141 -0.0127
  181loPI   C6A 2892   3.597  12.324   7.816 -0.3116 -0.0490  0.0595
  181loPI   C1B 2893   4.574  12.412   9.374  0.4027 -0.1297  0.1592
  181loPI   C2B 2894   4.385  12.487   8.914 -0.1373 -0.0600 -0.0778
  181loPI   C3B 2895   4.553  12.612   8.544  0.2219 -0.0541 -0.0606
  181loPI   C4B 2896   4.449  12.761   8.206  0.2367 -0.0002 -0.0141
  182loPI    C1 2897   5.103  12.955  10.620 -0.1649  0.1432  0.1382
  182loPI    C2 2898   4.740  12.835  10.738 -0.1697  0.0334  0.0152
  182loPI    C3 2899   5.003  12.973  11.007 -0.2642  0.0120  0.1194
  182loPI   PO4 2900   5.184  12.775  10.465  0.0553  0.1572 -0.1114
  182loPI   GL1 2901   5.268  12.933  10.010 -0.1064 -0.0651 -0.0050
  182loPI   GL2 2902   5.088  13.144   9.771 -0.2492  0.1903 -0.0969
  182loPI   C1A 2903   5.483  12.777   9.617 -0.0016 -0.0138 -0.2578
  182loPI   C2A 2904   5.632  12.820   9.196  0.0627  0.0369  0.0514
  182loPI   C3A 2905   5.691  12.817   8.731  0.1839 -0.0255  0.4366
  182loPI   C4A 2906   5.600  12.684   8.298 -0.0462 -0.1602  0.1269
  182loPI   C5A 2907   5.572  12.501   7.894  0.2332  0.1150  0.1193
  182loPI   C6A 2908   5.374  12.533   7.474  0.0459  0.2673 -0.1418
  182loPI   C1B 2909   5.224  13.083   9.326 -0.0817  0.2213 -0.0557
  182loPI   C2B 2910   5.333  13.174   8.902  0.2145  0.1030  0.2288
  182loPI   C3B 2911   5.398  13.103   8.409 -0.2676 -0.2319 -0.0894
  182loPI   C4B 2912   5.492  12.995   7.977 -0.3518 -0.1450 -0.0010
  183loPI    C1 2913  10.781  18.010  11.094  0.0321 -0.1632 -0.0216
  183loPI    C2 2914  11.174  18.042  11.025  0.0326 -0.0971  0.0111
  183loPI    C3 2915  11.028  18.120  11.389 -0.0550  0.2383 -0.0928
  183loPI   PO4 2916  10.629  18.050  10.897  0.2294 -0.0297  0.1360
  183loPI   GL1 2917  10.870  18.245  10.597  0.0206 -0.0136  0.0244
  183loPI   GL2 2918  10.601  18.359  10.475  0.0546  0.2343 -0.2658
  183loPI   C1A 2919  11.000  18.164  10.136  0.3140 -0.1123  0.0428
  183loPI   C2A 2920  11.021  18.146   9.785 -0.1381  0.0368  0.2952
  183loPI   C3A 2921  10.899  18.157   9.374 -0.0813 -0.0392 -0.1262
  183loPI   C4A 2922  10.831  18.380   9.017 -0.0113  0.3389 -0.0817
  183loPI   C5A 2923  10.774  18.683   8.723 -0.0890 -0.2132  0.0074
  183loPI   C6A 2924  10.661  19.130   8.575 -0.1568  0.0623 -0.0471
  183loPI   C1B 2925  10.582  18.445  10.012 -0.0705 -0.1645  0.0177
  183loPI   C2B 2926  10.427  18.565   9.666  0.2074 -0.0234  0.1107
  183loPI   C3B 2927  10.468  18.466   9.291 -0.1374  0.1143  0.2333
  183loPI   C4B 2928  10.307  18.416   8.918 -0.1555  0.1043  0.0435
  184loPI    C1 2929  17.506  14.106  10.701 -0.3510  0.1199  0.0718
  184loPI    C2 2930  17.474  14.132  11.099 -0.4375 -0.1774  0.0865
  184loPI    C3 2931  17.319  14.418  10.866 -0.1262  0.1510  0.2729
  184loPI   PO4 2932  17.398  13.788  10.594  0.2329 -0.3312 -0.2465
  184loPI   GL1 2933  17.088  13.805  10.361 -0.1127 -0.4103 -0.2003
  184loPI   GL2 2934  17.119  14.223  10.398 -0.1879  0.0632  0.0858
  184loPI   C1A 2935  17.248  13.729   9.895  0.1521  0.1436 -0.0513
  184loPI   C2A 2936  17.166  13.631   9.410 -0.0657  0.0992 -0.0924
  184loPI   C3A 2937  16.999  13.498   9.070 -0.1162 -0.1773  0.2087
  184loPI   C4A 2938  16.961  13.493   8.604 -0.0992  0.0735 -0.1346
  184loPI   C5A 2939  16.818  13.812   8.293 -0.2590 -0.0197  0.4180
  184loPI   C6A 2940  16.760  14.272   8.320  0.1158  0.0455 -0.4178
  184loPI   C1B 2941  16.869  14.174  10.078 -0.1004  0.1269 -0.0939
  184loPI   C2B 2942  16.817  14.088   9.621  0.1083  0.0039  0.2626
  184loPI   C3B 2943  16.775  14.019   9.221 -0.1811  0.2027  0.0925
  184loPI   C4B 2944  16.749  14.008   8.765  0.2320  0.1621 -0.1871
  185loPI    C1 2945   4.819   9.034  10.653 -0.1672  0.0234  0.0215
  185loPI    C2 2946   5.141   8.978  10.884 -0.1608  0.0879  0.0284
  185loPI    C3 2947   4.850   9.224  11.003 -0.2593 -0.0468  0.0682
  185loPI   PO4 2948   4.866   8.996  10.433 -0.2593  0.0476  0.0559
  185loPI   GL1 2949   4.907   8.914  10.092  0.1013 -0.0823 -0.1641
  185loPI   GL2 2950   4.695   9.225   9.915 -0.0978 -0.2214  0.1993
  185loPI   C1A 2951   4.920   8.565   9.817 -0.1038 -0.1013 -0.0383
  185loPI   C2A 2952   4.683   8.448   9.426 -0.0813  0.0358 -0.3189
  185loPI   C3A 2953   4.569   8.345   8.964 -0.0422 -0.4769 -0.0907
  185loPI   C4A 2954   4.655   8.234   8.534  0.1326 -0.2250 -0.2334
  185loPI   C5A 2955   4.721   8.161   8.100 -0.2580  0.2605 -0.0086
  185loPI   C6A 2956   4.800   8.055   7.666  0.2417  0.1983 -0.0380
  185loPI   C1B 2957   4.842   8.962   9.483 -0.1942  0.0745  0.2435
  185loPI   C2B 2958   4.907   8.829   9.113  0.3094 -0.1308  0.0181
  185loPI   C3B 2959   4.850   8.691   8.640  0.1377 -0.0334 -0.1989
  185loPI   C4B 2960   4.787   8.615   8.297 -0.0462 -0.2465  0.1500
  186loPI    C1 2961   4.104   9.624  10.588 -0.0374 -0.1270  0.2002
  186loPI    C2 2962   3.870   9.300  10.574 -0.1062 -0.0732  0.0924
  186loPI    C3 2963   3.849   9.549  10.886 -0.4216  0.1004 -0.0626
  186loPI   PO4 2964   4.092   9.724  10.266  0.0971  0.2617  0.0345
  186loPI   GL1 2965   4.295   9.837   9.855  0.0439 -0.2042 -0.2833
  186loPI   GL2 2966   4.403   9.644   9.884 -0.0555  0.1197 -0.2707
  186loPI   C1A 2967   4.613   9.988   9.537  0.1555  0.0218 -0.2438
  186loPI   C2A 2968   4.641   9.835   9.139  0.0604 -0.0069  0.0556
  186loPI   C3A 2969   4.639   9.693   8.761  0.2005 -0.1460 -0.1917
  186loPI   C4A 2970   4.625   9.611   8.409 -0.0067  0.2512 -0.2325
  186loPI   C5A 2971   4.894   9.722   8.056  0.1227 -0.2826  0.2185
  186loPI   C6A 2972   5.145   9.364   7.955 -0.1916 -0.0185  0.0534
  186loPI   C1B 2973   4.649   9.486   9.502  0.2312  0.0631  0.2011
  186loPI   C2B 2974   4.826   9.317   9.172  0.1995  0.1415 -0.0891
  186loPI   C3B 2975   4.856   9.167   8.766 -0.3866  0.1151  0.1214
  186loPI   C4B 2976   4.789   9.153   8.398  0.1069  0.3303  0.1012
  187loPI    C1 2977   6.479   4.704  10.576  0.1496  0.0952  0.1878
  187loPI    C2 2978   6.184   4.444  10.507  0.2559  0.0628 -0.1646
  187loPI    C3 2979   6.284   4.538  10.883 -0.1510  0.0188 -0.0403
  187loPI   PO4 2980   6.377   4.916  10.400  0.0839 -0.1287  0.1478
  187loPI   GL1 2981   6.498   5.125  10.007  0.2640  0.0690  0.1657
  187loPI   GL2 2982   6.243   5.068   9.916  0.2160 -0.0060 -0.1295
  187loPI   C1A 2983   6.480   5.023   9.479 -0.1073 -0.0565 -0.0734
  187loPI   C2A 2984   6.483   4.941   9.032 -0.0705 -0.1383 -0.0281
  187loPI   C3A 2985   6.662   5.096   8.710 -0.1860  0.0181  0.2583
  187loPI   C4A 2986   6.935   5.367   8.440 -0.0286 -0.2897 -0.1612
  187loPI   C5A 2987   7.168   5.567   8.187  0.1212  0.2619 -0.0115
  187loPI   C6A 2988   7.392   5.813   8.231 -0.0901 -0.1286 -0.1928
  187loPI   C1B 2989   5.937   4.805   9.621 -0.3615 -0.0730 -0.0351
  187loPI   C2B 2990   5.968   4.583   9.279 -0.1330 -0.1075 -0.0181
  187loPI   C3B 2991   6.071   4.686   8.843 -0.0238 -0.0893 -0.1181
  187loPI   C4B 2992   6.086   4.571   8.482 -0.1300  0.3543 -0.0563
  188loPI    C1 2993   9.632  16.682  10.671  0.0497 -0.2145  0.0617
  188loPI    C2 2994   9.695  16.504  11.024  0.4102 -0.0449  0.0869
  188loPI    C3 2995   9.531  16.868  11.010 -0.0702 -0.2552  0.0490
  188loPI   PO4 2996   9.829  16.580  10.519  0.2020 -0.0499  0.1700
  188loPI   GL1 2997   9.893  16.672  10.107  0.0064 -0.1769 -0.3168
  188loPI   GL2 2998  10.090  16.830  10.115 -0.3080  0.0473  0.4515
  188loPI   C1A 2999   9.831  16.310   9.809 -0.2923  0.0154  0.0270
  188loPI   C2A 3000   9.546  16.189   9.576 -0.2177 -0.0307 -0.0695
  188loPI   C3A 3001   9.360  16.295   9.152  0.0829  0.0082  0.0345
  188loPI   C4A 3002   9.163  16.181   8.868  0.0035 -0.0621 -0.0471
  188loPI   C5A 3003   8.938  16.095   8.538 -0.0906  0.0293  0.1944
  188loPI   C6A 3004   8.939  15.732   8.379 -0.1841 -0.1802  0.2027
  188loPI   C1B 3005  10.153  16.719   9.596 -0.1247  0.1252  0.2985
  188loPI   C2B 3006  10.281  16.614   9.219 -0.3522  0.3868  0.2558
  188loPI   C3B 3007  10.110  16.596   8.810 -0.2399 -0.2158  0.1728
  188loPI   C4B 3008   9.970  16.403   8.404  0.1741  0.1109 -0.0807
  189loPI    C1 3009   9.737   1.225  11.234  0.0398  0.1160  0.0409
  189loPI    C2 3010   9.366   1.343  11.142 -0.0330  0.0364  0.2273
  189loPI    C3 3011   9.596   1.570  11.378  0.0639  0.1204  0.0542
  189loPI   PO4 3012   9.762   0.951  11.078  0.2175 -0.4286 -0.0379
  189loPI   GL1 3013   9.926   0.703  10.775  0.1222  0.0458 -0.1851
  189loPI   GL2 3014   9.663   0.667  10.583  0.3067 -0.0130  0.0811
  189loPI   C1A 3015  10.096   0.693  10.339  0.0299 -0.1755 -0.0760
  189loPI   C2A 3016  10.025   0.833   9.891 -0.0180  0.0083  0.0093
  189loPI   C3A 3017   9.991   0.861   9.468  0.2396 -0.0062  0.1207
  189loPI   C4A 3018   9.965   0.863   9.036  0.0669 -0.0149 -0.0745
  189loPI   C5A 3019  10.126   0.695   8.702  0.0254  0.2331  0.0901
  189loPI   C6A 3020  10.373   0.520   8.367 -0.2846  0.0775  0.3214
  189loPI   C1B 3021   9.600   0.477  10.170 -0.1784 -0.0712  0.0032
  189loPI   C2B 3022   9.409   0.453   9.762  0.0422 -0.0781  0.2659
  189loPI   C3B 3023   9.396   0.285   9.394  0.1086  0.1914  0.1143
  189loPI   C4B 3024   9.251   0.250   9.020 -0.1443  0.2611  0.0389
  190loPI    C1 3025   7.912  16.320  10.501 -0.0065 -0.1397 -0.1157
  190loPI    C2 3026   8.085  15.966  10.435  0.0685 -0.1358  0.0541
  190loPI    C3 3027   8.186  16.180  10.757  0.1605  0.1257 -0.1451
  190loPI   PO4 3028   7.895  16.483  10.354 -0.2963 -0.0527  0.1689
  190loPI   GL1 3029   8.039  16.750   9.988 -0.0486  0.1384  0.1172
  190loPI   GL2 3030   7.964  17.042   9.836 -0.0940 -0.3364  0.1506
  190loPI   C1A 3031   8.184  16.607   9.571 -0.1528 -0.0826 -0.0376
  190loPI   C2A 3032   8.273  16.588   9.132  0.2739  0.0369 -0.1949
  190loPI   C3A 3033   8.255  16.560   8.752 -0.4248 -0.0487 -0.0344
  190loPI   C4A 3034   8.463  16.395   8.401 -0.0197  0.0106  0.0136
  190loPI   C5A 3035   8.727  16.623   8.055 -0.1446  0.0691 -0.2876
  190loPI   C6A 3036   9.012  16.928   7.815  0.2193 -0.0292 -0.0671
  190loPI   C1B 3037   8.043  17.049   9.364  0.1076  0.0205 -0.1922
  190loPI   C2B 3038   8.020  17.115   8.978 -0.0556 -0.0821 -0.0797
  190loPI   C3B 3039   7.956  16.963   8.619 -0.3105  0.2407 -0.1021
  190loPI   C4B 3040   7.753  16.946   8.157 -0.0458  0.0150  0.0246
  191loPI    C1 3041  13.470   8.855  10.719 -0.0520 -0.0398 -0.1486
  191loPI    C2 3042  13.328   8.935  11.084  0.2215  0.0965 -0.0693
  191loPI    C3 3043  13.274   8.573  10.923 -0.1656  0.1288 -0.0219
  191loPI   PO4 3044  13.730   8.943  10.638 -0.0982 -0.0374  0.0476
  191loPI   GL1 3045  13.900   8.863  10.328  0.2942 -0.1808  0.1462
  191loPI   GL2 3046  14.033   8.653  10.164  0.1967  0.4058 -0.2125
  191loPI   C1A 3047  13.714   8.918   9.879  0.0102  0.1594 -0.3170
  191loPI   C2A 3048  13.548   9.052   9.442  0.1944  0.0594  0.0468
  191loPI   C3A 3049  13.619   9.036   8.951  0.0855  0.0384 -0.2221
  191loPI   C4A 3050  13.508   8.820   8.620  0.2818  0.1616  0.0146
  191loPI   C5A 3051  13.450   8.941   8.225 -0.2953  0.0520 -0.1148
  191loPI   C6A 3052  13.054   9.104   8.133  0.0920 -0.0876  0.3473
  191loPI   C1B 3053  14.144   8.733   9.783  0.2017  0.3649  0.1443
  191loPI   C2B 3054  13.946   8.619   9.334 -0.0929  0.0554 -0.0163
  191loPI   C3B 3055  13.601   8.494   9.186  0.1046 -0.1143 -0.0865
  191loPI   C4B 3056  13.291   8.465   8.926 -0.2792 -0.2296 -0.2833
  192loPI    C1 3057   3.594  17.552  10.655 -0.1132  0.1342 -0.0623
  192loPI    C2 3058   3.686  17.941  10.678  0.2144  0.0485  0.1447
  192loPI    C3 3059   3.581  17.740  11.008 -0.2716  0.0316 -0.0122
  192loPI   PO4 3060   3.409  17.468  10.472 -0.1498  0.1246 -0.0510
  192loPI   GL1 3061   3.230  17.640  10.089  0.4216  0.2008 -0.1479
  192loPI   GL2 3062   2.968  17.503  10.033 -0.1043  0.2472  0.0301
  192loPI   C1A 3063   3.458  17.655   9.676  0.0177 -0.0116  0.0510
  192loPI   C2A 3064   3.543  17.660   9.230 -0.0620  0.2316  0.0310
  192loPI   C3A 3065   3.697  17.774   8.848 -0.1040 -0.1358  0.1856
  192loPI   C4A 3066   3.477  17.808   8.541  0.0674 -0.1256 -0.1144
  192loPI   C5A 3067   3.045  18.026   8.305 -0.2888 -0.1065 -0.1878
  192loPI   C6A 3068   2.560  18.173   8.266 -0.0170  0.1455 -0.0144
  192loPI   C1B 3069   2.985  17.437   9.598 -0.0596  0.0691 -0.0749
  192loPI   C2B 3070   3.105  17.399   9.161 -0.1975  0.0444 -0.2151
  192loPI   C3B 3071   3.105  17.537   8.697 -0.0111  0.0456  0.0742
  192loPI   C4B 3072   3.167  17.542   8.259  0.1105 -0.2672  0.2532
  193loPI    C1 3073   2.100   4.145  10.783  0.0377 -0.0069  0.1108
  193loPI    C2 3074   2.077   4.533  10.689  0.0265 -0.0009  0.1380
  193loPI    C3 3075   2.342   4.410  10.961  0.1681 -0.0396 -0.0154
  193loPI   PO4 3076   2.047   4.008  10.488 -0.0567  0.0010  0.0456
  193loPI   GL1 3077   2.096   4.054   9.970 -0.0127  0.0568 -0.2306
  193loPI   GL2 3078   2.425   3.989   9.857 -0.0123  0.3270  0.2506
  193loPI   C1A 3079   2.204   4.367   9.601 -0.0997 -0.0203  0.1549
  193loPI   C2A 3080   2.232   4.402   9.231 -0.1989 -0.1352 -0.0311
  193loPI   C3A 3081   2.210   4.529   8.890 -0.0291  0.1362 -0.0340
  193loPI   C4A 3082   2.304   4.471   8.481 -0.0212  0.2474  0.0951
  193loPI   C5A 3083   2.639   4.421   8.151  0.0740  0.0055  0.0882
  193loPI   C6A 3084   3.082   4.324   7.969 -0.0498 -0.0670  0.0899
  193loPI   C1B 3085   2.555   4.070   9.370 -0.2053  0.0062  0.2499
  193loPI   C2B 3086   2.493   4.098   8.884 -0.1648 -0.1756 -0.1046
  193loPI   C3B 3087   2.523   3.995   8.537 -0.0683  0.0818 -0.0647
  193loPI   C4B 3088   2.449   3.915   8.108 -0.1355 -0.4112  0.0847
  194loPI    C1 3089  14.624   5.603  10.728  0.1718  0.0235  0.0100
  194loPI    C2 3090  14.768   5.872  10.987  0.1840  0.0923 -0.0680
  194loPI    C3 3091  14.495   5.606  11.107  0.2165  0.1004  0.0248
  194loPI   PO4 3092  14.553   5.801  10.510 -0.0846 -0.3115 -0.0793
  194loPI   GL1 3093  14.584   5.867  10.037  0.1888  0.1386 -0.1978
  194loPI   GL2 3094  14.446   6.339   9.903  0.1086  0.4033 -0.0526
  194loPI   C1A 3095  14.617   5.903   9.638  0.0976 -0.2112  0.1126
  194loPI   C2A 3096  14.459   5.888   9.241 -0.0187 -0.0363 -0.0665
  194loPI   C3A 3097  14.397   6.110   8.856  0.0252 -0.2083  0.0982
  194loPI   C4A 3098  14.092   6.425   8.874 -0.2205  0.1079 -0.3151
  194loPI   C5A 3099  13.663   6.429   8.830  0.0342 -0.0486  0.1864
  194loPI   C6A 3100  13.302   6.641   8.562  0.0332  0.2859 -0.1159
  194loPI   C1B 3101  14.471   6.411   9.428  0.1073  0.0045  0.0171
  194loPI   C2B 3102  14.550   6.642   9.052 -0.2044  0.0231 -0.0067
  194loPI   C3B 3103  14.559   6.717   8.545  0.1220 -0.1756 -0.0786
  194loPI   C4B 3104  14.271   6.796   8.198  0.2976  0.1140 -0.0056
  195loPI    C1 3105  13.089  11.312  10.486 -0.2157 -0.1086 -0.0189
  195loPI    C2 3106  13.392  11.119  10.662 -0.1240  0.1131  0.0707
  195loPI    C3 3107  13.165  11.370  10.875 -0.1453  0.2221 -0.0794
  195loPI   PO4 3108  13.204  11.307  10.225 -0.1426 -0.2284  0.0326
  195loPI   GL1 3109  13.476  11.187   9.933  0.0477 -0.0024 -0.0376
  195loPI   GL2 3110  13.735  11.381   9.785  0.1769 -0.1047 -0.0679
  195loPI   C1A 3111  13.505  10.972   9.564 -0.0061 -0.0573  0.0938
  195loPI   C2A 3112  13.542  10.852   9.178  0.2754 -0.0407  0.0570
  195loPI   C3A 3113  13.511  10.941   8.769 -0.4038  0.0675 -0.0794
  195loPI   C4A 3114  13.467  11.002   8.374  0.3433  0.2595 -0.1353
  195loPI   C5A 3115  13.482  11.084   7.925 -0.1719  0.0417 -0.1225
  195loPI   C6A 3116  13.522  10.878   7.636 -0.0199  0.0079  0.1722
  195loPI   C1B 3117  13.692  11.426   9.392  0.0135  0.0769 -0.2429
  195loPI   C2B 3118  13.632  11.365   8.941 -0.2555 -0.1153 -0.2495
  195loPI   C3B 3119  13.638  11.490   8.594  0.0697  0.1413  0.1079
  195loPI   C4B 3120  13.513  11.654   8.192  0.1669 -0.4536  0.1306
  196loPI    C1 3121  13.187  12.770  10.645 -0.1056 -0.0759  0.0215
  196loPI    C2 3122  12.965  12.685  10.966  0.0774 -0.2202  0.1114
  196loPI    C3 3123  13.333  12.532  10.931  0.1719  0.0339 -0.0258
  196loPI   PO4 3124  13.122  13.037  10.521  0.1244  0.2299  0.0882
  196loPI   GL1 3125  12.867  13.097  10.097  0.0316 -0.2336  0.0927
  196loPI   GL2 3126  12.712  13.423  10.101 -0.2252 -0.0578  0.0691
  196loPI   C1A 3127  12.868  13.053   9.669  0.1003 -0.0326 -0.0534
  196loPI   C2A 3128  12.657  13.079   9.273 -0.0792 -0.0694 -0.0669
  196loPI   C3A 3129  12.438  12.947   8.936 -0.0611  0.2786  0.2950
  196loPI   C4A 3130  12.411  13.066   8.527 -0.0642  0.0546 -0.3289
  196loPI   C5A 3131  12.741  13.000   8.235 -0.3098  0.3091  0.0530
  196loPI   C6A 3132  13.167  12.972   8.167  0.1710  0.0403  0.1574
  196loPI   C1B 3133  12.626  13.539   9.721 -0.0536 -0.1680  0.2420
  196loPI   C2B 3134  12.504  13.565   9.258 -0.0856  0.3384  0.1697
  196loPI   C3B 3135  12.478  13.744   8.978 -0.2402 -0.1746  0.0648
  196loPI   C4B 3136  12.569  13.687   8.528 -0.1621  0.0677  0.0195
  197loPI    C1 3137   8.223  13.731  10.195 -0.3151  0.2269  0.1913
  197loPI    C2 3138   7.979  13.600  10.484 -0.1481 -0.0395  0.2143
  197loPI    C3 3139   8.360  13.687  10.568 -0.1654  0.1259  0.1252
  197loPI   PO4 3140   8.186  13.607  10.044 -0.0793 -0.4041 -0.0882
  197loPI   GL1 3141   8.247  13.295   9.850 -0.3294  0.2090  0.1419
  197loPI   GL2 3142   8.090  12.994   9.789  0.0172  0.0962  0.0632
  197loPI   C1A 3143   8.311  13.533   9.447  0.2664  0.1027  0.0808
  197loPI   C2A 3144   8.377  13.569   9.010  0.1428 -0.3010  0.1391
  197loPI   C3A 3145   8.475  13.542   8.621  0.1833 -0.2640 -0.1938
  197loPI   C4A 3146   8.546  13.302   8.195 -0.1209  0.0666  0.0978
  197loPI   C5A 3147   8.450  12.979   7.907 -0.3017 -0.0958  0.0362
  197loPI   C6A 3148   8.054  12.693   7.901 -0.0629 -0.0596  0.2933
  197loPI   C1B 3149   8.340  12.960   9.422  0.1607 -0.1879  0.1616
  197loPI   C2B 3150   8.400  13.075   8.994 -0.0090 -0.1322  0.0395
  197loPI   C3B 3151   8.549  12.980   8.692  0.1911  0.1621  0.0974
  197loPI   C4B 3152   8.681  12.816   8.353 -0.1271 -0.1567 -0.4599
  198loPI    C1 3153   3.083  12.017  10.348 -0.2174 -0.1757 -0.1639
  198loPI    C2 3154   2.871  11.766  10.575  0.1902 -0.2393  0.1597
  198loPI    C3 3155   3.067  12.071  10.744 -0.0589  0.1289 -0.1956
  198loPI   PO4 3156   3.016  11.924  10.125 -0.0205 -0.0905  0.2093
  198loPI   GL1 3157   3.244  11.745   9.760 -0.3852  0.2047  0.1149
  198loPI   GL2 3158   3.374  12.077   9.677 -0.3480 -0.1764  0.1777
  198loPI   C1A 3159   3.226  11.860   9.268 -0.0662  0.1263 -0.1212
  198loPI   C2A 3160   3.154  11.965   8.840  0.1152 -0.0187 -0.0013
  198loPI   C3A 3161   3.187  11.944   8.421  0.0661  0.1271 -0.0111
  198loPI   C4A 3162   3.289  12.092   8.054  0.1014 -0.3119  0.0974
  198loPI   C5A 3163   3.484  11.678   7.820  0.0740 -0.1038 -0.3263
  198loPI   C6A 3164   3.801  11.406   7.890 -0.0201 -0.0931 -0.0992
  198loPI   C1B 3165   3.478  12.261   9.376 -0.0322 -0.1517 -0.2909
  198loPI   C2B 3166   3.387  12.373   8.925  0.1508 -0.1802  0.0959
  198loPI   C3B 3167   3.373  12.450   8.415  0.0812  0.0895 -0.1015
  198loPI   C4B 3168   3.146  12.621   8.034 -0.3378  0.2900 -0.2644
  199loPI    C1 3169  10.835  10.589  10.182  0.2398 -0.0218 -0.1490
  199loPI    C2 3170  10.598  10.658  10.497 -0.0155 -0.0688 -0.3280
  199loPI    C3 3171  10.965  10.816  10.485  0.0363 -0.1530  0.0394
  199loPI   PO4 3172  10.633  10.521   9.981  0.1009 -0.2788 -0.0648
  199loPI   GL1 3173  10.632  10.670   9.659  0.3130  0.1761  0.0797
  199loPI   GL2 3174  10.750  11.031   9.811 -0.2670 -0.0224  0.1555
  199loPI   C1A 3175  10.626  10.378   9.316 -0.1271 -0.0238 -0.1082
  199loPI   C2A 3176  10.661   9.907   9.138  0.3209 -0.4310  0.0419
  199loPI   C3A 3177  11.011   9.837   8.822 -0.1312 -0.3491 -0.0288
  199loPI   C4A 3178  11.351   9.715   8.505 -0.1960  0.0448 -0.0784
  199loPI   C5A 3179  11.478   9.719   8.058  0.1256  0.0618 -0.0661
  199loPI   C6A 3180  11.397   9.504   7.718  0.2651 -0.1924  0.1370
  199loPI   C1B 3181  10.699  11.195   9.394 -0.0399  0.1559  0.1137
  199loPI   C2B 3182  10.739  11.424   8.887 -0.2845  0.0455 -0.0127
  199loPI   C3B 3183  10.945  11.291   8.523 -0.3019  0.0515 -0.4436
  199loPI   C4B 3184  10.740  11.162   8.146 -0.0065  0.3523  0.1380
  200loPI    C1 3185   5.809  18.097  10.485 -0.0867 -0.0156 -0.0854
  200loPI    C2 3186   5.481  17.963  10.299 -0.0204 -0.2215 -0.0563
  200loPI    C3 3187   5.460  18.082  10.680 -0.1016 -0.0459 -0.1144
  200loPI   PO4 3188   6.000  17.926  10.289  0.2095 -0.0914  0.3153
  200loPI   GL1 3189   6.109  17.952   9.881 -0.3141 -0.0535 -0.0647
  200loPI   GL2 3190   6.350  17.863   9.922 -0.1116 -0.1258 -0.0274
  200loPI   C1A 3191   5.928  17.954   9.406  0.1289  0.1542 -0.0354
  200loPI   C2A 3192   6.022  17.973   8.940  0.0202  0.1692  0.2739
  200loPI   C3A 3193   5.955  17.817   8.458 -0.1473 -0.1889 -0.1340
  200loPI   C4A 3194   5.925  17.867   8.042 -0.1152 -0.0424 -0.1209
  200loPI   C5A 3195   5.583  17.770   7.787 -0.1857 -0.2130 -0.0610
  200loPI   C6A 3196   5.401  17.795   7.369  0.0670  0.3329  0.1600
  200loPI   C1B 3197   6.359  18.180   9.497 -0.0481 -0.1998 -0.1045
  200loPI   C2B 3198   6.330  18.321   9.076 -0.0086  0.0807 -0.2748
  200loPI   C3B 3199   6.471  18.199   8.807 -0.0768 -0.0142  0.0998
  200loPI   C4B 3200   6.473  17.941   8.418  0.1108 -0.0054 -0.4667
  201loPI    C1 3201   9.003   9.693  10.787 -0.0254 -0.2962 -0.0272
  201loPI    C2 3202   9.379   9.782  10.890 -0.0840  0.0641 -0.1114
  201loPI    C3 3203   9.248   9.404  10.916  0.2988 -0.0747 -0.1368
  201loPI   PO4 3204   9.006   9.864  10.564 -0.1490 -0.1746 -0.0915
  201loPI   GL1 3205   8.914   9.641  10.183  0.1360  0.1156 -0.0326
  201loPI   GL2 3206   8.639   9.505  10.025 -0.0048 -0.2979  0.2207
  201loPI   C1A 3207   9.309   9.734   9.850 -0.3368  0.0720 -0.0451
  201loPI   C2A 3208   9.462   9.793   9.498  0.1697  0.1996  0.1587
  201loPI   C3A 3209   9.774   9.979   9.117 -0.2609  0.2605  0.2734
  201loPI   C4A 3210   9.764  10.133   8.703 -0.0827  0.0787  0.0716
  201loPI   C5A 3211   9.703  10.431   8.447 -0.1600  0.0605 -0.2530
  201loPI   C6A 3212   9.589  10.754   8.175 -0.1152 -0.0570 -0.2365
  201loPI   C1B 3213   8.594   9.493   9.588  0.1843 -0.1546 -0.0210
  201loPI   C2B 3214   8.431   9.459   9.196 -0.1301 -0.1972 -0.0895
  201loPI   C3B 3215   8.471   9.574   8.800 -0.0086 -0.0551 -0.1971
  201loPI   C4B 3216   8.559   9.683   8.383  0.0960 -0.3636  0.1298
  202loPI    C1 3217  15.376   2.625  10.360  0.0581  0.2061 -0.1343
  202loPI    C2 3218  15.329   2.697  10.750  0.1161 -0.0995 -0.0692
  202loPI    C3 3219  15.659   2.513  10.619  0.0306 -0.1293 -0.2452
  202loPI   PO4 3220  15.140   2.454  10.292 -0.1231 -0.0037 -0.0138
  202loPI   GL1 3221  14.978   2.344   9.953 -0.0239 -0.0682  0.1846
  202loPI   GL2 3222  14.704   2.140  10.033  0.1599  0.2127 -0.3356
  202loPI   C1A 3223  15.046   2.491   9.664  0.0246 -0.1845  0.0939
  202loPI   C2A 3224  14.963   2.429   9.252 -0.0353  0.2805  0.1505
  202loPI   C3A 3225  15.292   2.377   8.965 -0.2239  0.0719 -0.1435
  202loPI   C4A 3226  15.499   2.523   8.661 -0.1643  0.1034 -0.1003
  202loPI   C5A 3227  15.536   2.842   8.486  0.1580 -0.0254 -0.1584
  202loPI   C6A 3228  15.804   2.917   8.117 -0.1113 -0.1460 -0.2761
  202loPI   C1B 3229  14.844   1.911   9.662 -0.0508 -0.1313 -0.0819
  202loPI   C2B 3230  14.915   1.936   9.249  0.0618  0.1826  0.0734
  202loPI   C3B 3231  14.834   1.859   8.782 -0.4495 -0.1188 -0.0998
  202loPI   C4B 3232  14.616   2.066   8.387 -0.2100  0.0196  0.2672
  203loPI    C1 3233   6.886   8.835  10.725  0.1779 -0.0747  0.1026
  203loPI    C2 3234   6.969   9.090  11.022 -0.0201  0.1146 -0.0015
  203loPI    C3 3235   7.175   9.107  10.679  0.1681 -0.0647  0.1000
  203loPI   PO4 3236   6.624   8.760  10.673 -0.0202  0.3721  0.1791
  203loPI   GL1 3237   6.544   8.716  10.271 -0.1659  0.2099  0.2242
  203loPI   GL2 3238   6.367   9.010  10.082  0.0641 -0.0960 -0.2393
  203loPI   C1A 3239   6.477   8.610   9.761  0.1308  0.0484 -0.1261
  203loPI   C2A 3240   6.579   8.518   9.316  0.0677  0.2835  0.1974
  203loPI   C3A 3241   6.471   8.437   8.943  0.0949 -0.0765 -0.1473
  203loPI   C4A 3242   6.513   8.457   8.491 -0.1882  0.0492 -0.3626
  203loPI   C5A 3243   6.456   8.503   8.054  0.0382  0.1991  0.1364
  203loPI   C6A 3244   6.526   8.640   7.584  0.0321  0.1042 -0.3587
  203loPI   C1B 3245   6.262   9.019   9.637 -0.2501  0.2462 -0.1556
  203loPI   C2B 3246   6.358   8.964   9.169 -0.1590 -0.0542 -0.1639
  203loPI   C3B 3247   6.355   8.898   8.812  0.3813 -0.1567  0.2812
  203loPI   C4B 3248   6.477   8.906   8.403  0.0828  0.0393 -0.5036
  204loPI    C1 3249   3.819  14.403  10.275  0.0621 -0.1943  0.2376
  204loPI    C2 3250   4.016  14.711  10.112 -0.1530 -0.3228 -0.2856
  204loPI    C3 3251   4.219  14.401  10.263  0.0547 -0.1085 -0.1169
  204loPI   PO4 3252   3.679  14.276  10.130  0.0237 -0.1851  0.0586
  204loPI   GL1 3253   3.518  14.358   9.599 -0.3570  0.0995  0.1520
  204loPI   GL2 3254   3.749  14.554   9.717  0.4248 -0.1221  0.2742
  204loPI   C1A 3255   3.484  14.355   9.108 -0.1361  0.0295 -0.0269
  204loPI   C2A 3256   3.655  14.314   8.602 -0.0060 -0.2257 -0.1112
  204loPI   C3A 3257   3.905  14.583   8.371 -0.0464  0.0282 -0.3754
  204loPI   C4A 3258   4.198  14.815   8.144 -0.0450  0.1288  0.1105
  204loPI   C5A 3259   4.664  14.787   8.039  0.1215 -0.2913 -0.0933
  204loPI   C6A 3260   4.898  14.593   8.327  0.1701 -0.1976  0.2025
  204loPI   C1B 3261   4.024  14.796   9.657 -0.1471  0.1334  0.1705
  204loPI   C2B 3262   4.157  14.799   9.159  0.1133 -0.0195  0.2159
  204loPI   C3B 3263   4.054  14.929   8.718 -0.1238  0.0529 -0.0624
  204loPI   C4B 3264   3.801  15.051   8.276  0.1318 -0.1610 -0.0289
  205loPI    C1 3265   4.086   6.551  10.340 -0.0934  0.0135 -0.1302
  205loPI    C2 3266   3.818   6.549  10.637 -0.0983 -0.1080 -0.1348
  205loPI    C3 3267   4.168   6.361  10.682 -0.0424 -0.0093 -0.1549
  205loPI   PO4 3268   3.973   6.590  10.086  0.1471 -0.2240  0.1204
  205loPI   GL1 3269   3.690   6.251   9.834  0.0135 -0.2703  0.1251
  205loPI   GL2 3270   3.601   6.330   9.563 -0.4638 -0.3834 -0.0145
  205loPI   C1A 3271   3.983   5.899   9.522 -0.1326 -0.2068 -0.3713
  205loPI   C2A 3272   3.909   5.907   9.160  0.0000 -0.0305  0.4453
  205loPI   C3A 3273   3.843   5.874   8.748  0.1261 -0.0026 -0.0945
  205loPI   C4A 3274   3.820   5.859   8.349  0.2232  0.3238 -0.1204
  205loPI   C5A 3275   3.580   5.801   8.060  0.0584  0.0389 -0.0413
  205loPI   C6A 3276   3.616   6.055   7.647 -0.2724 -0.0013 -0.2335
  205loPI   C1B 3277   3.646   6.390   9.189  0.0326  0.3887 -0.1708
  205loPI   C2B 3278   3.626   6.477   8.741 -0.0843  0.0343  0.1396
  205loPI   C3B 3279   3.798   6.455   8.463  0.0198 -0.0213  0.1357
  205loPI   C4B 3280   4.241   6.630   8.389 -0.2031  0.1098 -0.1060
  206loPI    C1 3281  13.708   0.723  10.521 -0.0685 -0.0874 -0.3017
  206loPI    C2 3282  13.727   0.328  10.576 -0.2609 -0.0660 -0.0623
  206loPI    C3 3283  13.797   0.576  10.882  0.0882  0.0937 -0.2646
  206loPI   PO4 3284  13.800   0.782  10.335 -0.3723  0.0423  0.2168
  206loPI   GL1 3285  13.763   0.959   9.970  0.2097 -0.0458  0.0356
  206loPI   GL2 3286  13.491   0.955   9.904 -0.0149 -0.1220 -0.0875
  206loPI   C1A 3287  13.981   1.052   9.546  0.1625 -0.4403  0.0209
  206loPI   C2A 3288  14.051   1.211   9.196 -0.0045  0.0688 -0.1360
  206loPI   C3A 3289  14.174   1.066   8.871 -0.1245 -0.0262  0.3589
  206loPI   C4A 3290  14.104   0.640   8.648 -0.0557  0.1308 -0.0809
  206loPI   C5A 3291  14.244   0.348   8.295  0.0168 -0.0455 -0.1902
  206loPI   C6A 3292  14.375  -0.039   8.138 -0.0207 -0.2680  0.0858
  206loPI   C1B 3293  13.522   0.855   9.480  0.1699 -0.2939 -0.3322
  206loPI   C2B 3294  13.406   0.554   9.115  0.1380  0.2035  0.0018
  206loPI   C3B 3295  13.268   0.458   8.717 -0.1128  0.0032  0.1693
  206loPI   C4B 3296  13.160   0.496   8.327 -0.1899  0.0087 -0.0928
  207loPI    C1 3297  16.544   1.293  10.307  0.0209  0.1461  0.1167
  207loPI    C2 3298  16.937   1.346  10.255  0.0023  0.1139 -0.0643
  207loPI    C3 3299  16.749   1.525  10.559  0.1471  0.1711 -0.0078
  207loPI   PO4 3300  16.374   1.381  10.154 -0.1146 -0.0807 -0.3516
  207loPI   GL1 3301  16.120   1.587   9.934  0.2731 -0.0476 -0.0148
  207loPI   GL2 3302  16.309   1.786   9.771 -0.1843 -0.1218 -0.1060
  207loPI   C1A 3303  16.132   1.389   9.526  0.1641  0.0760  0.1503
  207loPI   C2A 3304  16.494   1.457   9.241  0.0445  0.0139 -0.1180
  207loPI   C3A 3305  16.600   1.454   8.783  0.3134  0.2205  0.1498
  207loPI   C4A 3306  16.718   1.475   8.293  0.0982 -0.1141 -0.1024
  207loPI   C5A 3307  16.968   1.221   7.972  0.0004  0.0426  0.0982
  207loPI   C6A 3308  17.078   1.026   7.602  0.0468  0.2810 -0.1081
  207loPI   C1B 3309  16.292   1.901   9.376 -0.1576 -0.0668 -0.0589
  207loPI   C2B 3310  16.365   1.888   8.941  0.1067  0.0011 -0.0223
  207loPI   C3B 3311  16.463   1.893   8.508 -0.2263  0.1129 -0.0803
  207loPI   C4B 3312  16.402   1.976   8.071 -0.1140  0.0977 -0.3568
  208loPI    C1 3313   3.434  11.025  10.454  0.1147 -0.0978 -0.1355
  208loPI    C2 3314   3.353  11.206  10.802  0.2691 -0.1263 -0.0838
  208loPI    C3 3315   3.536  10.850  10.799  0.2121 -0.1554 -0.1930
  208loPI   PO4 3316   3.109  11.001  10.328  0.1895  0.2553  0.0922
  208loPI   GL1 3317   2.927  10.796   9.963  0.2208  0.1011 -0.0376
  208loPI   GL2 3318   2.954  11.024   9.811 -0.0455  0.4361 -0.1956
  208loPI   C1A 3319   3.121  10.580   9.674  0.1524  0.0011 -0.2707
  208loPI   C2A 3320   3.194  10.513   9.276 -0.0695 -0.3029 -0.0995
  208loPI   C3A 3321   3.425  10.400   8.859  0.0907  0.0929  0.1795
  208loPI   C4A 3322   3.818  10.316   8.636 -0.5019 -0.1017  0.2440
  208loPI   C5A 3323   3.966  10.197   8.268  0.0394  0.3006  0.1663
  208loPI   C6A 3324   4.024  10.326   7.875  0.2085  0.1601 -0.0903
  208loPI   C1B 3325   3.021  11.291   9.471  0.0654 -0.1382 -0.1511
  208loPI   C2B 3326   3.128  11.438   9.046  0.1528  0.3567  0.0473
  208loPI   C3B 3327   3.286  11.458   8.609  0.5945 -0.0154 -0.3982
  208loPI   C4B 3328   3.124  11.520   8.132  0.1571  0.1409 -0.2148
  209loPI    C1 3329  12.491   7.196  11.011 -0.0054  0.1225  0.1058
  209loPI    C2 3330  12.196   7.025  11.220  0.0915 -0.1278  0.0411
  209loPI    C3 3331  12.523   7.157  11.408  0.0208 -0.0214  0.0901
  209loPI   PO4 3332  12.336   7.437  10.834  0.0875 -0.1294  0.1038
  209loPI   GL1 3333  12.347   7.486  10.445  0.0212 -0.1418  0.0335
  209loPI   GL2 3334  12.503   7.193  10.279  0.0995 -0.1755  0.1814
  209loPI   C1A 3335  12.363   7.815  10.190 -0.0425 -0.0632 -0.1058
  209loPI   C2A 3336  12.263   7.821   9.772 -0.3972 -0.1965 -0.1004
  209loPI   C3A 3337  12.214   7.652   9.300  0.1415  0.1351 -0.0510
  209loPI   C4A 3338  12.211   7.593   8.878 -0.5086  0.1708 -0.3709
  209loPI   C5A 3339  12.139   7.588   8.384  0.1469  0.0257 -0.0703
  209loPI   C6A 3340  11.819   7.548   7.996  0.0385  0.0013 -0.1048
  209loPI   C1B 3341  12.797   7.441  10.109 -0.1057 -0.1700 -0.1849
  209loPI   C2B 3342  13.152   7.411   9.840  0.1064 -0.2510 -0.0879
  209loPI   C3B 3343  13.502   7.358   9.643  0.2246 -0.0468 -0.1510
  209loPI   C4B 3344  13.741   7.211   9.276 -0.2213  0.0133  0.1359
  210loPI    C1 3345   0.335  11.978  10.447  0.0559  0.2218  0.0064
  210loPI    C2 3346   0.444  11.849  10.810  0.3992  0.1351 -0.1246
  210loPI    C3 3347   0.056  11.880  10.717  0.3090 -0.1793  0.1302
  210loPI   PO4 3348   0.529  11.957  10.348  0.0489  0.0653  0.0104
  210loPI   GL1 3349   0.457  12.107   9.978 -0.2609 -0.1750  0.1636
  210loPI   GL2 3350   0.317  11.786   9.955 -0.1859  0.0139 -0.1874
  210loPI   C1A 3351   0.697  12.009   9.613 -0.1544 -0.2570  0.2152
  210loPI   C2A 3352   0.666  12.064   9.149  0.0233  0.2498  0.0718
  210loPI   C3A 3353   0.645  12.120   8.726 -0.1310  0.1681  0.0310
  210loPI   C4A 3354   0.405  12.371   8.475 -0.3390  0.0381  0.0036
  210loPI   C5A 3355   0.366  12.423   8.024  0.0894 -0.4982  0.1556
  210loPI   C6A 3356   0.323  12.719   7.781 -0.0419  0.2568 -0.1546
  210loPI   C1B 3357   0.313  11.772   9.463 -0.1788  0.1377  0.0387
  210loPI   C2B 3358   0.171  12.072   9.056  0.0078 -0.1113 -0.0064
  210loPI   C3B 3359   0.086  12.062   8.673 -0.0355 -0.1683 -0.0817
  210loPI   C4B 3360  -0.115  12.277   8.332  0.2853  0.1462  0.3468
  211loPI    C1 3361  12.517   6.742  10.400  0.0269  0.0589 -0.0224
  211loPI    C2 3362  12.307   6.831  10.729  0.0969  0.1473 -0.0012
  211loPI    C3 3363  12.606   6.567  10.748  0.0445  0.0866 -0.0130
  211loPI   PO4 3364  12.291   6.582  10.208  0.1506 -0.0103 -0.4722
  211loPI   GL1 3365  12.033   6.543   9.862 -0.2592  0.1101 -0.2187
  211loPI   GL2 3366  12.022   6.272   9.739 -0.2457 -0.0227  0.2972
  211loPI   C1A 3367  11.897   7.067   9.803 -0.2227 -0.0970 -0.3601
  211loPI   C2A 3368  11.850   7.397   9.525  0.0495  0.1415  0.1949
  211loPI   C3A 3369  11.719   7.535   9.132  0.1333  0.1851 -0.0889
  211loPI   C4A 3370  11.706   7.505   8.678  0.1922 -0.1307 -0.3351
  211loPI   C5A 3371  11.455   7.350   8.353  0.0203  0.1643 -0.0766
  211loPI   C6A 3372  11.407   7.185   7.956 -0.2889 -0.2157  0.3390
  211loPI   C1B 3373  12.212   6.106   9.352  0.0762 -0.0275  0.0911
  211loPI   C2B 3374  12.077   5.762   9.029 -0.1308 -0.0593 -0.0139
  211loPI   C3B 3375  11.840   5.664   8.691 -0.1338  0.1222 -0.3397
  211loPI   C4B 3376  11.520   5.733   8.315 -0.2423 -0.0430  0.1272
  212loPI    C1 3377  14.099   7.397  10.805  0.2682 -0.0725  0.1246
  212loPI    C2 3378  13.851   7.253  11.084  0.0170  0.0539 -0.0298
  212loPI    C3 3379  14.039   7.601  11.145  0.2180 -0.0787  0.1196
  212loPI   PO4 3380  14.307   7.242  10.695  0.1939  0.0187  0.0119
  212loPI   GL1 3381  14.335   7.025  10.336 -0.2025  0.3643  0.1199
  212loPI   GL2 3382  14.354   6.848  10.151 -0.0060  0.1777 -0.1230
  212loPI   C1A 3383  14.602   7.262   9.945 -0.0458  0.3586  0.1459
  212loPI   C2A 3384  14.878   7.501   9.714  0.1832 -0.3119  0.0980
  212loPI   C3A 3385  15.069   7.436   9.347  0.0082 -0.0541 -0.1742
  212loPI   C4A 3386  15.086   7.343   8.989  0.0020 -0.0546  0.3629
  212loPI   C5A 3387  15.378   7.522   8.751 -0.2762  0.3019  0.0147
  212loPI   C6A 3388  15.384   7.816   8.346 -0.0529 -0.0530 -0.1184
  212loPI   C1B 3389  14.483   6.835   9.623 -0.0022  0.2225 -0.1198
  212loPI   C2B 3390  14.197   6.914   9.270  0.0561 -0.1555  0.1726
  212loPI   C3B 3391  14.005   6.990   8.875  0.0977  0.2016 -0.0038
  212loPI   C4B 3392  13.845   6.793   8.482 -0.2850  0.1130  0.1820
  213loPI    C1 3393   8.617   5.721  10.830 -0.1349  0.2055  0.0781
  213loPI    C2 3394   8.857   5.514  11.074 -0.2385  0.1079  0.0977
  213loPI    C3 3395   8.915   5.906  11.023 -0.0775  0.0856  0.1052
  213loPI   PO4 3396   8.691   5.612  10.635  0.2194 -0.0253 -0.1048
  213loPI   GL1 3397   8.594   5.517  10.162  0.1253 -0.0756 -0.0796
  213loPI   GL2 3398   8.353   5.788  10.305 -0.0492  0.2799  0.1012
  213loPI   C1A 3399   8.846   5.499   9.977  0.1096 -0.2434  0.2422
  213loPI   C2A 3400   8.875   5.536   9.554 -0.1627 -0.2846 -0.1316
  213loPI   C3A 3401   8.874   5.668   9.199 -0.2502  0.2302 -0.0510
  213loPI   C4A 3402   8.603   5.720   8.856 -0.0182  0.1685  0.2205
  213loPI   C5A 3403   8.879   5.796   8.465 -0.0058 -0.2489 -0.2210
  213loPI   C6A 3404   9.050   6.149   8.344  0.0613 -0.0352 -0.2032
  213loPI   C1B 3405   8.228   5.927   9.909  0.1820  0.1552  0.0152
  213loPI   C2B 3406   8.002   6.150   9.517  0.2863  0.0357 -0.0658
  213loPI   C3B 3407   8.242   6.344   9.118  0.1866 -0.1454 -0.0016
  213loPI   C4B 3408   8.215   6.067   8.711 -0.0003 -0.1874  0.0237
  214loPI    C1 3409   9.280   8.297  10.791 -0.0524  0.1817  0.1601
  214loPI    C2 3410   9.361   7.978  11.018  0.2346  0.0079 -0.1779
  214loPI    C3 3411   8.983   8.059  10.915  0.1281 -0.0482  0.1572
  214loPI   PO4 3412   9.389   8.351  10.492 -0.0101 -0.2943 -0.1315
  214loPI   GL1 3413   9.142   8.335  10.038  0.0723 -0.0534 -0.1637
  214loPI   GL2 3414   9.388   8.295   9.987 -0.0041  0.1242 -0.0591
  214loPI   C1A 3415   8.927   8.443   9.687 -0.2063  0.1303  0.1042
  214loPI   C2A 3416   8.825   8.623   9.312 -0.0497  0.0926 -0.1526
  214loPI   C3A 3417   9.012   8.464   9.010 -0.0377  0.1615  0.1077
  214loPI   C4A 3418   8.871   8.388   8.647 -0.2008  0.1606  0.1688
  214loPI   C5A 3419   8.778   8.119   8.297 -0.0803  0.0380 -0.3073
  214loPI   C6A 3420   8.628   7.815   8.125 -0.2534 -0.2218  0.2028
  214loPI   C1B 3421   9.380   8.409   9.589  0.0752 -0.4604 -0.1199
  214loPI   C2B 3422   9.510   8.341   9.203  0.2188  0.0139 -0.0301
  214loPI   C3B 3423   9.492   8.538   8.860 -0.0325  0.0377 -0.1059
  214loPI   C4B 3424   9.727   8.740   8.488 -0.1624  0.0541  0.1689
  215loPI    C1 3425   8.640   9.463  10.541  0.0812 -0.0883 -0.1569
  215loPI    C2 3426   8.472   9.520  10.899  0.5463 -0.0267  0.0587
  215loPI    C3 3427   8.514   9.828  10.647 -0.2789 -0.1719 -0.2857
  215loPI   PO4 3428   8.490   9.117  10.475  0.2517  0.0991  0.1302
  215loPI   GL1 3429   8.382   8.862  10.077 -0.0279  0.0279  0.3050
  215loPI   GL2 3430   8.720   8.632  10.065 -0.1105 -0.0478  0.1287
  215loPI   C1A 3431   7.959   8.812   9.853  0.0802  0.0765  0.0976
  215loPI   C2A 3432   7.947   8.766   9.476 -0.1239 -0.0937 -0.4042
  215loPI   C3A 3433   7.902   8.699   9.055  0.2873  0.0564 -0.2634
  215loPI   C4A 3434   7.908   8.777   8.686  0.0242 -0.3491 -0.0054
  215loPI   C5A 3435   7.789   8.406   8.491  0.0675 -0.2225 -0.0535
  215loPI   C6A 3436   7.724   8.076   8.214 -0.2582 -0.1606 -0.0276
  215loPI   C1B 3437   8.731   9.009   9.758 -0.0275  0.4161  0.1664
  215loPI   C2B 3438   8.775   9.138   9.289 -0.0337  0.1676 -0.0759
  215loPI   C3B 3439   8.663   8.956   8.930 -0.0625 -0.0926 -0.1428
  215loPI   C4B 3440   8.703   8.888   8.444 -0.2769 -0.2644 -0.1960
  216loPI    C1 3441  10.956  15.847  10.331 -0.0156 -0.1648  0.1201
  216loPI    C2 3442  10.769  15.712  10.658 -0.3028 -0.0128  0.0222
  216loPI    C3 3443  10.994  15.464  10.440 -0.1825 -0.1368  0.2824
  216loPI   PO4 3444  11.161  15.980  10.312  0.2311 -0.1083  0.1047
  216loPI   GL1 3445  11.453  15.887  10.013  0.4087  0.4371  0.1909
  216loPI   GL2 3446  11.559  16.207  10.098 -0.4265  0.3256  0.1703
  216loPI   C1A 3447  11.293  15.694   9.608  0.0595  0.3576 -0.0578
  216loPI   C2A 3448  11.197  15.638   9.211  0.0960 -0.1264  0.0650
  216loPI   C3A 3449  11.388  15.627   8.864 -0.1415 -0.1614  0.0860
  216loPI   C4A 3450  11.373  15.535   8.351 -0.2710  0.1566 -0.1008
  216loPI   C5A 3451  11.083  15.301   8.019  0.0182  0.0438 -0.1804
  216loPI   C6A 3452  11.067  15.061   7.668  0.2707  0.2270 -0.2598
  216loPI   C1B 3453  11.385  16.231   9.616 -0.2287  0.2476 -0.0648
  216loPI   C2B 3454  11.282  16.331   9.160  0.2045  0.1154 -0.2018
  216loPI   C3B 3455  11.476  16.141   8.745  0.0337 -0.4698  0.1725
  216loPI   C4B 3456  11.180  15.966   8.562 -0.0514 -0.4108  0.1181
  217loPI    C1 3457   2.158  16.560  10.609 -0.1086  0.0686 -0.0367
  217loPI    C2 3458   1.847  16.322  10.689 -0.0462 -0.0143 -0.0387
  217loPI    C3 3459   2.200  16.253  10.862  0.0266 -0.0492 -0.2000
  217loPI   PO4 3460   2.096  16.574  10.325 -0.4248  0.3773  0.1803
  217loPI   GL1 3461   2.351  16.747  10.019  0.0658 -0.0858  0.0493
  217loPI   GL2 3462   2.551  16.651  10.123  0.2464  0.1846  0.0275
  217loPI   C1A 3463   2.110  16.972   9.678 -0.0835  0.3063 -0.0492
  217loPI   C2A 3464   1.935  17.030   9.286 -0.0114  0.0946  0.2629
  217loPI   C3A 3465   1.743  17.156   8.941  0.0303 -0.1212  0.1699
  217loPI   C4A 3466   1.534  17.017   8.477 -0.1406  0.1252  0.2060
  217loPI   C5A 3467   1.654  16.679   8.208 -0.1330  0.2597  0.3136
  217loPI   C6A 3468   1.699  16.278   8.042  0.1701 -0.1618 -0.1319
  217loPI   C1B 3469   2.470  16.488   9.653  0.0147 -0.0307  0.1429
  217loPI   C2B 3470   2.556  16.675   9.341 -0.1239 -0.0574  0.1387
  217loPI   C3B 3471   2.442  16.776   8.895 -0.0126 -0.1044 -0.0892
  217loPI   C4B 3472   2.475  16.847   8.417 -0.2017  0.0315  0.1360
  218loPI    C1 3473  14.266  15.117  10.741  0.0254 -0.0423  0.0550
  218loPI    C2 3474  14.321  14.722  10.771 -0.1919 -0.0787 -0.0058
  218loPI    C3 3475  14.186  14.930  11.085 -0.0525 -0.0475  0.0343
  218loPI   PO4 3476  14.075  15.147  10.504 -0.1257 -0.0166 -0.2048
  218loPI   GL1 3477  14.066  15.277  10.032 -0.1571 -0.1265 -0.3133
  218loPI   GL2 3478  13.929  15.257   9.721 -0.0573 -0.0353 -0.2846
  218loPI   C1A 3479  14.415  15.300   9.729  0.1509 -0.0664  0.0896
  218loPI   C2A 3480  14.319  15.140   9.319 -0.0960  0.1700 -0.1978
  218loPI   C3A 3481  14.391  15.155   8.935 -0.0402  0.0898 -0.3313
  218loPI   C4A 3482  14.198  15.121   8.575 -0.0084 -0.0274  0.0083
  218loPI   C5A 3483  14.237  15.220   8.163  0.1056  0.1945  0.2170
  218loPI   C6A 3484  14.072  15.494   7.824 -0.0171  0.1476 -0.1352
  218loPI   C1B 3485  13.887  14.948   9.406  0.1134 -0.0283  0.3532
  218loPI   C2B 3486  13.971  14.845   8.969 -0.2318  0.0452 -0.0100
  218loPI   C3B 3487  13.966  14.702   8.577  0.2117 -0.4709  0.1144
  218loPI   C4B 3488  13.938  14.739   8.213 -0.2246 -0.1254 -0.0903
  219loPI    C1 3489   3.516  13.474  10.471 -0.1156  0.0654  0.0149
  219loPI    C2 3490   3.503  13.608  10.848 -0.0052  0.0336  0.0303
  219loPI    C3 3491   3.837  13.650  10.632 -0.0607  0.0312 -0.0567
  219loPI   PO4 3492   3.262  13.391  10.420 -0.2305 -0.0478 -0.1530
  219loPI   GL1 3493   3.103  13.127  10.073  0.2893 -0.1020 -0.2601
  219loPI   GL2 3494   2.897  13.129   9.887 -0.1710  0.1483  0.0918
  219loPI   C1A 3495   3.268  13.347   9.647  0.1753 -0.1078 -0.1682
  219loPI   C2A 3496   3.159  13.540   9.248  0.1650  0.1920 -0.0311
  219loPI   C3A 3497   3.152  13.482   8.841 -0.0754 -0.2325 -0.0584
  219loPI   C4A 3498   3.026  13.754   8.546 -0.2104  0.0385 -0.3281
  219loPI   C5A 3499   3.054  13.891   8.152 -0.1292  0.1316 -0.0831
  219loPI   C6A 3500   3.254  13.749   7.891  0.1634  0.0266 -0.0778
  219loPI   C1B 3501   2.786  13.176   9.411  0.1073  0.0764 -0.0777
  219loPI   C2B 3502   2.678  13.282   9.094  0.1812 -0.0153  0.0448
  219loPI   C3B 3503   2.717  13.341   8.676 -0.1112  0.0416  0.0219
  219loPI   C4B 3504   2.727  13.483   8.330  0.0565 -0.2043 -0.1043
  220loPI    C1 3505   2.291   7.252  10.603  0.2343  0.0800  0.1001
  220loPI    C2 3506   2.649   7.072  10.599  0.0922 -0.2091  0.1549
  220loPI    C3 3507   2.346   6.913  10.807 -0.0211  0.1305  0.2572
  220loPI   PO4 3508   2.217   7.245  10.287  0.1282  0.0731  0.0775
  220loPI   GL1 3509   2.178   7.428   9.826  0.1303 -0.2520  0.0911
  220loPI   GL2 3510   2.383   7.186   9.757 -0.2483 -0.2992  0.0427
  220loPI   C1A 3511   2.018   7.497   9.444  0.2745 -0.0095  0.1052
  220loPI   C2A 3512   1.756   7.550   9.006 -0.1056  0.4161  0.1116
  220loPI   C3A 3513   1.602   7.613   8.560  0.1686 -0.3045 -0.1612
  220loPI   C4A 3514   1.449   7.655   8.211 -0.0371  0.2828  0.1551
  220loPI   C5A 3515   0.962   7.924   8.117 -0.0464  0.1250 -0.0188
  220loPI   C6A 3516   0.572   8.178   8.168  0.1449 -0.1055  0.1057
  220loPI   C1B 3517   2.347   7.095   9.254  0.3002  0.2489 -0.2968
  220loPI   C2B 3518   2.122   7.202   8.948  0.2869  0.1449 -0.0817
  220loPI   C3B 3519   1.956   7.249   8.473  0.0430 -0.0548 -0.2455
  220loPI   C4B 3520   1.868   7.382   8.156 -0.0770 -0.0309 -0.0107
  221loPI    C1 3521  15.810  17.127  10.578 -0.0690  0.3541  0.0114
  221loPI    C2 3522  15.776  17.272  10.950  0.0498  0.2976  0.0450
  221loPI    C3 3523  15.449  17.161  10.747  0.0083  0.0258  0.2540
  221loPI   PO4 3524  15.893  17.307  10.414 -0.0309  0.1270  0.0411
  221loPI   GL1 3525  15.896  17.326   9.978 -0.0793  0.0307  0.0605
  221loPI   GL2 3526  16.007  17.081   9.687 -0.1743  0.0855  0.1644
  221loPI   C1A 3527  15.720  17.493   9.564  0.0010  0.0919 -0.3815
  221loPI   C2A 3528  15.687  17.473   9.138 -0.0257  0.1973 -0.0163
  221loPI   C3A 3529  15.429  17.311   8.677  0.3270 -0.0087 -0.1636
  221loPI   C4A 3530  15.187  17.238   8.309  0.0891  0.1093  0.1073
  221loPI   C5A 3531  14.826  17.309   7.987 -0.0305  0.2226  0.2200
  221loPI   C6A 3532  14.453  16.889   7.955  0.0347  0.1786 -0.4085
  221loPI   C1B 3533  16.068  17.169   9.161  0.2945  0.0884  0.0528
  221loPI   C2B 3534  15.857  17.234   8.744 -0.4436 -0.1131  0.0413
  221loPI   C3B 3535  15.750  17.394   8.307  0.3082  0.0760  0.0715
  221loPI   C4B 3536  15.500  17.524   8.038 -0.1385 -0.3020 -0.1403
  222loPI    C1 3537  14.807   4.921  10.809  0.3101  0.3500  0.1083
  222loPI    C2 3538  14.516   5.021  11.065  0.0375  0.0677 -0.0824
  222loPI    C3 3539  14.862   4.875  11.202 -0.0154  0.1414  0.1338
  222loPI   PO4 3540  14.692   4.798  10.679  0.1502  0.0737  0.0656
  222loPI   GL1 3541  14.546   4.690  10.255 -0.1361 -0.0799 -0.0974
  222loPI   GL2 3542  14.612   4.492  10.080  0.0122 -0.1704  0.2841
  222loPI   C1A 3543  14.216   4.919  10.119 -0.1141 -0.1959 -0.1047
  222loPI   C2A 3544  13.952   5.009   9.770 -0.1347 -0.0553  0.2523
  222loPI   C3A 3545  13.808   5.027   9.285 -0.2701  0.0124  0.2972
  222loPI   C4A 3546  14.075   5.085   8.959  0.0079 -0.0658  0.0102
  222loPI   C5A 3547  14.278   5.173   8.501  0.1146  0.0761  0.1411
  222loPI   C6A 3548  14.260   5.315   8.116  0.2075  0.2265  0.1731
  222loPI   C1B 3549  14.719   4.169   9.758  0.1825  0.1869  0.0104
  222loPI   C2B 3550  14.887   4.217   9.387  0.0814  0.1570 -0.0244
  222loPI   C3B 3551  15.092   4.062   9.011  0.1500 -0.0551 -0.0724
  222loPI   C4B 3552  15.027   4.094   8.587  0.1812  0.2221 -0.0050
  223loPI    C1 3553  14.052   1.790  10.211 -0.1338 -0.1286  0.1429
  223loPI    C2 3554  14.238   1.679  10.548  0.0723 -0.1750  0.0153
  223loPI    C3 3555  14.450   1.751  10.216 -0.1351 -0.1924 -0.1229
  223loPI   PO4 3556  13.866   1.671  10.212 -0.1099 -0.3952 -0.0573
  223loPI   GL1 3557  13.571   1.501   9.931 -0.1327 -0.1715 -0.1999
  223loPI   GL2 3558  13.922   1.519   9.764 -0.2533  0.1979 -0.0374
  223loPI   C1A 3559  13.506   1.342   9.596 -0.2001 -0.0370  0.1083
  223loPI   C2A 3560  13.504   1.346   9.177 -0.0440  0.3310 -0.0243
  223loPI   C3A 3561  13.641   1.326   8.814  0.0377 -0.0113 -0.2476
  223loPI   C4A 3562  13.430   1.214   8.448 -0.0514 -0.1996  0.0881
  223loPI   C5A 3563  13.147   1.391   8.191 -0.1125 -0.2529  0.0056
  223loPI   C6A 3564  12.814   1.531   7.883 -0.0848 -0.1237  0.2168
  223loPI   C1B 3565  13.686   1.764   9.446 -0.0541 -0.0440 -0.2454
  223loPI   C2B 3566  13.555   1.827   9.014 -0.1867 -0.2872 -0.1005
  223loPI   C3B 3567  13.682   1.733   8.549  0.0002  0.0177 -0.0328
  223loPI   C4B 3568  13.699   1.560   8.204 -0.3284  0.2760 -0.1797
  224loPI    C1 3569   7.428   1.727  10.928  0.0633 -0.0220 -0.1831
  224loPI    C2 3570   7.783   1.822  11.085  0.0262 -0.0485 -0.0822
  224loPI    C3 3571   7.608   1.475  11.181 -0.0155 -0.0469 -0.1513
  224loPI   PO4 3572   7.431   1.778  10.647 -0.0812  0.1942  0.0282
  224loPI   GL1 3573   7.523   1.995  10.241 -0.0433 -0.2932 -0.3589
  224loPI   GL2 3574   7.774   1.754  10.221 -0.1432  0.1710  0.0430
  224loPI   C1A 3575   7.894   2.357  10.117 -0.1502 -0.0496 -0.2776
  224loPI   C2A 3576   7.818   2.430   9.704 -0.0826  0.0140 -0.2629
  224loPI   C3A 3577   8.062   2.477   9.393 -0.4622 -0.0626 -0.3312
  224loPI   C4A 3578   7.975   2.594   8.997  0.1111  0.0447 -0.0998
  224loPI   C5A 3579   7.990   2.765   8.598  0.1415 -0.0239 -0.1308
  224loPI   C6A 3580   7.727   3.071   8.581 -0.0707  0.2196 -0.1127
  224loPI   C1B 3581   7.854   1.905   9.814  0.0230  0.0237  0.0767
  224loPI   C2B 3582   7.906   1.982   9.409  0.0497  0.2627 -0.0010
  224loPI   C3B 3583   8.012   1.960   9.013 -0.6092 -0.2206 -0.1286
  224loPI   C4B 3584   8.125   1.797   8.635 -0.1082  0.1459 -0.0050
  225loPI    C1 3585  10.753   2.153  11.037  0.0403  0.1420  0.0043
  225loPI    C2 3586  10.558   2.033  11.365  0.0636  0.0989  0.0025
  225loPI    C3 3587  10.746   2.386  11.363  0.0524  0.1051  0.0310
  225loPI   PO4 3588  10.635   2.060  10.846  0.0180  0.2228 -0.1306
  225loPI   GL1 3589  10.724   1.780  10.646  0.1881  0.0288  0.1934
  225loPI   GL2 3590  10.628   1.523  10.575 -0.2991  0.0175 -0.2570
  225loPI   C1A 3591  10.860   1.900  10.281 -0.4236  0.1555  0.1910
  225loPI   C2A 3592  10.917   1.945   9.852  0.1134  0.1739  0.3861
  225loPI   C3A 3593  10.978   1.804   9.444 -0.0278 -0.0317  0.0391
  225loPI   C4A 3594  11.315   1.668   9.204 -0.0357  0.0452  0.0581
  225loPI   C5A 3595  11.246   1.485   8.761 -0.1911  0.0366  0.1844
  225loPI   C6A 3596  10.934   1.382   8.481 -0.3507 -0.2579  0.0318
  225loPI   C1B 3597  10.649   1.454  10.159 -0.2152 -0.0690 -0.1677
  225loPI   C2B 3598  10.722   1.486   9.678  0.1170 -0.2760 -0.1361
  225loPI   C3B 3599  10.682   1.454   9.276 -0.0225  0.2770 -0.3086
  225loPI   C4B 3600  10.638   1.483   8.864  0.3072 -0.2922  0.1040
  226loPI    C1 3601  18.092  14.794  10.810  0.0006 -0.0540 -0.1627
  226loPI    C2 3602  18.255  15.144  10.915  0.0038 -0.0738 -0.1009
  226loPI    C3 3603  18.469  14.807  10.945 -0.0359 -0.0951 -0.0557
  226loPI   PO4 3604  18.023  14.814  10.484 -0.6536 -0.0734 -0.2144
  226loPI   GL1 3605  18.043  14.898  10.124  0.0286 -0.1804  0.0877
  226loPI   GL2 3606  17.822  15.188  10.070  0.3470 -0.0366  0.1394
  226loPI   C1A 3607  18.121  15.066   9.642 -0.0885 -0.0612  0.0849
  226loPI   C2A 3608  18.200  15.166   9.169 -0.1931 -0.4347 -0.0160
  226loPI   C3A 3609  18.319  15.304   8.766 -0.2477 -0.0525  0.0558
  226loPI   C4A 3610  18.365  15.277   8.331  0.1144 -0.5162  0.0774
  226loPI   C5A 3611  18.487  15.465   8.038  0.0259 -0.0977  0.2092
  226loPI   C6A 3612  18.514  15.889   7.834  0.0688 -0.0201  0.1649
  226loPI   C1B 3613  17.771  15.491   9.676  0.0134 -0.3161 -0.0332
  226loPI   C2B 3614  17.854  15.543   9.241 -0.3525  0.0984  0.0199
  226loPI   C3B 3615  17.785  15.478   8.777  0.0767 -0.0326  0.4195
  226loPI   C4B 3616  17.798  15.714   8.343 -0.1273  0.3924 -0.2897
  227loPI    C1 3617   2.053   5.251  10.281 -0.1051  0.0054 -0.2235
  227loPI    C2 3618   2.245   4.918  10.393 -0.1431  0.0803  0.0725
  227loPI    C3 3619   1.943   4.897  10.132 -0.0806 -0.1041  0.0138
  227loPI   PO4 3620   2.191   5.411  10.216  0.1111 -0.1533  0.1797
  227loPI   GL1 3621   2.450   5.481   9.875  0.2040  0.1051  0.0088
  227loPI   GL2 3622   2.819   5.443   9.817  0.2578 -0.0190  0.2791
  227loPI   C1A 3623   2.510   5.376   9.426 -0.0769  0.1539 -0.1299
  227loPI   C2A 3624   2.485   5.386   9.042 -0.2539  0.2287 -0.0813
  227loPI   C3A 3625   2.677   5.449   8.679 -0.0341  0.1222  0.1410
  227loPI   C4A 3626   2.940   5.638   8.277  0.3185 -0.1086  0.0444
  227loPI   C5A 3627   3.066   5.714   7.865  0.0814 -0.0307  0.3653
  227loPI   C6A 3628   3.112   5.852   7.466  0.0431  0.0119  0.0131
  227loPI   C1B 3629   3.077   5.404   9.455 -0.2489 -0.0844  0.0875
  227loPI   C2B 3630   3.037   5.447   9.133 -0.1628  0.1186  0.2453
  227loPI   C3B 3631   3.146   5.591   8.717  0.0581  0.1588 -0.0251
  227loPI   C4B 3632   3.493   5.556   8.486 -0.0909  0.0034  0.1478
  228loPI    C1 3633   5.882  15.530  10.105 -0.0701  0.4379  0.1609
  228loPI    C2 3634   6.008  15.346  10.437 -0.2171 -0.2046 -0.1229
  228loPI    C3 3635   5.617  15.364  10.355 -0.1898  0.0616 -0.2039
  228loPI   PO4 3636   5.981  15.402   9.814  0.0834  0.1490  0.0477
  228loPI   GL1 3637   5.787  15.455   9.548  0.0790  0.0812  0.3708
  228loPI   GL2 3638   5.516  15.532   9.436 -0.2052  0.1027  0.0304
  228loPI   C1A 3639   5.898  15.415   9.064  0.0037  0.0419  0.0742
  228loPI   C2A 3640   5.840  15.473   8.625  0.2573  0.4007 -0.2539
  228loPI   C3A 3641   5.898  15.629   8.124 -0.1813 -0.0355 -0.2338
  228loPI   C4A 3642   6.121  15.684   7.809 -0.0276  0.0215 -0.1495
  228loPI   C5A 3643   6.545  15.918   7.656 -0.0667  0.1882  0.1095
  228loPI   C6A 3644   6.961  15.802   7.706  0.0820 -0.0238 -0.0411
  228loPI   C1B 3645   5.455  15.741   9.185 -0.0419  0.2128 -0.0279
  228loPI   C2B 3646   5.511  15.828   8.847 -0.2719  0.0816  0.0488
  228loPI   C3B 3647   5.556  15.866   8.445  0.3519 -0.4112  0.2755
  228loPI   C4B 3648   5.641  15.982   8.020  0.1875  0.1788  0.1797
  229loPI    C1 3649  18.023  17.266  10.302  0.2024 -0.1791  0.1394
  229loPI    C2 3650  17.787  17.098  10.027 -0.0245  0.2713  0.0494
  229loPI    C3 3651  17.735  17.012  10.414 -0.0582  0.0485 -0.0030
  229loPI   PO4 3652  18.234  17.198  10.219 -0.2291 -0.0264  0.2598
  229loPI   GL1 3653  18.355  17.419   9.819  0.1649 -0.1558 -0.1724
  229loPI   GL2 3654  17.967  17.412   9.693 -0.0636 -0.0716 -0.2162
  229loPI   C1A 3655  18.412  17.382   9.413 -0.1539 -0.1322 -0.1395
  229loPI   C2A 3656  18.348  17.569   9.014  0.0189  0.2853 -0.1190
  229loPI   C3A 3657  18.306  17.650   8.511  0.3657  0.0677 -0.3332
  229loPI   C4A 3658  18.312  17.380   8.172  0.0458  0.1007 -0.3282
  229loPI   C5A 3659  18.089  17.141   7.883  0.2042  0.3005 -0.1345
  229loPI   C6A 3660  17.905  16.804   7.811  0.0439  0.2449 -0.1615
  229loPI   C1B 3661  17.957  17.344   9.227  0.0532 -0.0092 -0.0256
  229loPI   C2B 3662  17.972  17.301   8.809  0.1009  0.1769  0.2452
  229loPI   C3B 3663  17.826  17.156   8.347  0.1962 -0.1178 -0.0043
  229loPI   C4B 3664  17.544  17.047   8.099  0.1104  0.0887  0.0722
  230loPI    C1 3665  12.031  16.878  10.691 -0.0945 -0.0122  0.1730
  230loPI    C2 3666  11.840  17.120  10.945 -0.1171  0.0165  0.1287
  230loPI    C3 3667  11.698  16.753  10.875 -0.0507 -0.0311  0.2400
  230loPI   PO4 3668  11.989  17.002  10.475 -0.1370 -0.1059  0.1305
  230loPI   GL1 3669  12.143  16.821  10.083  0.2647 -0.3156  0.0620
  230loPI   GL2 3670  12.175  17.178  10.048 -0.0452  0.1821 -0.1463
  230loPI   C1A 3671  12.353  16.813   9.706 -0.2363  0.0155 -0.0769
  230loPI   C2A 3672  12.223  16.979   9.318  0.0085 -0.0308  0.0612
  230loPI   C3A 3673  12.079  16.979   8.967  0.2142  0.1940  0.0479
  230loPI   C4A 3674  12.039  16.831   8.559 -0.0432  0.3584 -0.1778
  230loPI   C5A 3675  12.210  16.795   8.100 -0.2323 -0.1991  0.0522
  230loPI   C6A 3676  12.452  16.688   7.729 -0.0570 -0.1185 -0.1544
  230loPI   C1B 3677  12.072  17.434   9.609 -0.4540  0.0223  0.1837
  230loPI   C2B 3678  12.067  17.459   9.191  0.0346  0.0216 -0.1350
  230loPI   C3B 3679  12.139  17.542   8.880 -0.2037  0.0877  0.1771
  230loPI   C4B 3680  11.901  17.514   8.551  0.2246 -0.0226 -0.2071
  231loPI    C1 3681  12.180   8.872  10.843  0.1353  0.2061  0.2286
  231loPI    C2 3682  12.175   8.818  11.240  0.0124 -0.2606  0.1691
  231loPI    C3 3683  11.833   8.811  11.033  0.0485  0.2364  0.0810
  231loPI   PO4 3684  12.415   8.790  10.756  0.0976 -0.3345  0.2319
  231loPI   GL1 3685  12.424   8.664  10.255 -0.3374  0.1653 -0.0519
  231loPI   GL2 3686  12.653   9.011  10.263 -0.0116  0.2117 -0.1932
  231loPI   C1A 3687  12.541   8.329   9.909  0.0771  0.0251  0.0133
  231loPI   C2A 3688  12.359   8.285   9.512  0.1136  0.2344  0.0845
  231loPI   C3A 3689  12.283   8.114   9.077 -0.0220  0.0622 -0.3046
  231loPI   C4A 3690  12.377   8.042   8.679  0.1506 -0.1519  0.0437
  231loPI   C5A 3691  12.367   8.183   8.328 -0.2110 -0.0035 -0.0179
  231loPI   C6A 3692  12.340   8.560   8.158 -0.1646  0.2733  0.1592
  231loPI   C1B 3693  12.731   8.777   9.891  0.0212  0.1607 -0.0344
  231loPI   C2B 3694  12.755   8.562   9.468 -0.2501 -0.0899 -0.0503
  231loPI   C3B 3695  12.538   8.629   9.076  0.0078  0.2038 -0.0631
  231loPI   C4B 3696  12.503   8.602   8.614  0.0953  0.0007  0.0260
  232loPI    C1 3697  17.938   4.033  10.534 -0.1552  0.2081  0.0108
  232loPI    C2 3698  17.700   3.970  10.850  0.1153 -0.0247  0.1729
  232loPI    C3 3699  17.900   4.315  10.815 -0.2143  0.1586  0.0529
  232loPI   PO4 3700  17.795   4.009  10.382 -0.0950 -0.1081 -0.2743
  232loPI   GL1 3701  17.637   4.227  10.030 -0.3486  0.0311 -0.1168
  232loPI   GL2 3702  17.447   4.541  10.086  0.2959 -0.0342  0.0668
  232loPI   C1A 3703  17.872   4.312   9.713  0.4335 -0.0114  0.0759
  232loPI   C2A 3704  18.022   4.343   9.384 -0.0137 -0.0451 -0.0688
  232loPI   C3A 3705  18.132   4.450   9.117 -0.1279  0.2255 -0.2140
  232loPI   C4A 3706  18.076   4.497   8.718  0.1792  0.1815  0.1121
  232loPI   C5A 3707  18.048   4.714   8.334  0.0155  0.1032  0.1965
  232loPI   C6A 3708  18.163   5.012   8.057 -0.1658 -0.3032 -0.0376
  232loPI   C1B 3709  17.457   4.604   9.703  0.2482 -0.0601  0.1144
  232loPI   C2B 3710  17.575   4.525   9.246  0.2470 -0.0296  0.1696
  232loPI   C3B 3711  17.683   4.281   8.867  0.2818 -0.3051  0.0907
  232loPI   C4B 3712  17.668   4.136   8.491  0.1270 -0.0134 -0.0518
  233loPI    C1 3713  13.483  16.600  10.286 -0.2435  0.0934 -0.1629
  233loPI    C2 3714  13.712  16.833  10.056  0.0062 -0.0091 -0.0224
  233loPI    C3 3715  13.551  16.980  10.391 -0.1128  0.0551 -0.1069
  233loPI   PO4 3716  13.639  16.349  10.327  0.0530  0.2187  0.2233
  233loPI   GL1 3717  13.825  16.083   9.915  0.1765  0.0311  0.0526
  233loPI   GL2 3718  13.765  16.414   9.846 -0.0521 -0.1495  0.0688
  233loPI   C1A 3719  13.891  16.076   9.460 -0.1797  0.2775  0.1259
  233loPI   C2A 3720  13.817  16.124   9.100  0.2086  0.3171  0.1573
  233loPI   C3A 3721  13.694  16.050   8.661  0.3538  0.0238  0.0247
  233loPI   C4A 3722  13.432  15.993   8.282  0.0807  0.2337 -0.0842
  233loPI   C5A 3723  13.413  15.613   7.968 -0.0208 -0.3399  0.2055
  233loPI   C6A 3724  13.562  15.445   7.682 -0.1997  0.0840  0.1045
  233loPI   C1B 3725  13.641  16.546   9.432 -0.0402  0.0923  0.1755
  233loPI   C2B 3726  13.585  16.525   8.972  0.2068 -0.0735  0.2004
  233loPI   C3B 3727  13.564  16.539   8.514  0.4092 -0.0755 -0.2323
  233loPI   C4B 3728  13.508  16.558   8.150  0.0026  0.2506 -0.0356
  234loPI    C1 3729   7.390  11.497  10.178  0.1484  0.1240  0.0613
  234loPI    C2 3730   7.732  11.704  10.190  0.1770  0.0821 -0.0212
  234loPI    C3 3731   7.656  11.428  10.469  0.1412  0.1989  0.0858
  234loPI   PO4 3732   7.224  11.669  10.087  0.1631  0.1356 -0.0871
  234loPI   GL1 3733   6.863  11.683   9.898 -0.1953  0.1042 -0.1478
  234loPI   GL2 3734   6.988  11.305   9.850  0.0317 -0.1796 -0.0472
  234loPI   C1A 3735   6.984  11.955   9.498  0.1250 -0.2925  0.0651
  234loPI   C2A 3736   6.929  12.237   9.144 -0.1220  0.0944 -0.2870
  234loPI   C3A 3737   6.875  12.087   8.746 -0.4622  0.2111  0.1864
  234loPI   C4A 3738   7.023  12.105   8.316 -0.1690 -0.2965  0.0107
  234loPI   C5A 3739   7.219  12.182   7.860 -0.1138  0.0902  0.0795
  234loPI   C6A 3740   7.189  11.752   7.586  0.1407  0.1167 -0.1601
  234loPI   C1B 3741   7.117  11.473   9.426 -0.0811  0.0363  0.2282
  234loPI   C2B 3742   7.121  11.524   8.968  0.2100 -0.1333 -0.3412
  234loPI   C3B 3743   7.088  11.674   8.540 -0.3713 -0.3174  0.0067
  234loPI   C4B 3744   7.223  11.664   8.093  0.0914 -0.0588 -0.0144
  235loPI    C1 3745  15.141  17.930  10.752 -0.0159  0.1967  0.1354
  235loPI    C2 3746  14.904  17.878  11.070 -0.0539  0.1125  0.0936
  235loPI    C3 3747  15.222  17.642  11.016 -0.0017  0.1785  0.1113
  235loPI   PO4 3748  14.991  17.952  10.508  0.3135 -0.0009 -0.0546
  235loPI   GL1 3749  15.177  17.896  10.026 -0.0334  0.1497  0.3329
  235loPI   GL2 3750  15.437  17.928   9.846 -0.2108  0.1559  0.0373
  235loPI   C1A 3751  15.036  17.876   9.577 -0.0942 -0.0607 -0.2279
  235loPI   C2A 3752  15.086  18.057   9.106  0.0322 -0.2310  0.1223
  235loPI   C3A 3753  15.031  18.050   8.803 -0.1053 -0.2185  0.1905
  235loPI   C4A 3754  14.968  18.214   8.392 -0.0750 -0.0550 -0.2064
  235loPI   C5A 3755  14.810  18.443   8.071 -0.1492 -0.1946  0.0008
  235loPI   C6A 3756  14.846  18.198   7.648 -0.0908 -0.1264  0.0163
  235loPI   C1B 3757  15.490  17.854   9.301 -0.2529 -0.2435  0.0985
  235loPI   C2B 3758  15.491  17.801   8.834 -0.1887 -0.1425  0.1686
  235loPI   C3B 3759  15.233  17.805   8.431  0.1238 -0.2223  0.2418
  235loPI   C4B 3760  14.872  17.808   8.113 -0.0675  0.3459 -0.1413
  236loPI    C1 3761  14.047   2.891  10.661  0.0812  0.2489 -0.0369
  236loPI    C2 3762  14.389   2.718  10.773  0.0345  0.1789 -0.0012
  236loPI    C3 3763  14.395   3.077  10.596  0.1023  0.3467  0.3337
  236loPI   PO4 3764  13.926   2.652  10.529  0.1837 -0.1264  0.3268
  236loPI   GL1 3765  13.599   2.605  10.168  0.1074  0.0910  0.0708
  236loPI   GL2 3766  13.287   2.439  10.077 -0.0567  0.0340  0.0279
  236loPI   C1A 3767  13.713   2.612   9.801 -0.1861  0.0871 -0.4026
  236loPI   C2A 3768  13.851   2.594   9.356  0.1311 -0.1364 -0.1997
  236loPI   C3A 3769  14.100   2.521   9.033  0.2446 -0.1206  0.3620
  236loPI   C4A 3770  14.283   2.486   8.658 -0.0436 -0.0668  0.0668
  236loPI   C5A 3771  14.604   2.664   8.426 -0.3494 -0.0855  0.2771
  236loPI   C6A 3772  14.817   2.533   8.085 -0.1416 -0.0523 -0.2083
  236loPI   C1B 3773  13.075   2.592   9.830  0.3514 -0.1241  0.0115
  236loPI   C2B 3774  13.025   2.535   9.376  0.0094  0.3298  0.0331
  236loPI   C3B 3775  13.088   2.526   8.966  0.2518 -0.1956  0.0633
  236loPI   C4B 3776  13.099   2.661   8.571  0.1358 -0.1676  0.1875
  237loPI    C1 3777  15.547   8.106  10.461  0.1108  0.1782 -0.0429
  237loPI    C2 3778  15.569   8.413  10.716  0.2818  0.1558 -0.0291
  237loPI    C3 3779  15.752   8.434  10.361  0.2439  0.0931 -0.0526
  237loPI   PO4 3780  15.216   8.046  10.392 -0.1621 -0.0144  0.0054
  237loPI   GL1 3781  15.009   8.121  10.037  0.0472  0.1132  0.1005
  237loPI   GL2 3782  14.852   8.021   9.898  0.0706 -0.0254 -0.3196
  237loPI   C1A 3783  14.925   8.536   9.813 -0.0211  0.1105  0.4204
  237loPI   C2A 3784  14.825   8.609   9.475  0.0979  0.1830  0.2162
  237loPI   C3A 3785  14.716   8.815   9.059 -0.0100  0.0818 -0.3925
  237loPI   C4A 3786  14.768   8.882   8.540  0.3181  0.1394  0.0526
  237loPI   C5A 3787  14.562   8.951   8.241 -0.0065  0.0091  0.0825
  237loPI   C6A 3788  14.328   8.699   8.026  0.2040 -0.1400  0.0953
  237loPI   C1B 3789  15.043   8.033   9.534  0.0256 -0.2129 -0.3102
  237loPI   C2B 3790  14.850   8.179   9.183 -0.3011  0.1762 -0.2032
  237loPI   C3B 3791  14.503   8.083   8.825 -0.1459 -0.2534 -0.2021
  237loPI   C4B 3792  14.143   8.052   8.536  0.1314 -0.0979  0.3237
  238loPI    C1 3793   0.489  18.023  10.188  0.2205  0.2456 -0.3525
  238loPI    C2 3794   0.823  17.804  10.173 -0.1223 -0.3044 -0.2693
  238loPI    C3 3795   0.671  17.914  10.527  0.2143  0.3558 -0.3133
  238loPI   PO4 3796   0.402  17.933   9.928  0.0437  0.1302 -0.2244
  238loPI   GL1 3797   0.177  17.839   9.585  0.1089  0.1719 -0.1304
  238loPI   GL2 3798   0.312  18.149   9.494 -0.3070  0.2195 -0.0265
  238loPI   C1A 3799  -0.111  17.898   9.243  0.0348  0.2525 -0.0858
  238loPI   C2A 3800  -0.048  18.049   8.776 -0.1929 -0.2468  0.3044
  238loPI   C3A 3801  -0.005  18.346   8.380 -0.1442 -0.1048  0.2249
  238loPI   C4A 3802   0.061  18.091   7.997  0.0446 -0.0991  0.1327
  238loPI   C5A 3803   0.429  17.863   8.141  0.0030  0.2082  0.3357
  238loPI   C6A 3804   0.681  17.551   8.306  0.2616 -0.0424 -0.0876
  238loPI   C1B 3805   0.345  18.053   9.089 -0.2216 -0.0015  0.2166
  238loPI   C2B 3806   0.461  18.169   8.671  0.0059 -0.3552  0.1417
  238loPI   C3B 3807   0.815  18.043   8.396 -0.0488 -0.0057  0.1613
  238loPI   C4B 3808   1.141  17.816   8.068  0.1007 -0.0938 -0.1424
  239loPI    C1 3809  15.298   6.195  10.628  0.2692  0.0604 -0.0529
  239loPI    C2 3810  15.130   6.543  10.525 -0.0984 -0.1580 -0.2103
  239loPI    C3 3811  15.055   6.382  10.884  0.2302  0.0172 -0.0584
  239loPI   PO4 3812  15.379   6.100  10.406  0.0212  0.0710  0.1942
  239loPI   GL1 3813  15.652   6.237  10.042 -0.0213  0.1755  0.0359
  239loPI   GL2 3814  15.807   6.061   9.711 -0.1349 -0.1890 -0.0748
  239loPI   C1A 3815  15.435   6.343   9.574 -0.1624 -0.1382 -0.1701
  239loPI   C2A 3816  15.416   6.334   9.188  0.1018  0.2403  0.0824
  239loPI   C3A 3817  15.398   6.526   8.855  0.3202 -0.0777 -0.2918
  239loPI   C4A 3818  15.243   6.670   8.466 -0.1936 -0.1877 -0.0596
  239loPI   C5A 3819  15.146   6.508   8.077  0.0704 -0.1847 -0.0088
  239loPI   C6A 3820  15.425   6.135   7.876 -0.0476 -0.0145  0.0230
  239loPI   C1B 3821  15.906   6.217   9.277  0.3685  0.0246 -0.0280
  239loPI   C2B 3822  15.922   6.315   8.850  0.1748  0.0095 -0.0764
  239loPI   C3B 3823  15.761   6.597   8.531  0.4302 -0.0919  0.3066
  239loPI   C4B 3824  15.601   6.646   8.088  0.1069 -0.1776  0.1967
  240loPI    C1 3825   2.801  10.628  10.451 -0.0137  0.2414  0.1341
  240loPI    C2 3826   3.155  10.582  10.632  0.0428 -0.0384 -0.0405
  240loPI    C3 3827   2.874  10.815  10.797  0.3095  0.1934  0.0949
  240loPI   PO4 3828   2.730  10.392  10.367 -0.0057  0.2270  0.0261
  240loPI   GL1 3829   2.662  10.216   9.945  0.2401 -0.1334 -0.1391
  240loPI   GL2 3830   2.933  10.042  10.020 -0.0846  0.0738 -0.0240
  240loPI   C1A 3831   2.583  10.617   9.630  0.0762  0.1175 -0.0334
  240loPI   C2A 3832   2.852  10.838   9.358  0.0080  0.2254 -0.0801
  240loPI   C3A 3833   2.964  10.986   9.011 -0.1017 -0.3002  0.1568
  240loPI   C4A 3834   2.989  11.057   8.578  0.0512  0.0674  0.0781
  240loPI   C5A 3835   3.158  10.936   8.193  0.1019  0.0558 -0.1805
  240loPI   C6A 3836   3.324  10.819   7.902 -0.1956 -0.1334  0.0777
  240loPI   C1B 3837   2.914  10.122   9.539  0.1709 -0.1025 -0.3072
  240loPI   C2B 3838   3.062   9.939   9.129  0.0039 -0.0479  0.0605
  240loPI   C3B 3839   3.132   9.911   8.718 -0.2434 -0.1336 -0.0132
  240loPI   C4B 3840   3.436   9.919   8.385 -0.2807 -0.1528 -0.1673
  241loPI    C1 3841  11.222   6.992  10.278 -0.0249  0.0811 -0.2183
  241loPI    C2 3842  11.588   6.880  10.162 -0.0048 -0.0033 -0.0756
  241loPI    C3 3843  11.518   6.969  10.546 -0.1685 -0.1300 -0.0750
  241loPI   PO4 3844  11.135   7.138  10.102 -0.0560 -0.0356  0.5101
  241loPI   GL1 3845  10.838   6.787   9.887 -0.2306  0.4044  0.1531
  241loPI   GL2 3846  10.599   6.935   9.887  0.5991 -0.1078 -0.1034
  241loPI   C1A 3847  10.957   6.692   9.454 -0.0262  0.3351 -0.0602
  241loPI   C2A 3848  11.278   6.621   9.225  0.0682  0.0621  0.1596
  241loPI   C3A 3849  11.626   6.576   8.910  0.0619 -0.0505  0.1077
  241loPI   C4A 3850  11.960   6.618   8.501  0.0248 -0.1999  0.0641
  241loPI   C5A 3851  12.387   6.815   8.309  0.3516 -0.0799  0.3669
  241loPI   C6A 3852  12.765   6.831   8.093 -0.0438 -0.2453  0.4686
  241loPI   C1B 3853  10.532   7.080   9.489  0.0827  0.0447  0.0391
  241loPI   C2B 3854  10.701   7.038   9.145  0.2874 -0.1774 -0.0534
  241loPI   C3B 3855  10.920   6.808   8.861 -0.1592  0.1095  0.1135
  241loPI   C4B 3856  11.192   6.536   8.632 -0.1869 -0.0104  0.2635
  242loPI    C1 3857  11.662   8.003  11.055 -0.1041  0.0913 -0.0305
  242loPI    C2 3858  11.701   7.813  11.405  0.2767  0.2515  0.0187
  242loPI    C3 3859  11.337   7.898  11.263  0.1158  0.0437  0.2971
  242loPI   PO4 3860  11.886   7.860  10.872  0.2006 -0.0115  0.0006
  242loPI   GL1 3861  11.902   7.999  10.469  0.1149 -0.0104 -0.2444
  242loPI   GL2 3862  11.754   7.867  10.205  0.5323 -0.5593 -0.0960
  242loPI   C1A 3863  12.044   8.230  10.076  0.1752 -0.0348  0.1079
  242loPI   C2A 3864  12.040   8.602   9.883  0.0016  0.2048 -0.1934
  242loPI   C3A 3865  12.200   8.797   9.560 -0.0331 -0.0868  0.0438
  242loPI   C4A 3866  12.223   9.031   9.206  0.1767 -0.1205  0.0939
  242loPI   C5A 3867  12.313   9.064   8.717 -0.1313 -0.0747  0.1010
  242loPI   C6A 3868  12.133   9.303   8.321  0.0998  0.3306  0.0687
  242loPI   C1B 3869  11.756   7.864   9.721 -0.0558 -0.0246  0.0868
  242loPI   C2B 3870  11.841   8.018   9.324 -0.2783 -0.1124  0.0763
  242loPI   C3B 3871  11.812   7.969   8.882 -0.0881  0.1027 -0.1766
  242loPI   C4B 3872  11.549   7.999   8.531  0.0387  0.1913  0.2106
  243loPI    C1 3873  16.018   7.457  10.604 -0.0235  0.1800  0.0431
  243loPI    C2 3874  16.245   7.693  10.834  0.1446 -0.0245  0.0900
  243loPI    C3 3875  16.163   7.318  10.950 -0.2019  0.0389  0.0630
  243loPI   PO4 3876  15.809   7.624  10.564  0.4014 -0.2592 -0.2485
  243loPI   GL1 3877  15.695   7.730  10.182  0.0850 -0.3525  0.4378
  243loPI   GL2 3878  15.374   7.769  10.003 -0.0471  0.0799 -0.1691
  243loPI   C1A 3879  15.899   8.081   9.945  0.0791 -0.0102 -0.1773
  243loPI   C2A 3880  15.938   8.220   9.654 -0.1993  0.1251 -0.0137
  243loPI   C3A 3881  15.954   8.335   9.321  0.2303 -0.0196 -0.1926
  243loPI   C4A 3882  15.897   8.309   8.869 -0.0054 -0.3139 -0.2131
  243loPI   C5A 3883  15.983   8.138   8.401 -0.2094  0.0751  0.1291
  243loPI   C6A 3884  16.201   8.152   8.014  0.0962 -0.2555  0.0889
  243loPI   C1B 3885  15.474   7.768   9.510 -0.1146 -0.1113 -0.1294
  243loPI   C2B 3886  15.239   7.818   9.127 -0.0763 -0.4308  0.1802
  243loPI   C3B 3887  15.190   7.994   8.818  0.1547  0.2986 -0.1496
  243loPI   C4B 3888  15.383   8.270   8.654  0.1108 -0.2613 -0.1373
  244loPI    C1 3889   0.591   5.166  10.317  0.0339  0.1882 -0.1226
  244loPI    C2 3890   0.680   4.846  10.541  0.0111  0.1791 -0.1264
  244loPI    C3 3891   0.802   5.210  10.654  0.0489  0.1674 -0.1291
  244loPI   PO4 3892   0.611   5.119  10.100 -0.1207 -0.0422  0.1410
  244loPI   GL1 3893   0.726   4.877   9.771 -0.0257 -0.0482  0.0935
  244loPI   GL2 3894   0.769   4.586   9.949 -0.1199 -0.0280  0.0291
  244loPI   C1A 3895   0.909   4.896   9.373  0.1380 -0.0480 -0.4104
  244loPI   C2A 3896   0.808   5.048   8.966  0.1323 -0.0699  0.0666
  244loPI   C3A 3897   1.071   5.132   8.644 -0.0218  0.1142  0.1375
  244loPI   C4A 3898   1.168   5.466   8.356  0.0575  0.1662  0.0048
  244loPI   C5A 3899   1.028   5.617   7.939 -0.1797  0.0085 -0.0473
  244loPI   C6A 3900   0.796   5.571   7.591 -0.0098 -0.0328  0.0843
  244loPI   C1B 3901   0.807   4.446   9.476  0.0986  0.2451 -0.1113
  244loPI   C2B 3902   0.937   4.489   9.082 -0.0963 -0.1195  0.0846
  244loPI   C3B 3903   1.144   4.215   8.792  0.0133 -0.2096  0.0214
  244loPI   C4B 3904   0.953   4.325   8.332 -0.3393  0.3876  0.0843
  245loPI    C1 3905   0.249  10.806  10.528  0.1725 -0.0361  0.0134
  245loPI    C2 3906   0.417  10.560  10.262  0.3094  0.0098  0.0567
  245loPI    C3 3907   0.389  10.450  10.645 -0.1680 -0.1874 -0.0282
  245loPI   PO4 3908   0.259  11.033  10.352  0.1618  0.0512 -0.0502
  245loPI   GL1 3909   0.154  11.217  10.002 -0.1364  0.0079 -0.0968
  245loPI   GL2 3910   0.437  11.311   9.853 -0.0091  0.2530 -0.1224
  245loPI   C1A 3911  -0.041  11.147   9.666  0.0894  0.2256  0.0595
  245loPI   C2A 3912   0.242  11.298   9.335  0.0869 -0.1244  0.1421
  245loPI   C3A 3913   0.297  11.551   8.961  0.2545 -0.3087 -0.3222
  245loPI   C4A 3914   0.410  11.708   8.546 -0.3307 -0.3127  0.0147
  245loPI   C5A 3915   0.367  11.472   8.218 -0.1193 -0.0375  0.0991
  245loPI   C6A 3916   0.225  11.179   7.999  0.0341  0.1513  0.2009
  245loPI   C1B 3917   0.687  11.409   9.415 -0.2291  0.2827  0.0585
  245loPI   C2B 3918   0.699  11.336   8.874 -0.0500 -0.1071 -0.3329
  245loPI   C3B 3919   0.788  11.136   8.499  0.1278  0.2929 -0.0489
  245loPI   C4B 3920   0.532  10.658   8.472 -0.0165  0.1324 -0.0143
  246loPI    C1 3921  13.098  16.892  10.557 -0.4154 -0.2897  0.0820
  246loPI    C2 3922  13.372  16.708  10.784 -0.2426 -0.2180 -0.0654
  246loPI    C3 3923  13.059  16.890  10.955 -0.0426 -0.0484  0.1250
  246loPI   PO4 3924  12.986  16.715  10.389 -0.0573  0.1595 -0.2039
  246loPI   GL1 3925  13.015  16.552  10.100  0.0827 -0.0036 -0.1294
  246loPI   GL2 3926  12.783  16.494   9.887 -0.1032 -0.2975 -0.1811
  246loPI   C1A 3927  13.284  16.655   9.766  0.2450 -0.0232  0.2118
  246loPI   C2A 3928  13.183  16.743   9.384 -0.2302  0.0332  0.2796
  246loPI   C3A 3929  13.127  16.703   8.905  0.2060 -0.1186 -0.2727
  246loPI   C4A 3930  13.229  16.881   8.569 -0.2565  0.0403  0.2555
  246loPI   C5A 3931  13.515  17.018   8.305  0.0271 -0.0926  0.1810
  246loPI   C6A 3932  13.952  16.816   8.223 -0.0101 -0.0082  0.0841
  246loPI   C1B 3933  12.727  16.455   9.551  0.2023  0.0817 -0.0040
  246loPI   C2B 3934  12.715  16.374   9.114 -0.0831 -0.0424 -0.1123
  246loPI   C3B 3935  12.620  16.212   8.735  0.0655  0.1230  0.0493
  246loPI   C4B 3936  12.444  16.368   8.314  0.1118  0.0854 -0.1861
  247loPI    C1 3937   9.467   4.703  10.709  0.1678  0.0142  0.3006
  247loPI    C2 3938   9.086   4.768  10.606  0.2188  0.0035  0.1004
  247loPI    C3 3939   9.171   4.584  10.952  0.0416 -0.0360  0.1244
  247loPI   PO4 3940   9.580   4.594  10.469  0.0306  0.0878 -0.2658
  247loPI   GL1 3941   9.670   4.848  10.180 -0.4874 -0.0339 -0.2965
  247loPI   GL2 3942   9.460   5.089  10.287  0.1025  0.1180 -0.1077
  247loPI   C1A 3943   9.687   5.138   9.765  0.0738 -0.0827  0.1954
  247loPI   C2A 3944   9.746   5.288   9.267 -0.0459 -0.0872  0.0614
  247loPI   C3A 3945   9.601   5.234   8.890 -0.0295 -0.1120 -0.2816
  247loPI   C4A 3946   9.539   4.839   8.657 -0.1507  0.2032  0.1153
  247loPI   C5A 3947   9.361   4.448   8.601  0.0253 -0.2607  0.0769
  247loPI   C6A 3948   8.992   4.367   8.894  0.0325 -0.2440 -0.0705
  247loPI   C1B 3949   9.220   4.978   9.876  0.2955 -0.1388 -0.0398
  247loPI   C2B 3950   9.333   5.013   9.410  0.2178 -0.0526 -0.1363
  247loPI   C3B 3951   9.301   4.886   9.061  0.0673  0.1228 -0.1543
  247loPI   C4B 3952   8.973   4.826   8.713  0.1257  0.3343  0.1739
  248loPI    C1 3953   0.082   0.205  10.041 -0.0619  0.1169 -0.1646
  248loPI    C2 3954   0.329   0.421  10.269 -0.1684  0.1052 -0.0370
  248loPI    C3 3955   0.405   0.376   9.879  0.0272  0.1063  0.0001
  248loPI   PO4 3956  -0.202   0.266  10.079 -0.0799  0.0418 -0.1130
  248loPI   GL1 3957  -0.503   0.422   9.806  0.3692 -0.0734  0.0026
  248loPI   GL2 3958  -0.718   0.210   9.847 -0.1546  0.0382  0.0064
  248loPI   C1A 3959  -0.425   0.650   9.412  0.5047 -0.0810  0.2657
  248loPI   C2A 3960  -0.236   0.496   9.039  0.2822  0.1729 -0.0699
  248loPI   C3A 3961  -0.394   0.613   8.658  0.2174 -0.0780  0.2549
  248loPI   C4A 3962  -0.649   0.598   8.373  0.1472 -0.1471  0.0736
  248loPI   C5A 3963  -0.953   0.554   7.991  0.1023 -0.0852 -0.3075
  248loPI   C6A 3964  -1.358   0.391   7.934 -0.0533 -0.0103  0.2352
  248loPI   C1B 3965  -0.704   0.032   9.479 -0.1555  0.0720 -0.3456
  248loPI   C2B 3966  -0.562   0.050   9.061 -0.1125  0.0098  0.2309
  248loPI   C3B 3967  -0.488   0.083   8.623  0.0976  0.1018 -0.2675
  248loPI   C4B 3968  -0.690  -0.234   8.242 -0.2499 -0.1621  0.3146
  249loPI    C1 3969   1.179  12.711  10.326  0.0546 -0.0561  0.2024
  249loPI    C2 3970   1.399  12.512  10.058  0.0820  0.1244  0.0890
  249loPI    C3 3971   1.455  12.450  10.449 -0.0955 -0.2885  0.0540
  249loPI   PO4 3972   1.219  12.948  10.284  0.0149 -0.0915 -0.1251
  249loPI   GL1 3973   1.474  13.231   9.984  0.1969 -0.0687  0.0025
  249loPI   GL2 3974   1.667  12.991  10.066 -0.2326 -0.1965 -0.0624
  249loPI   C1A 3975   1.246  13.205   9.570  0.0984  0.2896 -0.2319
  249loPI   C2A 3976   1.173  13.206   9.186  0.2462 -0.2307  0.0490
  249loPI   C3A 3977   1.177  13.047   8.752  0.0373  0.2073 -0.0187
  249loPI   C4A 3978   1.146  13.062   8.363  0.5869  0.0200  0.2921
  249loPI   C5A 3979   1.161  13.060   7.979  0.1317 -0.0653 -0.0828
  249loPI   C6A 3980   1.371  12.846   7.609  0.0158  0.0510  0.2401
  249loPI   C1B 3981   1.523  12.813   9.643  0.0238  0.3692  0.1844
  249loPI   C2B 3982   1.389  12.763   9.204 -0.1567 -0.0681 -0.1135
  249loPI   C3B 3983   1.484  12.558   8.810  0.1416  0.1297  0.0613
  249loPI   C4B 3984   1.405  12.633   8.409  0.0012  0.0109  0.3064
  250loPI    C1 3985   1.727   6.593  10.800  0.2243 -0.0776  0.1190
  250loPI    C2 3986   1.631   6.590  11.188  0.1399  0.0488  0.0998
  250loPI    C3 3987   1.908   6.845  11.052  0.1595  0.0141  0.0747
  250loPI   PO4 3988   1.565   6.620  10.642 -0.0467 -0.2203  0.1282
  250loPI   GL1 3989   1.575   6.675  10.153 -0.0784  0.1312 -0.0574
  250loPI   GL2 3990   1.309   6.844  10.245 -0.0353  0.1707  0.1262
  250loPI   C1A 3991   1.610   6.640   9.785  0.1567  0.0441  0.0279
  250loPI   C2A 3992   1.586   6.579   9.318 -0.0489 -0.2272 -0.0897
  250loPI   C3A 3993   1.604   6.444   8.836  0.3136 -0.0253 -0.1557
  250loPI   C4A 3994   1.551   6.452   8.500 -0.1685  0.1943  0.3743
  250loPI   C5A 3995   1.747   6.274   8.150 -0.4403  0.1720 -0.1534
  250loPI   C6A 3996   1.916   6.114   7.726  0.0264 -0.0257  0.2234
  250loPI   C1B 3997   1.105   6.799   9.850 -0.1692  0.1781 -0.0566
  250loPI   C2B 3998   1.199   6.804   9.470  0.1830 -0.1324 -0.0112
  250loPI   C3B 3999   1.145   6.701   9.043 -0.0213  0.1886  0.2624
  250loPI   C4B 4000   1.153   6.690   8.567  0.0376  0.0026 -0.0237
  251loPI    C1 4001   9.879   3.008  10.587  0.1535 -0.2439  0.0511
  251loPI    C2 4002  10.171   3.281  10.594  0.0471 -0.1271 -0.0258
  251loPI    C3 4003   9.821   3.366  10.419 -0.0648 -0.2343  0.1426
  251loPI   PO4 4004   9.980   2.814  10.543 -0.0475  0.1219  0.1522
  251loPI   GL1 4005   9.767   2.654  10.181  0.1554 -0.4223 -0.0728
  251loPI   GL2 4006   9.888   2.309  10.182 -0.0782  0.0680 -0.1741
  251loPI   C1A 4007   9.578   2.723   9.671 -0.2176  0.0524 -0.1632
  251loPI   C2A 4008   9.643   2.702   9.312  0.1426 -0.1367  0.0109
  251loPI   C3A 4009   9.851   2.678   8.965  0.2417  0.0776 -0.0553
  251loPI   C4A 4010   9.698   2.844   8.528 -0.1913  0.0383 -0.1202
  251loPI   C5A 4011   9.813   3.010   8.109  0.0818  0.2101  0.0037
  251loPI   C6A 4012   9.726   2.907   7.566  0.0056 -0.1122  0.2843
  251loPI   C1B 4013   9.445   2.383   9.990  0.3477  0.0422  0.1755
  251loPI   C2B 4014   9.273   2.326   9.658 -0.2098  0.1407 -0.0455
  251loPI   C3B 4015   9.462   2.211   9.307 -0.1071 -0.1685  0.1737
  251loPI   C4B 4016   9.513   2.308   8.902  0.0553  0.2961 -0.1804
  252loPI    C1 4017   9.370   3.579  10.928  0.0856 -0.1683  0.0446
  252loPI    C2 4018   9.479   3.344  11.233 -0.0180  0.0429  0.2471
  252loPI    C3 4019   9.404   3.732  11.296 -0.0535  0.0857 -0.0459
  252loPI   PO4 4020   9.423   3.355  10.732 -0.1420 -0.0166  0.0062
  252loPI   GL1 4021   9.381   3.432  10.281 -0.0270 -0.0150 -0.0320
  252loPI   GL2 4022   9.163   3.765  10.293 -0.1324 -0.2122  0.0184
  252loPI   C1A 4023   9.646   3.612  10.026  0.2732  0.0568  0.2265
  252loPI   C2A 4024   9.681   3.655   9.645 -0.1747 -0.1944  0.0990
  252loPI   C3A 4025   9.566   3.783   9.263  0.0358  0.2426  0.0177
  252loPI   C4A 4026   9.638   3.580   8.862 -0.0242 -0.0671 -0.0472
  252loPI   C5A 4027   9.434   3.386   8.541 -0.0021  0.0395 -0.0011
  252loPI   C6A 4028   9.102   3.457   8.166  0.0552  0.1966  0.0453
  252loPI   C1B 4029   9.194   3.606   9.829  0.0062  0.0191  0.1078
  252loPI   C2B 4030   9.120   3.495   9.423 -0.2460 -0.1258  0.0883
  252loPI   C3B 4031   9.119   3.380   9.063 -0.0548  0.2205 -0.2573
  252loPI   C4B 4032   9.413   3.084   8.897 -0.1914  0.1675  0.1136
  253loPI    C1 4033   4.041  11.077  10.374  0.0903 -0.0111  0.0181
  253loPI    C2 4034   3.779  11.359  10.482  0.0790 -0.0655  0.1341
  253loPI    C3 4035   4.155  11.371  10.620  0.1297 -0.0045 -0.0080
  253loPI   PO4 4036   4.046  11.100  10.101 -0.1897  0.1025 -0.0946
  253loPI   GL1 4037   4.265  11.277   9.752  0.1625 -0.2033  0.2481
  253loPI   GL2 4038   4.107  11.471   9.544  0.2113  0.0837 -0.0915
  253loPI   C1A 4039   4.439  11.098   9.335 -0.3426  0.0050  0.2170
  253loPI   C2A 4040   4.493  11.007   8.853 -0.0116  0.0188 -0.2351
  253loPI   C3A 4041   4.353  11.002   8.557 -0.0042 -0.1245  0.3070
  253loPI   C4A 4042   4.109  11.317   8.311 -0.1278  0.0220 -0.0295
  253loPI   C5A 4043   4.144  11.711   8.070 -0.1088 -0.1377  0.2427
  253loPI   C6A 4044   4.493  11.806   7.824 -0.0304 -0.2547  0.2018
  253loPI   C1B 4045   4.114  11.603   9.171  0.0008  0.1597 -0.0607
  253loPI   C2B 4046   4.317  11.582   8.704  0.1131 -0.2214  0.2725
  253loPI   C3B 4047   4.753  11.780   8.673 -0.0104 -0.0982  0.0660
  253loPI   C4B 4048   5.122  11.695   8.338 -0.1127  0.0840  0.0874
  254loPI    C1 4049   5.636   0.586  10.256  0.2240 -0.1421  0.1633
  254loPI    C2 4050   5.393   0.707   9.962  0.1613 -0.1514  0.2110
  254loPI    C3 4051   5.512   0.966  10.243  0.3376 -0.1068  0.0968
  254loPI   PO4 4052   5.549   0.348  10.274 -0.0003  0.2302 -0.1306
  254loPI   GL1 4053   5.616   0.126   9.920  0.3847  0.1762  0.1122
  254loPI   GL2 4054   5.698   0.345   9.804  0.0287 -0.1494  0.1405
  254loPI   C1A 4055   5.413  -0.071   9.556 -0.2029  0.3652 -0.0792
  254loPI   C2A 4056   5.500  -0.349   9.184 -0.1632  0.1733 -0.3380
  254loPI   C3A 4057   5.572  -0.350   8.784  0.3210  0.0586 -0.2379
  254loPI   C4A 4058   5.528  -0.489   8.408  0.0869 -0.2638  0.0649
  254loPI   C5A 4059   5.314  -0.274   8.190 -0.0597 -0.3259 -0.4171
  254loPI   C6A 4060   4.831  -0.091   8.344  0.1143 -0.0684  0.2544
  254loPI   C1B 4061   5.584   0.558   9.492 -0.0458 -0.1689  0.1103
  254loPI   C2B 4062   5.371   0.660   9.155 -0.1993  0.0211 -0.3314
  254loPI   C3B 4063   5.415   0.533   8.747  0.0746 -0.2099 -0.0402
  254loPI   C4B 4064   5.515   0.643   8.394  0.0004  0.3376  0.0638
  255loPI    C1 4065   7.706   3.790  10.911  0.1594 -0.0102  0.1769
  255loPI    C2 4066   8.016   3.980  11.078  0.0137  0.3805  0.0159
  255loPI    C3 4067   7.647   4.032  11.224  0.0090 -0.0296  0.1645
  255loPI   PO4 4068   7.743   3.828  10.649  0.2438 -0.1074 -0.0282
  255loPI   GL1 4069   7.585   3.936  10.245  0.1443 -0.0543 -0.3261
  255loPI   GL2 4070   7.632   4.311  10.268 -0.2715 -0.0806  0.1014
  255loPI   C1A 4071   7.581   3.981   9.857  0.2478 -0.1831  0.2544
  255loPI   C2A 4072   7.741   3.946   9.362  0.1307 -0.3015  0.2697
  255loPI   C3A 4073   7.715   4.264   8.992 -0.2246 -0.0040 -0.1532
  255loPI   C4A 4074   7.874   4.507   8.734 -0.1879  0.0759  0.1940
  255loPI   C5A 4075   7.932   4.810   8.456  0.0380 -0.2048  0.1060
  255loPI   C6A 4076   8.039   5.252   8.386 -0.2267 -0.0365  0.1537
  255loPI   C1B 4077   7.875   4.394   9.923  0.0049  0.0214 -0.0869
  255loPI   C2B 4078   8.067   4.279   9.525 -0.0057  0.0052  0.1841
  255loPI   C3B 4079   8.175   4.407   9.175 -0.1168 -0.2831  0.1925
  255loPI   C4B 4080   8.417   4.454   8.692  0.0869  0.2723 -0.0614
  256loPI    C1 4081  15.839   1.942  10.336  0.1693 -0.2443  0.1969
  256loPI    C2 4082  16.062   2.188  10.559  0.1549 -0.3456  0.3242
  256loPI    C3 4083  16.216   2.020  10.230 -0.0614  0.4198 -0.1950
  256loPI   PO4 4084  15.560   2.151  10.270  0.1662 -0.0818  0.1821
  256loPI   GL1 4085  15.472   2.233   9.869  0.0498 -0.0684  0.2057
  256loPI   GL2 4086  15.563   2.571   9.888  0.1972 -0.1316  0.2298
  256loPI   C1A 4087  15.289   2.070   9.555  0.1985 -0.1939 -0.2073
  256loPI   C2A 4088  15.437   1.865   9.192 -0.1561  0.1169 -0.3636
  256loPI   C3A 4089  15.326   1.850   8.810 -0.0724  0.0242  0.0194
  256loPI   C4A 4090  15.448   1.831   8.392  0.1942 -0.2077  0.3689
  256loPI   C5A 4091  15.753   1.543   8.085  0.0179 -0.0147  0.1920
  256loPI   C6A 4092  16.106   1.467   7.809 -0.2174  0.3126 -0.0207
  256loPI   C1B 4093  15.524   2.551   9.393  0.0771  0.2537  0.4026
  256loPI   C2B 4094  15.707   2.793   9.066  0.0582 -0.0473  0.0329
  256loPI   C3B 4095  15.988   2.620   8.727  0.0010  0.2148 -0.0218
  256loPI   C4B 4096  16.214   2.305   8.571  0.0381  0.2661 -0.1742
  257loPI    C1 4097   9.509  12.406  10.474 -0.0995 -0.1661  0.1224
  257loPI    C2 4098   9.283  12.474  10.797 -0.2140  0.2401 -0.0362
  257loPI    C3 4099   9.270  12.727  10.488  0.0583 -0.0257 -0.2712
  257loPI   PO4 4100   9.788  12.391  10.495  0.2182  0.1177 -0.0673
  257loPI   GL1 4101   9.941  12.325  10.065 -0.2060 -0.2975 -0.1391
  257loPI   GL2 4102   9.593  12.248   9.982  0.0141  0.1501  0.3527
  257loPI   C1A 4103  10.224  12.515   9.851  0.0575 -0.2523  0.1325
  257loPI   C2A 4104  10.288  12.753   9.466  0.0213 -0.0573 -0.0565
  257loPI   C3A 4105  10.418  12.772   9.072 -0.0931 -0.1657 -0.2325
  257loPI   C4A 4106  10.444  12.889   8.617  0.1984 -0.2130 -0.0332
  257loPI   C5A 4107  10.241  12.857   8.284 -0.1107 -0.0414  0.2493
  257loPI   C6A 4108   9.915  12.911   8.140  0.1860  0.1229  0.0617
  257loPI   C1B 4109   9.335  12.588   9.788 -0.0475 -0.0986 -0.1525
  257loPI   C2B 4110   9.286  12.559   9.366  0.0056 -0.0875  0.3769
  257loPI   C3B 4111   9.269  12.489   8.954 -0.1589  0.3726  0.3232
  257loPI   C4B 4112   9.500  12.364   8.600  0.1600 -0.1581  0.0277
  258loPI    C1 4113  16.888  14.973  10.599 -0.0106 -0.0434 -0.0413
  258loPI    C2 4114  16.511  14.844  10.636 -0.1426  0.3088 -0.1140
  258loPI    C3 4115  16.695  15.017  10.946  0.0090  0.0192 -0.0382
  258loPI   PO4 4116  17.116  14.733  10.553 -0.1617 -0.0970 -0.0072
  258loPI   GL1 4117  17.217  14.696  10.127 -0.1395 -0.1302 -0.0446
  258loPI   GL2 4118  17.438  14.891  10.031  0.0579 -0.0072 -0.1645
  258loPI   C1A 4119  17.277  14.318   9.794 -0.0982  0.0771  0.3013
  258loPI   C2A 4120  17.230  14.354   9.391  0.2242  0.0890  0.1155
  258loPI   C3A 4121  17.020  14.431   8.907 -0.1141  0.2210 -0.0816
  258loPI   C4A 4122  17.150  14.452   8.396 -0.0538  0.2822 -0.0613
  258loPI   C5A 4123  17.468  14.613   8.048 -0.2275  0.3965  0.0702
  258loPI   C6A 4124  17.570  14.947   8.004  0.1313 -0.0457 -0.2280
  258loPI   C1B 4125  17.241  14.851   9.645  0.1308  0.2773 -0.0031
  258loPI   C2B 4126  17.160  14.828   9.201  0.0064  0.3038  0.1276
  258loPI   C3B 4127  16.834  14.870   8.855  0.1960  0.1363  0.0461
  258loPI   C4B 4128  16.648  14.826   8.376  0.1529 -0.0900 -0.0621
  259loPI    C1 4129   6.142  10.231  10.706 -0.1554 -0.1139  0.3118
  259loPI    C2 4130   6.120  10.586  10.523  0.0210 -0.1760  0.1674
  259loPI    C3 4131   6.010  10.552  10.906 -0.0145  0.0304  0.1770
  259loPI   PO4 4132   6.323  10.073  10.394 -0.2445  0.1775 -0.0867
  259loPI   GL1 4133   6.409   9.905   9.983  0.1518  0.4292 -0.0465
  259loPI   GL2 4134   6.427  10.150   9.921 -0.0745  0.0315  0.1127
  259loPI   C1A 4135   6.477   9.767   9.592  0.1498 -0.1587  0.0026
  259loPI   C2A 4136   6.459   9.717   9.093  0.0177  0.3072  0.1714
  259loPI   C3A 4137   6.518   9.793   8.630  0.1399 -0.0142  0.1387
  259loPI   C4A 4138   6.488   9.879   8.265 -0.1929 -0.1207  0.0719
  259loPI   C5A 4139   6.733   9.943   7.942  0.0704 -0.0659  0.1325
  259loPI   C6A 4140   6.749  10.023   7.550 -0.2220 -0.2274  0.3126
  259loPI   C1B 4141   6.183  10.391   9.558  0.0225  0.0079  0.1890
  259loPI   C2B 4142   6.148  10.346   9.119 -0.2294  0.3480 -0.1578
  259loPI   C3B 4143   6.266  10.245   8.633  0.1220 -0.1853  0.0296
  259loPI   C4B 4144   6.224  10.282   8.157  0.0922  0.1370  0.2258
  260loPI    C1 4145   8.073  18.087  11.069  0.1057 -0.2350  0.3351
  260loPI    C2 4146   8.216  18.299  11.377 -0.0097  0.2232  0.0829
  260loPI    C3 4147   7.824  18.302  11.296  0.0081  0.0340 -0.0163
  260loPI   PO4 4148   8.220  18.115  10.833 -0.0853 -0.0457 -0.2147
  260loPI   GL1 4149   8.322  17.767  10.432  0.1081  0.0840 -0.1711
  260loPI   GL2 4150   8.364  17.548  10.143 -0.0491 -0.2956  0.0796
  260loPI   C1A 4151   8.469  18.116  10.261 -0.1545  0.0804 -0.0194
  260loPI   C2A 4152   8.617  18.285   9.943  0.2887  0.0246  0.0962
  260loPI   C3A 4153   8.599  18.231   9.541  0.1262  0.2610 -0.5143
  260loPI   C4A 4154   8.710  18.373   9.117 -0.0110  0.0354  0.0447
  260loPI   C5A 4155   8.753  18.301   8.762 -0.0097  0.2335  0.1792
  260loPI   C6A 4156   8.876  18.246   8.309  0.1016 -0.0230 -0.0123
  260loPI   C1B 4157   8.296  17.438   9.684  0.0839  0.2915  0.0036
  260loPI   C2B 4158   8.353  17.401   9.205 -0.0557  0.1476  0.1473
  260loPI   C3B 4159   8.381  17.461   8.780  0.1898 -0.0464  0.0207
  260loPI   C4B 4160   8.200  17.366   8.445 -0.0382  0.1193  0.0548
  261loPI    C1 4161   4.111  17.446  10.531 -0.0991  0.2470 -0.1748
  261loPI    C2 4162   4.436  17.471  10.762 -0.1050 -0.1890 -0.1113
  261loPI    C3 4163   4.086  17.615  10.892 -0.0151 -0.0407 -0.0312
  261loPI   PO4 4164   4.272  17.453  10.208  0.2087  0.1183 -0.3909
  261loPI   GL1 4165   4.266  17.801   9.960 -0.1401 -0.0790 -0.0342
  261loPI   GL2 4166   4.376  17.892   9.736 -0.0116 -0.0351  0.1643
  261loPI   C1A 4167   3.952  17.848   9.525  0.1303 -0.0095 -0.2931
  261loPI   C2A 4168   4.117  17.836   9.160  0.1709 -0.0043 -0.0309
  261loPI   C3A 4169   4.254  17.800   8.701 -0.0798  0.0404 -0.0243
  261loPI   C4A 4170   4.266  18.014   8.359  0.0031  0.0613 -0.1004
  261loPI   C5A 4171   4.414  17.996   7.951 -0.1198 -0.0945 -0.2424
  261loPI   C6A 4172   4.485  18.060   7.472  0.1844  0.2128  0.1164
  261loPI   C1B 4173   4.252  18.237   9.569  0.4918  0.1425 -0.0287
  261loPI   C2B 4174   4.403  18.316   9.146 -0.3556 -0.1893 -0.2100
  261loPI   C3B 4175   4.558  18.336   8.710 -0.1789  0.0703 -0.1399
  261loPI   C4B 4176   4.645  18.530   8.274 -0.2139  0.0674 -0.0015
  262loPI    C1 4177   4.366  12.501  10.078  0.1783  0.0039  0.0066
  262loPI    C2 4178   4.371  12.620  10.459  0.0625 -0.1476  0.0567
  262loPI    C3 4179   4.085  12.752  10.213  0.1326 -0.0560  0.0236
  262loPI   PO4 4180   4.594  12.581  10.011  0.0591  0.0880 -0.3483
  262loPI   GL1 4181   4.856  12.692   9.714  0.2646 -0.0239  0.5352
  262loPI   GL2 4182   5.009  12.388   9.837 -0.1588 -0.0396  0.1105
  262loPI   C1A 4183   4.748  12.918   9.339 -0.2319  0.0515 -0.1030
  262loPI   C2A 4184   4.672  12.869   8.928  0.2974 -0.3165  0.1443
  262loPI   C3A 4185   4.828  13.034   8.505 -0.0025 -0.1609  0.0169
  262loPI   C4A 4186   4.975  13.161   8.071  0.0834 -0.0539 -0.2493
  262loPI   C5A 4187   5.303  13.507   7.983  0.2204 -0.2595  0.1821
  262loPI   C6A 4188   5.634  13.748   7.843  0.3020  0.0259  0.0570
  262loPI   C1B 4189   5.137  12.489   9.325  0.2369  0.2176 -0.2024
  262loPI   C2B 4190   5.184  12.638   8.932  0.0952 -0.1819  0.0750
  262loPI   C3B 4191   5.141  12.690   8.545 -0.3607  0.3259  0.1101
  262loPI   C4B 4192   5.048  12.663   8.108  0.1514  0.1154  0.0738
  263loPI    C1 4193  14.784  14.021  10.596  0.2071  0.1158 -0.0609
  263loPI    C2 4194  14.502  14.223  10.795  0.0124 -0.1384 -0.0739
  263loPI    C3 4195  14.797  14.041  10.995 -0.0480 -0.1921 -0.0335
  263loPI   PO4 4196  14.829  14.148  10.413  0.0033 -0.0297  0.1916
  263loPI   GL1 4197  14.723  14.022  10.028  0.0488 -0.2249  0.3077
  263loPI   GL2 4198  14.301  14.136   9.988 -0.0378  0.0170 -0.1043
  263loPI   C1A 4199  14.691  13.735   9.672  0.1410  0.0071  0.2572
  263loPI   C2A 4200  14.607  13.702   9.259 -0.0939  0.1001  0.1166
  263loPI   C3A 4201  14.457  13.728   8.797 -0.1953  0.1130  0.2473
  263loPI   C4A 4202  14.392  13.835   8.374 -0.1145  0.0522 -0.1481
  263loPI   C5A 4203  14.430  13.908   7.932 -0.1954  0.4109 -0.2473
  263loPI   C6A 4204  14.596  14.381   7.793 -0.0121 -0.0590  0.4549
  263loPI   C1B 4205  14.487  14.151   9.515 -0.2080  0.0021 -0.0257
  263loPI   C2B 4206  14.556  14.239   9.091  0.4025 -0.0222  0.2356
  263loPI   C3B 4207  14.697  14.203   8.650  0.1090  0.1746 -0.0662
  263loPI   C4B 4208  14.772  14.140   8.256 -0.1498  0.0568  0.2572
  264loPI    C1 4209   4.099  10.157  10.714  0.0673  0.3110  0.1525
  264loPI    C2 4210   4.483  10.104  10.816  0.0755 -0.2512 -0.1319
  264loPI    C3 4211   4.192   9.976  11.058  0.0618  0.0930  0.0405
  264loPI   PO4 4212   4.171  10.235  10.365  0.2401  0.2585  0.0630
  264loPI   GL1 4213   4.020  10.217  10.005  0.0345 -0.4875 -0.1114
  264loPI   GL2 4214   3.727  10.312   9.775  0.1372  0.0082 -0.3213
  264loPI   C1A 4215   4.160  10.216   9.517 -0.2570  0.3254 -0.2020
  264loPI   C2A 4216   4.136  10.103   9.116 -0.2793  0.2212  0.0888
  264loPI   C3A 4217   4.285  10.057   8.702 -0.0047 -0.0908 -0.4361
  264loPI   C4A 4218   4.477  10.171   8.253 -0.0047  0.1318  0.2490
  264loPI   C5A 4219   4.438   9.992   7.921 -0.1077 -0.0473 -0.6147
  264loPI   C6A 4220   4.303   9.925   7.495 -0.0147  0.2773  0.0442
  264loPI   C1B 4221   3.676  10.499   9.506 -0.0062 -0.0247  0.2528
  264loPI   C2B 4222   3.894  10.526   9.101  0.0556  0.0250 -0.2069
  264loPI   C3B 4223   4.227  10.568   8.804  0.1018  0.0506 -0.2268
  264loPI   C4B 4224   4.192  10.610   8.362  0.2690 -0.2130  0.0159
  265loPI    C1 4225  12.766   9.294  10.743  0.0525 -0.2448  0.0209
  265loPI    C2 4226  12.870   9.350  11.125 -0.0479 -0.0959  0.0273
  265loPI    C3 4227  12.515   9.189  11.037 -0.1464  0.1344 -0.0061
  265loPI   PO4 4228  12.983   9.129  10.658  0.2967 -0.2315 -0.2479
  265loPI   GL1 4229  13.189   9.222  10.435 -0.2806 -0.0763 -0.2411
  265loPI   GL2 4230  13.562   9.270  10.310 -0.1303 -0.3513 -0.1522
  265loPI   C1A 4231  13.234   8.927  10.066 -0.0678 -0.1508 -0.0815
  265loPI   C2A 4232  13.253   8.737   9.633  0.0716  0.1974 -0.1471
  265loPI   C3A 4233  13.102   8.883   9.180 -0.1911 -0.0394 -0.0695
  265loPI   C4A 4234  13.015   8.963   8.768 -0.2073  0.0901  0.0483
  265loPI   C5A 4235  12.950   8.674   8.424  0.1514  0.2714  0.2328
  265loPI   C6A 4236  12.838   8.489   8.042 -0.1721  0.1090 -0.3703
  265loPI   C1B 4237  13.544   9.351   9.865  0.1007  0.1963  0.1684
  265loPI   C2B 4238  13.636   9.530   9.419 -0.0518 -0.0077 -0.0625
  265loPI   C3B 4239  13.742   9.546   9.029 -0.0602  0.1462  0.1290
  265loPI   C4B 4240  13.667   9.321   8.515  0.0194 -0.0515 -0.0222
  266loPI    C1 4241   9.058  11.696  10.206 -0.0638  0.0447 -0.3329
  266loPI    C2 4242   8.965  11.608  10.585  0.2027  0.2375 -0.2201
  266loPI    C3 4243   8.682  11.738  10.335  0.0398  0.1801 -0.0675
  266loPI   PO4 4244   9.227  11.909  10.187 -0.1764  0.0838 -0.1766
  266loPI   GL1 4245   9.400  11.819   9.787  0.3126 -0.3545  0.0719
  266loPI   GL2 4246   9.166  11.682   9.652  0.2483  0.0311 -0.0862
  266loPI   C1A 4247   9.505  12.111   9.486 -0.1235  0.0534  0.0883
  266loPI   C2A 4248   9.665  12.173   9.103  0.0491 -0.0632  0.3560
  266loPI   C3A 4249   9.846  12.017   8.662  0.0045  0.0936  0.0510
  266loPI   C4A 4250  10.116  11.873   8.369 -0.0969 -0.0115 -0.0738
  266loPI   C5A 4251  10.117  11.623   8.118  0.0419 -0.2195  0.1788
  266loPI   C6A 4252  10.495  11.485   7.881 -0.1115  0.0381  0.0238
  266loPI   C1B 4253   9.222  11.699   9.166  0.0907 -0.2738 -0.0258
  266loPI   C2B 4254   9.445  11.788   8.687  0.0759  0.0042  0.0808
  266loPI   C3B 4255   9.588  11.712   8.279 -0.0144 -0.0041 -0.3273
  266loPI   C4B 4256   9.670  11.842   7.906  0.0151  0.0987  0.0819
  267loPI    C1 4257   3.629   5.279  10.570 -0.0697 -0.1472 -0.0805
  267loPI    C2 4258   3.901   5.063  10.768 -0.0285  0.0514  0.0828
  267loPI    C3 4259   3.562   4.892  10.644 -0.0100 -0.0994  0.2372
  267loPI   PO4 4260   3.773   5.427  10.410 -0.0088  0.1031  0.0055
  267loPI   GL1 4261   4.141   5.379  10.162  0.0908 -0.2163  0.2551
  267loPI   GL2 4262   4.367   5.605  10.010 -0.0692  0.0556  0.2632
  267loPI   C1A 4263   3.929   5.273   9.809 -0.2165  0.0688 -0.1881
  267loPI   C2A 4264   4.049   5.232   9.338  0.0225 -0.0981 -0.0167
  267loPI   C3A 4265   4.026   4.989   8.985 -0.0097  0.0205 -0.2807
  267loPI   C4A 4266   4.267   4.812   8.584  0.2188  0.3839  0.0480
  267loPI   C5A 4267   4.728   4.936   8.396 -0.2666  0.0048 -0.0719
  267loPI   C6A 4268   4.892   5.358   8.382 -0.1653 -0.0556  0.0252
  267loPI   C1B 4269   4.357   5.574   9.570 -0.1186 -0.1589  0.1542
  267loPI   C2B 4270   4.333   5.474   9.025 -0.0666  0.3766  0.0403
  267loPI   C3B 4271   4.497   5.295   8.659 -0.1528  0.2857  0.1812
  267loPI   C4B 4272   4.409   5.220   8.195  0.1454 -0.0894 -0.1656
  268loPI    C1 4273   0.708  14.038  10.038 -0.1380  0.1192  0.1345
  268loPI    C2 4274   0.860  13.821  10.337  0.1756 -0.2468 -0.2784
  268loPI    C3 4275   1.103  14.038  10.104 -0.0270 -0.2097 -0.4580
  268loPI   PO4 4276   0.433  14.040  10.187 -0.0511 -0.5473 -0.1240
  268loPI   GL1 4277   0.118  14.138   9.881  0.3233 -0.1885  0.0800
  268loPI   GL2 4278   0.069  14.337   9.590  0.2248  0.2636 -0.1402
  268loPI   C1A 4279  -0.352  14.008   9.731 -0.1247  0.2512  0.1196
  268loPI   C2A 4280  -0.616  13.946   9.304 -0.1174  0.1379  0.0677
  268loPI   C3A 4281  -0.865  13.957   8.988 -0.0975 -0.0087  0.1054
  268loPI   C4A 4282  -0.882  13.953   8.550  0.1692 -0.3386  0.2435
  268loPI   C5A 4283  -0.617  13.775   8.270  0.1521  0.2412 -0.3308
  268loPI   C6A 4284  -0.262  13.677   8.358  0.1656 -0.3118  0.0287
  268loPI   C1B 4285  -0.215  14.264   9.224  0.2465  0.1212  0.1252
  268loPI   C2B 4286  -0.587  14.391   8.927 -0.1606 -0.0007  0.2637
  268loPI   C3B 4287  -0.751  14.763   8.704  0.0257 -0.3165 -0.1814
  268loPI   C4B 4288  -0.937  14.920   8.325  0.2662  0.0519 -0.0581
  269loPI    C1 4289   0.502  15.767  10.940 -0.0865 -0.1175 -0.0571
  269loPI    C2 4290   0.144  15.620  10.838 -0.1999  0.1228 -0.0118
  269loPI    C3 4291   0.177  15.869  11.150 -0.0338  0.3060 -0.1733
  269loPI   PO4 4292   0.528  15.972  10.662  0.3439 -0.0274  0.0076
  269loPI   GL1 4293   0.647  16.121  10.258 -0.1713 -0.0125 -0.1893
  269loPI   GL2 4294   0.836  15.945   9.990 -0.0617 -0.0251  0.2687
  269loPI   C1A 4295   0.668  16.376   9.935  0.2410  0.3055 -0.1886
  269loPI   C2A 4296   0.465  16.521   9.595 -0.0672 -0.2150  0.0381
  269loPI   C3A 4297   0.331  16.893   9.376 -0.2259 -0.1781 -0.4790
  269loPI   C4A 4298   0.260  17.054   9.028  0.2171  0.0892 -0.2624
  269loPI   C5A 4299   0.248  17.088   8.601  0.0276 -0.0294  0.2222
  269loPI   C6A 4300   0.136  16.856   8.303  0.2928  0.0704 -0.1666
  269loPI   C1B 4301   0.917  16.114   9.555 -0.3268  0.0871  0.0182
  269loPI   C2B 4302   1.285  16.313   9.299  0.0257 -0.2544 -0.0797
  269loPI   C3B 4303   1.476  16.348   8.901 -0.2238  0.2610  0.1422
  269loPI   C4B 4304   1.363  16.349   8.484 -0.0106  0.0685 -0.1152
  270loPI    C1 4305   1.862  13.898  10.505  0.0976  0.0996  0.1420
  270loPI    C2 4306   1.746  13.660  10.805  0.3406 -0.1949  0.0083
  270loPI    C3 4307   2.076  13.883  10.843  0.1330  0.0998  0.1197
  270loPI   PO4 4308   1.711  14.117  10.434  0.0665 -0.3287 -0.1275
  270loPI   GL1 4309   1.525  14.249  10.075  0.1331  0.0025  0.0089
  270loPI   GL2 4310   1.200  14.492  10.068  0.0917 -0.1812  0.0788
  270loPI   C1A 4311   1.364  14.074   9.622  0.0188 -0.0650 -0.0149
  270loPI   C2A 4312   1.323  14.191   9.186  0.1132  0.2876  0.2927
  270loPI   C3A 4313   1.120  14.198   8.903 -0.4665  0.0075  0.1055
  270loPI   C4A 4314   0.947  14.413   8.603  0.3252  0.0340  0.1964
  270loPI   C5A 4315   1.055  14.566   8.211 -0.1532  0.1173 -0.1691
  270loPI   C6A 4316   1.141  14.891   7.770 -0.0540 -0.1979 -0.0107
  270loPI   C1B 4317   1.328  14.585   9.680 -0.2204  0.0060 -0.0717
  270loPI   C2B 4318   1.250  14.755   9.283  0.0743 -0.1591  0.1504
  270loPI   C3B 4319   1.065  14.800   8.903 -0.0913 -0.1894  0.1661
  270loPI   C4B 4320   0.816  14.980   8.549  0.0498  0.0143 -0.2035
  271loPI    C1 4321   1.492   9.008  10.604  0.0952  0.0316 -0.0196
  271loPI    C2 4322   1.861   8.860  10.567  0.0888  0.0313 -0.0827
  271loPI    C3 4323   1.695   8.894  10.929  0.1693  0.0766 -0.0500
  271loPI   PO4 4324   1.567   9.198  10.395 -0.1744  0.0500  0.1642
  271loPI   GL1 4325   1.369   9.376  10.064  0.2199 -0.1079 -0.1054
  271loPI   GL2 4326   1.282   9.593   9.940  0.0375 -0.0378 -0.1599
  271loPI   C1A 4327   1.407   9.162   9.611  0.1478 -0.0326  0.1870
  271loPI   C2A 4328   1.499   9.305   9.193 -0.2969 -0.0434  0.1751
  271loPI   C3A 4329   1.566   9.488   8.820 -0.0546 -0.2406 -0.2699
  271loPI   C4A 4330   1.711   9.766   8.507 -0.0152  0.0310  0.3831
  271loPI   C5A 4331   1.914  10.158   8.540  0.3623 -0.0820 -0.4426
  271loPI   C6A 4332   2.156  10.564   8.638  0.0597  0.0385  0.1487
  271loPI   C1B 4333   1.446   9.653   9.510  0.2612  0.0301 -0.2011
  271loPI   C2B 4334   1.585   9.861   9.238  0.1654  0.1317 -0.0627
  271loPI   C3B 4335   1.863  10.204   9.109 -0.1009 -0.1051  0.1000
  271loPI   C4B 4336   2.261  10.216   8.909 -0.0375  0.3291  0.2976
  272loPI    C1 4337   4.038  13.888  10.251 -0.1402 -0.1084 -0.3871
  272loPI    C2 4338   4.264  13.598  10.095 -0.0476 -0.1375 -0.2015
  272loPI    C3 4339   4.436  13.930  10.238 -0.1162 -0.1844 -0.0077
  272loPI   PO4 4340   3.844  13.796  10.157 -0.1812  0.0981  0.0648
  272loPI   GL1 4341   3.687  13.871   9.725  0.1722  0.0264  0.4069
  272loPI   GL2 4342   3.298  13.874   9.600 -0.4771 -0.0697  0.0054
  272loPI   C1A 4343   3.621  13.854   9.303  0.1005  0.1766  0.1755
  272loPI   C2A 4344   3.569  13.810   8.867 -0.2333 -0.0069 -0.0543
  272loPI   C3A 4345   3.604  13.855   8.432  0.1438  0.0331  0.1780
  272loPI   C4A 4346   3.607  14.138   8.120  0.1705 -0.1411 -0.3805
  272loPI   C5A 4347   3.587  14.531   7.959  0.3813  0.1715 -0.0272
  272loPI   C6A 4348   3.530  14.819   7.582  0.1247 -0.0260 -0.0481
  272loPI   C1B 4349   3.092  14.097   9.338 -0.2204  0.2557 -0.0612
  272loPI   C2B 4350   3.094  14.117   8.883 -0.1230  0.1010  0.0042
  272loPI   C3B 4351   2.751  14.175   8.506  0.1038 -0.2913 -0.1289
  272loPI   C4B 4352   2.314  14.405   8.447  0.0983  0.1192 -0.2900
  273loPI    C1 4353  17.019   0.441  10.295 -0.0995  0.0070  0.1071
  273loPI    C2 4354  17.089   0.110  10.507  0.3057  0.1583  0.2195
  273loPI    C3 4355  16.919   0.427  10.682 -0.1257  0.0001  0.1001
  273loPI   PO4 4356  16.883   0.342   9.988 -0.1177 -0.3624  0.1666
  273loPI   GL1 4357  16.896   0.066   9.776  0.0000 -0.1010  0.3291
  273loPI   GL2 4358  16.535   0.073   9.625  0.1457 -0.0960  0.1222
  273loPI   C1A 4359  16.928   0.124   9.268  0.1415  0.0270 -0.1987
  273loPI   C2A 4360  16.861  -0.054   8.895  0.1255  0.0526 -0.0897
  273loPI   C3A 4361  16.784  -0.407   8.536  0.3000 -0.0183  0.0925
  273loPI   C4A 4362  16.603  -0.597   8.153 -0.1081  0.2293  0.3567
  273loPI   C5A 4363  16.588  -0.810   7.832  0.0431 -0.1266 -0.0380
  273loPI   C6A 4364  16.595  -1.242   7.627  0.0494 -0.0144  0.1102
  273loPI   C1B 4365  16.402   0.133   9.189 -0.0127 -0.0509 -0.1436
  273loPI   C2B 4366  16.310   0.039   8.635 -0.0586  0.0678 -0.0757
  273loPI   C3B 4367  16.570   0.043   8.289  0.2127 -0.2061  0.0909
  273loPI   C4B 4368  16.462  -0.161   7.883  0.2921 -0.0105  0.0874
  274loPI    C1 4369  15.576  11.607  10.593 -0.0709 -0.2083 -0.0587
  274loPI    C2 4370  15.389  11.407  10.885  0.0401 -0.1525  0.0517
  274loPI    C3 4371  15.788  11.397  10.860  0.0284 -0.1973 -0.1284
  274loPI   PO4 4372  15.521  11.548  10.411  0.1586 -0.1008  0.0553
  274loPI   GL1 4373  15.725  11.654  10.044  0.4303  0.1391  0.1272
  274loPI   GL2 4374  15.893  11.371   9.873  0.2053 -0.1740  0.1910
  274loPI   C1A 4375  15.553  11.778   9.721  0.0552  0.0516  0.2903
  274loPI   C2A 4376  15.493  11.890   9.260  0.0229  0.0817  0.0074
  274loPI   C3A 4377  15.500  11.842   8.801 -0.1694 -0.1259 -0.0999
  274loPI   C4A 4378  15.694  11.662   8.474  0.1103 -0.2851 -0.1486
  274loPI   C5A 4379  15.562  11.356   8.195  0.1766 -0.0285  0.0849
  274loPI   C6A 4380  15.734  11.069   8.013  0.2201 -0.3043  0.3182
  274loPI   C1B 4381  15.820  11.474   9.382  0.3403 -0.0209  0.0446
  274loPI   C2B 4382  15.751  11.417   8.939 -0.2908 -0.0270 -0.3862
  274loPI   C3B 4383  15.510  11.201   8.720  0.1304  0.1254 -0.2112
  274loPI   C4B 4384  15.129  11.158   8.540 -0.0247  0.1633 -0.0104
  275loPI    C1 4385   2.147   5.772  10.485  0.2283  0.1051  0.2020
  275loPI    C2 4386   2.084   5.835  10.875  0.1200  0.1880  0.1715
  275loPI    C3 4387   1.822   5.621  10.662  0.0694  0.3210  0.0987
  275loPI   PO4 4388   2.166   5.990  10.420 -0.0484  0.2580  0.2248
  275loPI   GL1 4389   2.057   6.178  10.136  0.3262 -0.1097  0.1369
  275loPI   GL2 4390   2.168   5.907   9.959  0.2130  0.0562 -0.1239
  275loPI   C1A 4391   1.886   6.247   9.733  0.0647 -0.0350 -0.0689
  275loPI   C2A 4392   1.701   6.126   9.411 -0.2749  0.1544 -0.1280
  275loPI   C3A 4393   1.701   5.990   9.002 -0.1323 -0.1917  0.0904
  275loPI   C4A 4394   1.820   6.038   8.638 -0.3799  0.2851 -0.3528
  275loPI   C5A 4395   2.154   6.014   8.302 -0.1180  0.0307 -0.1476
  275loPI   C6A 4396   2.335   6.232   8.081 -0.0074 -0.0404  0.0066
  275loPI   C1B 4397   2.142   5.764   9.523  0.0183 -0.0301 -0.3133
  275loPI   C2B 4398   2.119   5.686   9.005  0.0668  0.1796 -0.0109
  275loPI   C3B 4399   2.255   5.690   8.628  0.1835 -0.0188 -0.2058
  275loPI   C4B 4400   2.404   5.601   8.166 -0.0824 -0.1345 -0.1094
  276loPI    C1 4401   4.462  16.963  10.459  0.0748 -0.1746  0.3229
  276loPI    C2 4402   4.098  16.844  10.344 -0.0399  0.1822  0.3032
  276loPI    C3 4403   4.152  16.996  10.710  0.0957  0.1062  0.3155
  276loPI   PO4 4404   4.590  17.066  10.242  0.1031  0.2872  0.2733
  276loPI   GL1 4405   4.424  17.063   9.873  0.1298  0.0237 -0.0965
  276loPI   GL2 4406   4.088  17.165   9.874 -0.0829 -0.0644  0.0540
  276loPI   C1A 4407   4.381  16.911   9.450  0.0338 -0.1457 -0.1343
  276loPI   C2A 4408   4.428  16.925   8.958  0.1375  0.0046 -0.0041
  276loPI   C3A 4409   4.308  16.967   8.503  0.1872 -0.1772 -0.1856
  276loPI   C4A 4410   4.122  17.212   8.147  0.1169 -0.0726 -0.3775
  276loPI   C5A 4411   3.552  17.236   8.141  0.0446  0.1703  0.0909
  276loPI   C6A 4412   3.264  17.288   7.778  0.0676  0.1619  0.0666
  276loPI   C1B 4413   3.976  17.300   9.412 -0.0841  0.0375  0.0943
  276loPI   C2B 4414   4.077  17.258   8.919 -0.1613  0.2626  0.0238
  276loPI   C3B 4415   3.985  17.363   8.567 -0.2045  0.0633  0.0272
  276loPI   C4B 4416   3.827  17.644   8.203 -0.0033 -0.2062  0.0066
  277loPI    C1 4417  15.071   0.797  10.455  0.0657 -0.1811  0.0771
  277loPI    C2 4418  15.444   0.858  10.585  0.1130 -0.3833  0.0395
  277loPI    C3 4419  15.160   0.735  10.840  0.0132 -0.0007  0.1193
  277loPI   PO4 4420  15.074   0.662  10.178  0.1914 -0.1338 -0.1283
  277loPI   GL1 4421  15.075   0.576   9.747  0.1152 -0.2489  0.3313
  277loPI   GL2 4422  14.740   0.712   9.644  0.0705  0.1124 -0.3777
  277loPI   C1A 4423  15.091   0.423   9.333 -0.3277  0.0302 -0.0362
  277loPI   C2A 4424  15.131   0.505   8.882  0.1212 -0.2319  0.1753
  277loPI   C3A 4425  15.157   0.704   8.487  0.2868  0.1720 -0.1938
  277loPI   C4A 4426  14.880   1.056   8.298 -0.1770 -0.1026 -0.0393
  277loPI   C5A 4427  14.875   1.206   7.852 -0.2518  0.2115 -0.4347
  277loPI   C6A 4428  15.179   1.091   7.627 -0.1975  0.0331 -0.3560
  277loPI   C1B 4429  14.635   0.296   9.535 -0.0292  0.1890  0.1474
  277loPI   C2B 4430  14.596  -0.093   9.357  0.0646  0.0631 -0.0328
  277loPI   C3B 4431  14.564  -0.251   8.938 -0.3569  0.1426  0.0590
  277loPI   C4B 4432  14.632  -0.200   8.564  0.1395  0.0662  0.0637
  278loPI    C1 4433   5.006   8.238  10.477  0.1468 -0.0051 -0.1868
  278loPI    C2 4434   5.160   8.586  10.354  0.0489  0.0257 -0.2233
  278loPI    C3 4435   4.989   8.559  10.715 -0.0480  0.0459 -0.2673
  278loPI   PO4 4436   4.825   8.108  10.341 -0.2234 -0.1336  0.0086
  278loPI   GL1 4437   4.794   7.667  10.121 -0.1571 -0.2421  0.1554
  278loPI   GL2 4438   4.596   7.427  10.114  0.1543 -0.2133  0.1912
  278loPI   C1A 4439   4.918   7.607   9.703  0.0174  0.0550  0.0478
  278loPI   C2A 4440   5.023   7.631   9.297  0.1623 -0.1248 -0.1147
  278loPI   C3A 4441   4.906   7.758   8.858  0.1027 -0.0108  0.0757
  278loPI   C4A 4442   5.001   7.931   8.448 -0.0617  0.0138  0.0563
  278loPI   C5A 4443   5.086   7.597   8.060 -0.0454 -0.1600 -0.4001
  278loPI   C6A 4444   5.097   7.360   7.694  0.1685 -0.0114 -0.1623
  278loPI   C1B 4445   4.469   7.464   9.682 -0.0386  0.2878  0.1160
  278loPI   C2B 4446   4.566   7.466   9.209  0.2655 -0.0232 -0.0474
  278loPI   C3B 4447   4.500   7.358   8.873  0.0012  0.0609  0.0809
  278loPI   C4B 4448   4.524   7.235   8.352  0.0481 -0.0338  0.1233
  279loPI    C1 4449   7.128  16.320  10.553  0.0994  0.0005 -0.2095
  279loPI    C2 4450   7.440  16.566  10.513  0.0530  0.1606  0.3344
  279loPI    C3 4451   7.456  16.264  10.774  0.0161 -0.2774 -0.1526
  279loPI   PO4 4452   7.067  16.225  10.291 -0.0874  0.1615  0.0616
  279loPI   GL1 4453   7.248  16.404   9.957 -0.1751  0.1789 -0.2094
  279loPI   GL2 4454   7.547  16.621   9.997  0.2002 -0.0526  0.1400
  279loPI   C1A 4455   7.251  16.268   9.532 -0.0336 -0.3886  0.0391
  279loPI   C2A 4456   7.466  16.222   9.248 -0.2842  0.3362  0.0390
  279loPI   C3A 4457   7.430  16.157   8.836 -0.1860  0.1678  0.1378
  279loPI   C4A 4458   7.504  16.176   8.398  0.3619 -0.1301  0.0436
  279loPI   C5A 4459   7.502  16.482   8.069  0.2700 -0.1520 -0.2730
  279loPI   C6A 4460   7.329  16.938   7.902  0.1659 -0.0742 -0.1826
  279loPI   C1B 4461   7.645  16.684   9.644  0.0162  0.0596 -0.2111
  279loPI   C2B 4462   7.763  16.683   9.256  0.1603  0.0961 -0.2081
  279loPI   C3B 4463   7.740  16.528   8.877  0.2086  0.1233 -0.1016
  279loPI   C4B 4464   7.879  16.470   8.424 -0.1461  0.0101 -0.1775
  280loPI    C1 4465  15.520  14.088  10.583  0.0754  0.0875  0.0055
  280loPI    C2 4466  15.219  14.180  10.830  0.0049 -0.1470  0.0095
  280loPI    C3 4467  15.344  14.447  10.559 -0.1000  0.0101  0.1139
  280loPI   PO4 4468  15.446  13.865  10.468  0.0726 -0.2208 -0.0894
  280loPI   GL1 4469  15.495  13.855  10.115  0.0506  0.1479 -0.0879
  280loPI   GL2 4470  15.716  14.096   9.942  0.2339 -0.0439 -0.2021
  280loPI   C1A 4471  15.556  13.635   9.752  0.2818 -0.0530  0.1854
  280loPI   C2A 4472  15.555  13.557   9.285  0.0463 -0.3122 -0.0991
  280loPI   C3A 4473  15.507  13.594   8.901 -0.2896  0.0102  0.2330
  280loPI   C4A 4474  15.484  13.719   8.513  0.1913  0.1538 -0.0802
  280loPI   C5A 4475  15.414  13.967   8.166 -0.3261 -0.1641  0.1323
  280loPI   C6A 4476  15.576  14.403   7.966 -0.0159 -0.1402 -0.0536
  280loPI   C1B 4477  15.713  14.054   9.478 -0.0119  0.0498 -0.3754
  280loPI   C2B 4478  15.674  14.040   9.008 -0.0353 -0.0959  0.0583
  280loPI   C3B 4479  15.752  14.176   8.585 -0.1309 -0.0149  0.0519
  280loPI   C4B 4480  15.952  14.137   8.166 -0.0100  0.1515  0.1079
  281loPI    C1 4481  12.061   5.822  10.896  0.1609 -0.0806 -0.0502
  281loPI    C2 4482  11.777   5.825  11.178  0.0216  0.0427 -0.1896
  281loPI    C3 4483  12.044   6.122  11.160  0.3113 -0.1934  0.0894
  281loPI   PO4 4484  11.933   5.719  10.653  0.2626 -0.2294 -0.2702
  281loPI   GL1 4485  11.963   5.687  10.226  0.0386  0.1334  0.1071
  281loPI   GL2 4486  12.189   5.468  10.237 -0.0318  0.1647  0.0231
  281loPI   C1A 4487  11.730   5.829   9.918 -0.2576  0.0241 -0.1283
  281loPI   C2A 4488  11.832   5.887   9.490 -0.1571 -0.3016  0.3914
  281loPI   C3A 4489  11.706   6.137   9.195 -0.0080  0.2481 -0.0069
  281loPI   C4A 4490  11.564   6.084   8.748  0.1708 -0.5504 -0.3771
  281loPI   C5A 4491  11.549   6.366   8.278 -0.3050  0.1277 -0.2506
  281loPI   C6A 4492  11.792   6.621   8.060 -0.2341  0.0374 -0.1541
  281loPI   C1B 4493  12.261   5.240   9.910 -0.1450 -0.0838 -0.0375
  281loPI   C2B 4494  12.396   5.180   9.492 -0.0708 -0.2369 -0.1366
  281loPI   C3B 4495  12.434   5.157   9.089 -0.2711  0.2006 -0.1676
  281loPI   C4B 4496  12.484   5.134   8.673 -0.1396 -0.0418 -0.3178
  282loPI    C1 4497  11.034  11.422  10.318 -0.0236  0.1347  0.0530
  282loPI    C2 4498  10.789  11.241  10.577 -0.0506  0.0599 -0.0242
  282loPI    C3 4499  10.968  11.584  10.678  0.0556 -0.0450  0.1496
  282loPI   PO4 4500  11.101  11.203  10.176  0.3261 -0.1357  0.3375
  282loPI   GL1 4501  11.283  11.173   9.837 -0.2163  0.1642 -0.0094
  282loPI   GL2 4502  11.060  11.392   9.678  0.0736  0.3387 -0.0109
  282loPI   C1A 4503  11.610  11.284   9.518 -0.2332 -0.2360  0.0052
  282loPI   C2A 4504  11.683  11.541   9.216  0.0796  0.0817  0.3998
  282loPI   C3A 4505  11.839  11.693   8.894 -0.0860  0.0942  0.3079
  282loPI   C4A 4506  11.902  11.865   8.472  0.2406  0.2816 -0.1461
  282loPI   C5A 4507  11.956  12.171   8.206  0.1101  0.0800  0.0759
  282loPI   C6A 4508  12.090  12.446   7.835  0.1549  0.1081  0.1393
  282loPI   C1B 4509  11.215  11.298   9.144  0.0471  0.1233  0.1601
  282loPI   C2B 4510  11.337  11.444   8.789  0.1315 -0.1939 -0.0475
  282loPI   C3B 4511  11.411  11.652   8.331  0.0227 -0.2664  0.3215
  282loPI   C4B 4512  11.770  11.701   8.035 -0.1127 -0.0903  0.0329
  283loPI    C1 4513   7.025  17.965  10.447  0.2741  0.1938  0.0473
  283loPI    C2 4514   7.385  17.998  10.617  0.2160  0.1936  0.1712
  283loPI    C3 4515   7.087  17.815  10.812  0.2116 -0.0140 -0.0259
  283loPI   PO4 4516   7.040  17.879  10.165 -0.6658 -0.1402  0.0293
  283loPI   GL1 4517   6.770  17.649   9.964 -0.1378 -0.0412 -0.0134
  283loPI   GL2 4518   6.913  17.382   9.831 -0.2764 -0.0769  0.0783
  283loPI   C1A 4519   6.767  17.795   9.549  0.4863 -0.2573 -0.1912
  283loPI   C2A 4520   6.819  18.087   9.239  0.1595 -0.1597  0.0225
  283loPI   C3A 4521   6.968  18.139   8.795 -0.0697 -0.2880  0.0730
  283loPI   C4A 4522   6.873  18.446   8.431 -0.3999 -0.0081 -0.1138
  283loPI   C5A 4523   6.808  18.587   8.048 -0.2551  0.1204  0.0992
  283loPI   C6A 4524   6.555  18.780   7.737 -0.2506 -0.0347 -0.0762
  283loPI   C1B 4525   6.824  17.256   9.468  0.1668 -0.1079 -0.0110
  283loPI   C2B 4526   6.893  17.369   9.212 -0.0782  0.1215  0.1558
  283loPI   C3B 4527   7.111  17.313   8.744 -0.2173  0.3797  0.1179
  283loPI   C4B 4528   7.244  17.165   8.390  0.1544  0.0282  0.0536
  284loPI    C1 4529  11.182  12.212  10.683  0.0022 -0.0329 -0.0426
  284loPI    C2 4530  11.432  12.444  10.892 -0.1039 -0.0355  0.0880
  284loPI    C3 4531  11.482  12.047  10.891  0.0943 -0.0121 -0.1576
  284loPI   PO4 4532  11.202  12.315  10.444 -0.0770 -0.1166  0.1222
  284loPI   GL1 4533  11.057  12.694  10.169  0.0809 -0.2894 -0.2238
  284loPI   GL2 4534  11.301  12.514  10.019 -0.1099 -0.0627 -0.0148
  284loPI   C1A 4535  11.079  12.943   9.814  0.0719 -0.0130  0.0207
  284loPI   C2A 4536  11.256  13.134   9.504  0.2467  0.0344  0.0497
  284loPI   C3A 4537  11.160  13.334   9.109  0.0773 -0.1030 -0.1374
  284loPI   C4A 4538  11.161  13.498   8.653  0.0065 -0.0459 -0.0172
  284loPI   C5A 4539  10.906  13.613   8.265 -0.1122 -0.2453 -0.0258
  284loPI   C6A 4540  10.610  13.798   7.869 -0.0897 -0.1488  0.0429
  284loPI   C1B 4541  11.427  12.635   9.614  0.1739  0.0478  0.1637
  284loPI   C2B 4542  11.508  12.716   9.141  0.1753 -0.2835 -0.0383
  284loPI   C3B 4543  11.475  12.555   8.786  0.1712 -0.2420 -0.1679
  284loPI   C4B 4544  11.274  12.730   8.392 -0.3516  0.0011 -0.4710
  285loPI    C1 4545  16.140   0.997  10.370  0.0907 -0.1081  0.0076
  285loPI    C2 4546  15.871   1.050  10.661  0.0175 -0.2915 -0.0252
  285loPI    C3 4547  16.230   1.226  10.686 -0.0663 -0.1313  0.0697
  285loPI   PO4 4548  16.060   0.980  10.202 -0.0179  0.0362  0.0959
  285loPI   GL1 4549  15.921   1.128   9.879 -0.0822 -0.1503 -0.0435
  285loPI   GL2 4550  15.692   1.199   9.837  0.1137 -0.3220 -0.0140
  285loPI   C1A 4551  15.921   0.930   9.465 -0.2014  0.5196 -0.1346
  285loPI   C2A 4552  15.927   1.034   9.071  0.0623  0.1463 -0.0586
  285loPI   C3A 4553  15.992   1.083   8.594 -0.2720 -0.1013 -0.3622
  285loPI   C4A 4554  15.976   1.045   8.075 -0.0241  0.1742 -0.2141
  285loPI   C5A 4555  15.739   1.066   7.784  0.2636 -0.1489 -0.2503
  285loPI   C6A 4556  15.656   0.770   7.486 -0.1454 -0.2361 -0.2906
  285loPI   C1B 4557  15.598   1.290   9.409  0.2208  0.2253 -0.2127
  285loPI   C2B 4558  15.547   1.339   8.923 -0.0394 -0.0720 -0.3563
  285loPI   C3B 4559  15.526   1.264   8.523  0.2866 -0.0053 -0.1425
  285loPI   C4B 4560  15.324   1.095   8.124 -0.2454  0.0781  0.1963
  286loPI    C1 4561   4.135   8.370  10.360 -0.0775 -0.0601 -0.0606
  286loPI    C2 4562   4.005   8.723  10.227 -0.0275  0.0023  0.0543
  286loPI    C3 4563   4.038   8.658  10.620 -0.1028 -0.1544  0.0353
  286loPI   PO4 4564   4.282   8.311  10.136  0.1642  0.1181  0.0330
  286loPI   GL1 4565   4.374   8.296   9.774 -0.0628  0.2261 -0.0068
  286loPI   GL2 4566   4.700   8.151   9.890  0.1823  0.1763  0.1025
  286loPI   C1A 4567   3.945   8.087   9.584  0.1799  0.2870 -0.1866
  286loPI   C2A 4568   3.494   8.185   9.308 -0.0007 -0.0234  0.0087
  286loPI   C3A 4569   3.311   8.056   8.978 -0.2419 -0.2667 -0.1122
  286loPI   C4A 4570   3.103   8.041   8.537 -0.0574 -0.4245 -0.1595
  286loPI   C5A 4571   3.064   7.819   8.127  0.1527 -0.2595  0.0804
  286loPI   C6A 4572   3.207   7.522   7.947  0.2719  0.1786  0.1810
  286loPI   C1B 4573   4.638   7.943   9.497 -0.1630 -0.2977 -0.0152
  286loPI   C2B 4574   4.351   7.927   9.173  0.0120 -0.1127 -0.0602
  286loPI   C3B 4575   4.318   7.817   8.808  0.0038 -0.1366  0.1162
  286loPI   C4B 4576   4.533   7.728   8.425  0.2421 -0.1788 -0.0260
  287loPI    C1 4577   3.497   0.652  10.425 -0.2011 -0.0538 -0.4157
  287loPI    C2 4578   3.523   0.945  10.696  0.1160 -0.4324 -0.0223
  287loPI    C3 4579   3.539   1.032  10.306  0.0071  0.0871  0.0812
  287loPI   PO4 4580   3.297   0.566  10.492 -0.1600  0.1270 -0.0688
  287loPI   GL1 4581   3.045   0.416  10.229  0.2092 -0.1312  0.2325
  287loPI   GL2 4582   2.842   0.305  10.020  0.0358  0.0728  0.1744
  287loPI   C1A 4583   3.335   0.440   9.883  0.0365 -0.3589  0.1575
  287loPI   C2A 4584   3.453   0.572   9.429  0.1131 -0.1593  0.3048
  287loPI   C3A 4585   3.539   0.472   8.970  0.1023 -0.1290 -0.0227
  287loPI   C4A 4586   3.843   0.599   8.633 -0.0687 -0.1210  0.2078
  287loPI   C5A 4587   4.134   0.494   8.312 -0.2071  0.0408  0.3417
  287loPI   C6A 4588   4.304   0.435   7.939 -0.0461  0.2116  0.1080
  287loPI   C1B 4589   2.916   0.516   9.565 -0.0036  0.2216 -0.2203
  287loPI   C2B 4590   2.975   0.890   9.380  0.2225  0.1979  0.0106
  287loPI   C3B 4591   3.261   1.013   9.045  0.2577  0.1947 -0.0736
  287loPI   C4B 4592   3.447   1.274   8.800  0.1516  0.0266 -0.3796
  288loPI    C1 4593   0.115   1.534  10.620 -0.0570  0.0807 -0.0476
  288loPI    C2 4594   0.004   1.234  10.860  0.0426  0.0055 -0.0951
  288loPI    C3 4595   0.377   1.377  10.877 -0.0279  0.1819 -0.0153
  288loPI   PO4 4596  -0.080   1.386  10.383  0.2102 -0.2020  0.0931
  288loPI   GL1 4597  -0.134   1.320   9.874 -0.1116 -0.0336  0.0500
  288loPI   GL2 4598  -0.357   1.128   9.741  0.0856  0.0971 -0.1802
  288loPI   C1A 4599   0.128   1.492   9.575 -0.0114  0.1360 -0.1077
  288loPI   C2A 4600   0.150   1.458   9.189  0.0278  0.1306  0.4816
  288loPI   C3A 4601   0.036   1.487   8.846  0.2924 -0.3065 -0.1978
  288loPI   C4A 4602   0.165   1.548   8.496  0.1124 -0.3370  0.0936
  288loPI   C5A 4603   0.102   1.744   8.061 -0.0328  0.1556  0.1619
  288loPI   C6A 4604  -0.286   1.747   7.835  0.0713 -0.2527  0.0255
  288loPI   C1B 4605  -0.117   1.070   9.380  0.1890  0.0453  0.0374
  288loPI   C2B 4606  -0.198   1.029   9.014 -0.0232 -0.0663  0.3496
  288loPI   C3B 4607  -0.124   0.986   8.549 -0.1872 -0.0965  0.2940
  288loPI   C4B 4608  -0.182   0.793   8.223 -0.1990 -0.3314  0.1183
  289loPI    C1 4609  10.098   5.709  10.520 -0.0882  0.1416  0.0442
  289loPI    C2 4610  10.170   6.099  10.575  0.1244  0.1025  0.0478
  289loPI    C3 4611   9.800   5.975  10.490  0.0351  0.2940  0.1508
  289loPI   PO4 4612  10.394   5.637  10.455  0.0124  0.0078  0.2036
  289loPI   GL1 4613  10.356   5.308  10.127 -0.0811 -0.1711 -0.2801
  289loPI   GL2 4614  10.097   5.152  10.105  0.3439  0.1891  0.0454
  289loPI   C1A 4615  10.304   5.440   9.652 -0.0801  0.1791  0.1417
  289loPI   C2A 4616  10.280   5.543   9.215 -0.0681 -0.0168 -0.1382
  289loPI   C3A 4617  10.025   5.525   8.869 -0.0622  0.0676  0.1179
  289loPI   C4A 4618   9.739   5.705   8.600  0.0652  0.0486  0.0398
  289loPI   C5A 4619   9.566   6.099   8.592  0.0343  0.2252  0.0480
  289loPI   C6A 4620   9.273   6.306   8.829  0.0690  0.0469  0.0260
  289loPI   C1B 4621  10.147   4.934   9.705 -0.1141 -0.0268 -0.1409
  289loPI   C2B 4622  10.281   5.063   9.315  0.2040  0.0596  0.1910
  289loPI   C3B 4623  10.248   5.044   8.891  0.0630 -0.2754 -0.0175
  289loPI   C4B 4624  10.111   5.178   8.470  0.1309  0.2316 -0.1308
  290loPI    C1 4625   9.701   9.084  10.602  0.1146  0.0352  0.1532
  290loPI    C2 4626   9.737   9.481  10.645 -0.0129  0.0431  0.1893
  290loPI    C3 4627   9.709   9.246  10.968  0.1192 -0.0009  0.1691
  290loPI   PO4 4628   9.804   9.109  10.300  0.1510  0.0076 -0.2255
  290loPI   GL1 4629   9.795   8.921   9.878 -0.0353  0.2481  0.2301
  290loPI   GL2 4630   9.997   9.075   9.699  0.0088 -0.1112  0.0056
  290loPI   C1A 4631   9.768   8.688   9.477  0.0498 -0.1916 -0.1582
  290loPI   C2A 4632   9.926   8.877   9.233 -0.0122 -0.0498  0.0962
  290loPI   C3A 4633   9.888   9.098   8.961  0.0787 -0.5923  0.0486
  290loPI   C4A 4634   9.690   9.280   8.599  0.0246 -0.1976 -0.2021
  290loPI   C5A 4635   9.508   9.418   8.264  0.1271  0.3239 -0.1670
  290loPI   C6A 4636   9.542   9.506   7.773 -0.3810 -0.1134 -0.1136
  290loPI   C1B 4637   9.669   9.312   9.507 -0.0402 -0.1436 -0.0659
  290loPI   C2B 4638   9.624   9.503   9.115  0.2427  0.0080  0.2626
  290loPI   C3B 4639   9.429   9.724   8.730 -0.1301 -0.1655 -0.1915
  290loPI   C4B 4640   9.383  10.028   8.408 -0.0398  0.2042 -0.3181
  291loPI    C1 4641   4.018   1.705  10.458  0.0938 -0.0067 -0.0261
  291loPI    C2 4642   4.085   1.542  10.817 -0.3431  0.0874  0.1036
  291loPI    C3 4643   3.862   1.348  10.548  0.1024 -0.0491 -0.1777
  291loPI   PO4 4644   4.272   1.792  10.393 -0.1643 -0.2451  0.0763
  291loPI   GL1 4645   4.408   1.970  10.136  0.1830  0.0168  0.1128
  291loPI   GL2 4646   4.273   1.764   9.923  0.0450  0.1648 -0.1815
  291loPI   C1A 4647   4.789   1.979   9.895  0.2313 -0.1729  0.2572
  291loPI   C2A 4648   4.929   1.967   9.402 -0.0224  0.1988  0.1185
  291loPI   C3A 4649   4.996   2.041   8.930 -0.0181  0.1279  0.0382
  291loPI   C4A 4650   4.845   2.159   8.531  0.2048 -0.2879  0.1878
  291loPI   C5A 4651   4.636   2.343   8.182 -0.0417 -0.0359  0.1037
  291loPI   C6A 4652   4.264   2.325   7.872 -0.1569  0.2547 -0.0406
  291loPI   C1B 4653   4.384   1.972   9.559  0.1873  0.0083 -0.0454
  291loPI   C2B 4654   4.543   2.296   9.455 -0.1394 -0.1003  0.1426
  291loPI   C3B 4655   4.876   2.510   9.272  0.0607  0.1886  0.4346
  291loPI   C4B 4656   5.038   2.509   8.799  0.0374 -0.0614 -0.2094
  292loPI    C1 4657   3.136   8.673  10.506 -0.0409  0.2986 -0.0514
  292loPI    C2 4658   2.899   8.914  10.720 -0.3363  0.0018 -0.0352
  292loPI    C3 4659   3.185   8.701  10.902 -0.2332  0.1546 -0.0160
  292loPI   PO4 4660   2.953   8.527  10.351 -0.1078  0.1258 -0.0164
  292loPI   GL1 4661   3.112   8.412  10.009 -0.0507 -0.1056 -0.0881
  292loPI   GL2 4662   3.244   8.705   9.967 -0.2350  0.0185  0.2943
  292loPI   C1A 4663   2.902   8.188   9.697 -0.0891 -0.0045  0.1310
  292loPI   C2A 4664   2.852   8.134   9.277 -0.2310  0.2411  0.1086
  292loPI   C3A 4665   2.689   8.031   8.910  0.0165 -0.0718 -0.3081
  292loPI   C4A 4666   2.574   7.934   8.553 -0.0302  0.0715 -0.2504
  292loPI   C5A 4667   2.459   7.985   8.229  0.2186 -0.1276  0.1359
  292loPI   C6A 4668   2.338   8.127   7.777 -0.0140 -0.1650 -0.3052
  292loPI   C1B 4669   3.119   8.680   9.579  0.1958 -0.0449 -0.2293
  292loPI   C2B 4670   3.113   8.643   9.168  0.1603 -0.1653 -0.2239
  292loPI   C3B 4671   3.164   8.552   8.711 -0.3130 -0.0912  0.3054
  292loPI   C4B 4672   3.314   8.455   8.317  0.2403 -0.0834 -0.0720
  293loPI    C1 4673  12.210  11.057  10.878 -0.1577 -0.0947  0.0181
  293loPI    C2 4674  11.899  10.880  11.056 -0.2301 -0.0538 -0.0674
  293loPI    C3 4675  11.837  11.161  10.778 -0.1184 -0.1798 -0.2214
  293loPI   PO4 4676  12.359  10.958  10.768 -0.0929  0.3526  0.1137
  293loPI   GL1 4677  12.461  10.853  10.340 -0.0967  0.2970 -0.1839
  293loPI   GL2 4678  12.190  11.171  10.305 -0.0974  0.2979  0.0526
  293loPI   C1A 4679  12.469  10.794   9.915  0.0832 -0.2367 -0.1378
  293loPI   C2A 4680  12.521  10.655   9.517  0.1399 -0.1984 -0.1081
  293loPI   C3A 4681  12.593  10.670   9.109  0.2180 -0.1513  0.1936
  293loPI   C4A 4682  12.648  10.634   8.686 -0.1204  0.1745  0.0886
  293loPI   C5A 4683  12.537  10.581   8.215 -0.3047  0.0106 -0.0149
  293loPI   C6A 4684  12.802  10.918   7.939  0.1568 -0.2173 -0.1000
  293loPI   C1B 4685  12.005  11.210   9.879 -0.2973 -0.3405 -0.3575
  293loPI   C2B 4686  12.093  10.984   9.499  0.0298 -0.2337  0.2396
  293loPI   C3B 4687  12.162  11.022   9.032  0.1671 -0.2537 -0.5459
  293loPI   C4B 4688  12.259  10.968   8.687 -0.0961  0.1194  0.2740
  294loPI    C1 4689  10.010  14.538  10.755  0.1738  0.1529 -0.1839
  294loPI    C2 4690   9.643  14.680  10.682  0.0925 -0.1417 -0.3663
  294loPI    C3 4691   9.688  14.328  10.867  0.2868 -0.0419 -0.2199
  294loPI   PO4 4692  10.109  14.501  10.484  0.2106  0.1510 -0.0847
  294loPI   GL1 4693  10.164  14.520  10.018 -0.0538  0.0874  0.1371
  294loPI   GL2 4694   9.905  14.512   9.804 -0.0270 -0.0402  0.2587
  294loPI   C1A 4695  10.167  14.908   9.757 -0.0487 -0.0679 -0.1746
  294loPI   C2A 4696  10.455  15.083   9.510 -0.3249  0.0230  0.3766
  294loPI   C3A 4697  10.440  15.058   8.992 -0.2938  0.2487 -0.1439
  294loPI   C4A 4698  10.490  15.092   8.606  0.3579  0.1887  0.2287
  294loPI   C5A 4699  10.418  14.954   8.251 -0.1276 -0.0956 -0.0447
  294loPI   C6A 4700  10.069  14.874   7.992 -0.0373  0.1384 -0.1308
  294loPI   C1B 4701   9.892  14.754   9.402 -0.1752  0.0258  0.2336
  294loPI   C2B 4702   9.991  14.713   8.957 -0.0597  0.1412  0.0763
  294loPI   C3B 4703  10.038  14.722   8.528  0.2355 -0.0923 -0.0810
  294loPI   C4B 4704  10.140  14.456   8.164 -0.0149  0.0944 -0.1515
  295loPI    C1 4705  14.619  10.889  10.555  0.1583  0.0435  0.0665
  295loPI    C2 4706  14.626  11.260  10.406  0.0040  0.1889  0.4083
  295loPI    C3 4707  14.276  11.080  10.476  0.0782 -0.0028  0.2936
  295loPI   PO4 4708  14.852  10.754  10.466 -0.1743 -0.2102  0.3554
  295loPI   GL1 4709  14.902  10.902  10.107 -0.0021 -0.0290  0.1695
  295loPI   GL2 4710  14.844  10.520   9.964 -0.0872 -0.0064  0.2124
  295loPI   C1A 4711  14.855  10.899   9.681 -0.0406  0.0648  0.0036
  295loPI   C2A 4712  15.039  10.850   9.371 -0.1966 -0.1219  0.1353
  295loPI   C3A 4713  15.156  10.766   8.966 -0.0802 -0.0959  0.2842
  295loPI   C4A 4714  15.037  10.638   8.607  0.0833  0.0193 -0.1976
  295loPI   C5A 4715  14.855  10.821   8.229 -0.1152 -0.1890 -0.0723
  295loPI   C6A 4716  14.911  10.970   7.848  0.2269  0.1222  0.0736
  295loPI   C1B 4717  14.849  10.396   9.593 -0.0888  0.2402 -0.2448
  295loPI   C2B 4718  14.784  10.478   9.108 -0.1683  0.2848  0.3872
  295loPI   C3B 4719  14.675  10.229   8.743  0.1097 -0.1886 -0.0951
  295loPI   C4B 4720  14.802   9.812   8.626  0.1578  0.2641  0.1039
  296loPI    C1 4721   7.409   2.625  10.861 -0.3453 -0.1401  0.0819
  296loPI    C2 4722   7.609   2.470  10.552 -0.0717  0.0524  0.1588
  296loPI    C3 4723   7.362   2.239  10.766 -0.0792 -0.1410 -0.0542
  296loPI   PO4 4724   7.295   2.871  10.696  0.3187  0.2639 -0.2726
  296loPI   GL1 4725   6.895   2.710  10.354 -0.1091  0.0142 -0.1015
  296loPI   GL2 4726   7.132   2.474  10.386 -0.2684  0.0478 -0.1256
  296loPI   C1A 4727   6.885   2.600   9.898 -0.2657  0.1698  0.0032
  296loPI   C2A 4728   6.895   2.666   9.513 -0.1960 -0.0894  0.4372
  296loPI   C3A 4729   7.022   2.829   9.092 -0.1772  0.1894  0.0960
  296loPI   C4A 4730   6.771   2.746   8.769 -0.2128 -0.3346 -0.1488
  296loPI   C5A 4731   6.897   2.577   8.419  0.1243 -0.1675  0.1650
  296loPI   C6A 4732   7.031   2.490   7.999 -0.1207  0.1333  0.0862
  296loPI   C1B 4733   7.444   2.505  10.039  0.3541  0.0260  0.0256
  296loPI   C2B 4734   7.345   2.587   9.580  0.0264  0.0656  0.0456
  296loPI   C3B 4735   7.156   2.356   9.191  0.1750 -0.0877  0.0516
  296loPI   C4B 4736   7.153   2.420   8.805 -0.0775 -0.1205 -0.1806
  297loPI    C1 4737   8.700  14.586  10.669 -0.0336 -0.1120 -0.0619
  297loPI    C2 4738   8.597  14.443  11.029 -0.0913 -0.2546 -0.1341
  297loPI    C3 4739   8.801  14.213  10.773 -0.1609 -0.1977 -0.2414
  297loPI   PO4 4740   8.450  14.689  10.463  0.0561  0.1186  0.1712
  297loPI   GL1 4741   8.248  14.675  10.034 -0.2066 -0.0427 -0.1387
  297loPI   GL2 4742   8.003  14.709   9.850  0.1006 -0.0491  0.2246
  297loPI   C1A 4743   8.505  14.751   9.635 -0.3758 -0.0187 -0.3072
  297loPI   C2A 4744   8.517  14.768   9.207 -0.1630 -0.2839  0.0093
  297loPI   C3A 4745   8.448  14.587   8.840  0.0744 -0.1792 -0.1981
  297loPI   C4A 4746   8.602  14.680   8.423 -0.0354  0.0828  0.2909
  297loPI   C5A 4747   8.836  14.737   8.162  0.3151  0.1851 -0.2317
  297loPI   C6A 4748   9.164  14.991   7.992 -0.1727 -0.1365  0.1769
  297loPI   C1B 4749   8.078  14.617   9.467 -0.1441 -0.0765 -0.1560
  297loPI   C2B 4750   8.054  14.700   9.078  0.1657 -0.2038  0.4142
  297loPI   C3B 4751   7.990  14.707   8.675  0.0248 -0.0900 -0.0679
  297loPI   C4B 4752   8.157  14.444   8.346 -0.0166  0.1070 -0.2630
  298loPI    C1 4753  14.062  17.202  10.672  0.0716  0.2976 -0.1984
  298loPI    C2 4754  13.689  17.280  10.794  0.0350 -0.0567 -0.0736
  298loPI    C3 4755  13.900  16.989  10.969  0.3367  0.0763 -0.2090
  298loPI   PO4 4756  14.052  17.101  10.358  0.1565 -0.1180  0.0160
  298loPI   GL1 4757  14.074  17.291   9.947  0.1840  0.0921 -0.1380
  298loPI   GL2 4758  14.418  17.222  10.013  0.2132  0.0882 -0.3149
  298loPI   C1A 4759  14.267  17.573   9.684 -0.1560  0.0933  0.1740
  298loPI   C2A 4760  14.175  17.729   9.262 -0.0448 -0.1029 -0.1530
  298loPI   C3A 4761  13.887  17.906   9.059 -0.1616  0.3404 -0.0455
  298loPI   C4A 4762  13.672  17.819   8.720  0.3811 -0.1781  0.1758
  298loPI   C5A 4763  13.615  17.566   8.434  0.1518  0.0189  0.3872
  298loPI   C6A 4764  13.613  17.427   8.034  0.0290  0.0844 -0.2240
  298loPI   C1B 4765  14.417  17.035   9.558 -0.0009  0.0690  0.1531
  298loPI   C2B 4766  14.392  16.845   9.216  0.0304  0.2075  0.0586
  298loPI   C3B 4767  14.603  16.493   8.949  0.1597  0.0977  0.1315
  298loPI   C4B 4768  14.655  16.363   8.450  0.2340  0.1390 -0.0540
  299loPI    C1 4769  11.832   0.909  11.330  0.1168 -0.1675 -0.0351
  299loPI    C2 4770  11.737   0.572  11.523 -0.2416  0.0398  0.1599
  299loPI    C3 4771  12.045   0.794  11.649 -0.0505 -0.1734  0.0753
  299loPI   PO4 4772  11.741   0.907  11.044  0.2889 -0.2228 -0.0796
  299loPI   GL1 4773  11.974   0.949  10.644 -0.0841  0.1166 -0.0718
  299loPI   GL2 4774  12.023   0.907  10.388 -0.2316 -0.0750  0.2540
  299loPI   C1A 4775  11.803   1.289  10.275 -0.2513 -0.2981  0.0886
  299loPI   C2A 4776  11.833   1.570   9.990  0.0093  0.4318 -0.0935
  299loPI   C3A 4777  12.128   1.522   9.662  0.1506 -0.0509 -0.0621
  299loPI   C4A 4778  12.184   1.469   9.325 -0.4128 -0.1416  0.1724
  299loPI   C5A 4779  12.159   1.540   8.942  0.1387 -0.1406 -0.1467
  299loPI   C6A 4780  11.889   1.376   8.661 -0.3643  0.0320  0.2053
  299loPI   C1B 4781  12.011   0.556  10.084  0.1039  0.0147  0.1905
  299loPI   C2B 4782  11.980   0.547   9.625  0.1293 -0.0477 -0.3379
  299loPI   C3B 4783  11.857   0.577   9.156  0.2881 -0.0559 -0.1965
  299loPI   C4B 4784  11.647   0.529   8.840 -0.1234 -0.3593  0.0510
  300loPI    C1 4785   8.482   8.110  10.776 -0.1694 -0.1411  0.0188
  300loPI    C2 4786   8.274   8.417  10.925 -0.3231 -0.1898 -0.0928
  300loPI    C3 4787   8.512   8.202  11.164 -0.0016  0.1826 -0.0667
  300loPI   PO4 4788   8.334   8.164  10.465 -0.2361 -0.1969 -0.0197
  300loPI   GL1 4789   8.281   8.341  10.083 -0.0392 -0.2316  0.1090
  300loPI   GL2 4790   8.574   8.116   9.935 -0.0151  0.1402 -0.0196
  300loPI   C1A 4791   8.385   8.622   9.664 -0.0850  0.3234 -0.0223
  300loPI   C2A 4792   8.369   8.653   9.209  0.2217 -0.1340  0.0314
  300loPI   C3A 4793   8.355   8.605   8.795 -0.0632 -0.0992 -0.1607
  300loPI   C4A 4794   8.301   8.672   8.408  0.0011  0.0124  0.0189
  300loPI   C5A 4795   7.916   8.835   8.209 -0.1177 -0.0497  0.1318
  300loPI   C6A 4796   7.776   9.007   7.772 -0.5478  0.2132 -0.1299
  300loPI   C1B 4797   8.559   8.117   9.483  0.1071 -0.0423 -0.0286
  300loPI   C2B 4798   8.550   8.195   9.064  0.0251 -0.2519 -0.2093
  300loPI   C3B 4799   8.524   8.040   8.709 -0.0842 -0.1235  0.1796
  300loPI   C4B 4800   8.260   8.112   8.420 -0.3516  0.3672  0.2577
  301loPI    C1 4801   0.668   3.775  10.332 -0.1113  0.2281 -0.0722
  301loPI    C2 4802   0.450   3.599  10.617 -0.0581  0.0644 -0.1317
  301loPI    C3 4803   0.280   3.867  10.374 -0.1808 -0.0242 -0.1446
  301loPI   PO4 4804   0.831   3.617  10.126 -0.0606  0.0726  0.0507
  301loPI   GL1 4805   1.000   3.871   9.855  0.2010  0.1537 -0.1829
  301loPI   GL2 4806   1.332   3.775   9.691 -0.0491  0.1175  0.1775
  301loPI   C1A 4807   0.825   3.905   9.419 -0.0997 -0.0642 -0.3191
  301loPI   C2A 4808   0.888   3.872   8.992 -0.1280  0.0099  0.0743
  301loPI   C3A 4809   0.679   4.041   8.620 -0.0862 -0.1530 -0.2028
  301loPI   C4A 4810   0.471   3.961   8.259  0.2030  0.1363 -0.1267
  301loPI   C5A 4811   0.315   4.098   7.864  0.2226  0.1533 -0.1612
  301loPI   C6A 4812   0.057   4.145   7.542 -0.1020  0.0620  0.2525
  301loPI   C1B 4813   1.389   3.973   9.223 -0.0274 -0.0715  0.0753
  301loPI   C2B 4814   1.446   3.852   8.746  0.0651  0.0964 -0.1922
  301loPI   C3B 4815   1.450   4.114   8.337  0.0044 -0.0539  0.0237
  301loPI   C4B 4816   1.611   4.483   8.217 -0.0032  0.4212  0.1260
  302loPI    C1 4817  17.577   2.624  10.319 -0.0394  0.1882  0.2984
  302loPI    C2 4818  17.208   2.604  10.166  0.1666  0.0850 -0.2054
  302loPI    C3 4819  17.369   2.283  10.341  0.0825  0.0787 -0.1393
  302loPI   PO4 4820  17.733   2.757  10.128 -0.1985  0.0121 -0.0410
  302loPI   GL1 4821  17.981   2.524   9.838 -0.1494  0.0734  0.3636
  302loPI   GL2 4822  17.801   2.764   9.612 -0.1184 -0.1073 -0.4002
  302loPI   C1A 4823  18.394   2.515   9.663  0.0757  0.0049  0.2319
  302loPI   C2A 4824  18.534   2.532   9.267 -0.0551  0.4016  0.0620
  302loPI   C3A 4825  18.574   2.409   8.807  0.1930  0.0382 -0.1108
  302loPI   C4A 4826  18.725   2.568   8.500 -0.1974  0.1192  0.0575
  302loPI   C5A 4827  18.909   2.750   8.068 -0.0903 -0.0953  0.0731
  302loPI   C6A 4828  18.732   3.068   7.923 -0.1021  0.2483 -0.1732
  302loPI   C1B 4829  18.017   2.702   9.220 -0.3456  0.0739 -0.3137
  302loPI   C2B 4830  18.073   2.525   8.863 -0.0980  0.1215 -0.1312
  302loPI   C3B 4831  18.207   2.586   8.474  0.1192 -0.1636 -0.2669
  302loPI   C4B 4832  18.433   2.633   8.095  0.0032 -0.0273 -0.1477
  303loPI    C1 4833  13.039   1.652  10.523  0.2015 -0.0671 -0.3558
  303loPI    C2 4834  13.234   1.381  10.743  0.0627 -0.0455 -0.2038
  303loPI    C3 4835  12.834   1.378  10.731  0.0494  0.3173  0.0148
  303loPI   PO4 4836  13.341   1.708  10.387  0.0494  0.1906  0.1916
  303loPI   GL1 4837  13.354   1.873  10.117  0.0490 -0.0640 -0.1838
  303loPI   GL2 4838  13.556   1.983   9.981 -0.1179  0.0939  0.0610
  303loPI   C1A 4839  13.194   1.766   9.669  0.1945  0.1750 -0.0434
  303loPI   C2A 4840  13.111   1.608   9.229 -0.1223 -0.0670 -0.0614
  303loPI   C3A 4841  13.148   1.485   8.847  0.0407  0.0568  0.0932
  303loPI   C4A 4842  13.150   1.776   8.504  0.1874  0.1456  0.0832
  303loPI   C5A 4843  13.328   1.965   8.110  0.0058  0.0420 -0.0236
  303loPI   C6A 4844  13.616   2.101   7.883  0.1366 -0.2140  0.0352
  303loPI   C1B 4845  13.381   2.236   9.611  0.0856  0.2336 -0.0325
  303loPI   C2B 4846  13.489   2.355   9.164 -0.2317 -0.2400 -0.0222
  303loPI   C3B 4847  13.561   2.639   8.875  0.1157  0.3813  0.0471
  303loPI   C4B 4848  13.847   2.683   8.594  0.3289  0.1051  0.1735
  304loPI    C1 4849   9.965  10.971  10.232  0.0012  0.1154  0.2488
  304loPI    C2 4850  10.111  10.598  10.245  0.2280  0.1973  0.1207
  304loPI    C3 4851  10.016  10.788  10.584  0.0806  0.0128  0.1848
  304loPI   PO4 4852   9.799  10.976  10.081  0.0874 -0.0694 -0.3445
  304loPI   GL1 4853   9.743  11.274   9.792  0.0114  0.2518 -0.1013
  304loPI   GL2 4854   9.503  11.186   9.585  0.1207  0.2408  0.0470
  304loPI   C1A 4855   9.737  11.609   9.540  0.0962  0.0064  0.0801
  304loPI   C2A 4856   9.789  11.671   9.071 -0.2289 -0.0994 -0.1051
  304loPI   C3A 4857   9.851  11.473   8.687  0.1141 -0.1529  0.1173
  304loPI   C4A 4858   9.468  11.223   8.486  0.0221 -0.2695  0.0655
  304loPI   C5A 4859   9.201  11.031   8.118 -0.0814 -0.1674 -0.0324
  304loPI   C6A 4860   9.115  10.539   7.990 -0.2334  0.0124  0.0948
  304loPI   C1B 4861   9.791  10.918   9.408 -0.0207  0.1331  0.0698
  304loPI   C2B 4862  10.036  11.204   9.147  0.2771 -0.0004 -0.2283
  304loPI   C3B 4863  10.289  11.258   8.747 -0.1132 -0.3036 -0.2189
  304loPI   C4B 4864  10.492  11.521   8.417 -0.1290  0.1249 -0.1007
  305loPI    C1 4865  14.121   6.464  10.763 -0.0045 -0.2714  0.1015
  305loPI    C2 4866  14.263   6.800  10.927 -0.0639 -0.1482 -0.0960
  305loPI    C3 4867  14.269   6.458  11.135  0.2621 -0.0871  0.0016
  305loPI   PO4 4868  14.195   6.556  10.517  0.5633 -0.3943  0.0514
  305loPI   GL1 4869  13.966   6.349  10.095  0.1212 -0.0480 -0.1984
  305loPI   GL2 4870  13.845   6.676  10.102  0.1084 -0.0518  0.0881
  305loPI   C1A 4871  13.780   6.334   9.717 -0.0322  0.1852 -0.1742
  305loPI   C2A 4872  13.720   6.483   9.371  0.2175  0.1758 -0.1515
  305loPI   C3A 4873  13.480   6.805   9.017 -0.1672  0.0327  0.0565
  305loPI   C4A 4874  13.304   7.136   8.761  0.0341  0.2861  0.3502
  305loPI   C5A 4875  13.059   7.438   8.635 -0.1372 -0.1867  0.0452
  305loPI   C6A 4876  12.730   7.603   8.288  0.1162  0.3285 -0.2551
  305loPI   C1B 4877  13.643   6.863   9.664 -0.0968  0.1562  0.1066
  305loPI   C2B 4878  13.253   6.983   9.415 -0.2144 -0.2044 -0.4637
  305loPI   C3B 4879  12.947   6.894   9.069 -0.3933 -0.2875  0.1060
  305loPI   C4B 4880  12.888   6.895   8.588 -0.0814 -0.0005  0.1849
  306loPI    C1 4881  12.471   0.939  10.926  0.0313  0.0301  0.1597
  306loPI    C2 4882  12.269   0.606  10.838  0.1239  0.0097  0.0219
  306loPI    C3 4883  12.282   0.737  11.215 -0.1958  0.0447  0.0240
  306loPI   PO4 4884  12.647   0.910  10.793  0.2602 -0.0960  0.2346
  306loPI   GL1 4885  12.526   0.767  10.352  0.0640  0.1847  0.0814
  306loPI   GL2 4886  12.774   0.588  10.310  0.1597  0.0013 -0.1166
  306loPI   C1A 4887  12.465   0.681   9.855  0.0816  0.1186  0.0799
  306loPI   C2A 4888  12.463   0.568   9.423  0.2207  0.0516  0.2602
  306loPI   C3A 4889  12.334   0.493   9.009 -0.1485  0.2213 -0.0001
  306loPI   C4A 4890  12.281   0.465   8.614 -0.2174  0.1583 -0.2015
  306loPI   C5A 4891  12.565   0.813   8.376 -0.0297 -0.2701  0.0254
  306loPI   C6A 4892  12.590   1.157   8.172 -0.1102 -0.0244  0.0432
  306loPI   C1B 4893  12.717   0.287   9.932 -0.3572 -0.0943 -0.2083
  306loPI   C2B 4894  12.665   0.098   9.509 -0.0800 -0.0965  0.0537
  306loPI   C3B 4895  12.713   0.149   9.116 -0.3014  0.0324 -0.1501
  306loPI   C4B 4896  12.761   0.344   8.711 -0.1725 -0.0863 -0.0235
  307loPI    C1 4897  17.722   5.304  10.744  0.1496  0.1186  0.0980
  307loPI    C2 4898  18.028   5.249  10.996  0.1452 -0.3128  0.0161
  307loPI    C3 4899  17.670   5.089  11.077 -0.0588  0.1683  0.0991
  307loPI   PO4 4900  17.831   5.213  10.475 -0.1383 -0.1305 -0.0200
  307loPI   GL1 4901  17.714   5.417  10.108 -0.0674 -0.0015  0.0615
  307loPI   GL2 4902  17.726   5.117   9.925  0.3704 -0.1709 -0.0931
  307loPI   C1A 4903  17.514   5.565   9.701  0.0813 -0.1470 -0.3432
  307loPI   C2A 4904  17.422   5.733   9.291 -0.0099  0.2149 -0.2356
  307loPI   C3A 4905  17.394   5.729   8.857  0.2362  0.1286  0.0069
  307loPI   C4A 4906  17.516   5.595   8.470 -0.0195  0.3113  0.1759
  307loPI   C5A 4907  17.820   5.745   8.207  0.3284 -0.1490  0.2101
  307loPI   C6A 4908  18.056   5.870   7.858 -0.0613 -0.0380  0.1345
  307loPI   C1B 4909  17.503   5.107   9.580 -0.0089  0.0334 -0.4861
  307loPI   C2B 4910  17.488   5.253   9.181  0.1319  0.2503 -0.0329
  307loPI   C3B 4911  17.310   5.239   8.772 -0.1426  0.1832 -0.0424
  307loPI   C4B 4912  17.308   5.074   8.314 -0.0387  0.2949  0.1709
  308loPI    C1 4913   3.095   7.390  10.438  0.0387 -0.1278  0.0653
  308loPI    C2 4914   3.437   7.440  10.639 -0.0406  0.1500  0.1348
  308loPI    C3 4915   3.132   7.244  10.809  0.0777 -0.0857  0.0781
  308loPI   PO4 4916   3.088   7.569  10.294 -0.1494 -0.1255 -0.1578
  308loPI   GL1 4917   3.079   7.535   9.928 -0.0998 -0.1023 -0.1721
  308loPI   GL2 4918   3.345   7.276   9.742 -0.1143  0.2237  0.1662
  308loPI   C1A 4919   2.758   7.704   9.659  0.0241  0.1591 -0.4291
  308loPI   C2A 4920   2.536   7.510   9.262 -0.1148 -0.1626 -0.2255
  308loPI   C3A 4921   2.513   7.531   8.900  0.0627 -0.2594 -0.3924
  308loPI   C4A 4922   2.477   7.462   8.582 -0.0998 -0.0079 -0.1390
  308loPI   C5A 4923   2.439   7.529   8.134 -0.0037  0.1931 -0.1942
  308loPI   C6A 4924   2.677   7.679   7.792  0.0387 -0.0556 -0.0373
  308loPI   C1B 4925   3.466   7.365   9.363  0.1649  0.2204 -0.1134
  308loPI   C2B 4926   3.447   7.493   8.907  0.1737  0.0307  0.0212
  308loPI   C3B 4927   3.459   7.548   8.433 -0.0962 -0.1891  0.0880
  308loPI   C4B 4928   3.614   7.303   8.163 -0.2134 -0.0703  0.3266
  309loPI    C1 4929   9.573   2.070  10.751 -0.1329  0.0729  0.0069
  309loPI    C2 4930   9.665   2.097  11.140 -0.1988  0.0640  0.0232
  309loPI    C3 4931   9.352   1.877  11.023 -0.0992 -0.0420 -0.0466
  309loPI   PO4 4932   9.881   2.015  10.625  0.0813  0.0285  0.2030
  309loPI   GL1 4933   9.801   1.765  10.337 -0.1894  0.2079  0.0281
  309loPI   GL2 4934   9.445   1.864  10.176 -0.3557 -0.3247 -0.1785
  309loPI   C1A 4935   9.814   1.566   9.998 -0.0825  0.2816  0.2575
  309loPI   C2A 4936   9.618   1.391   9.646 -0.1934 -0.0808 -0.2387
  309loPI   C3A 4937   9.579   1.303   9.234 -0.2019  0.3920 -0.0861
  309loPI   C4A 4938   9.722   1.351   8.840 -0.2460 -0.0735 -0.2208
  309loPI   C5A 4939   9.788   1.393   8.480 -0.1193  0.1141 -0.0399
  309loPI   C6A 4940   9.842   1.352   8.084 -0.1613  0.2038  0.1505
  309loPI   C1B 4941   9.598   1.977   9.732 -0.0125  0.1520  0.1962
  309loPI   C2B 4942   9.790   1.765   9.405  0.0806  0.1405  0.2946
  309loPI   C3B 4943   9.983   1.711   8.995 -0.1241  0.1714  0.1598
  309loPI   C4B 4944  10.293   1.850   8.682  0.1468 -0.4360 -0.0277
  310loPI    C1 4945   7.238   3.824  10.579  0.0604 -0.2053 -0.0776
  310loPI    C2 4946   7.304   4.174  10.759  0.4356 -0.2624 -0.0971
  310loPI    C3 4947   7.208   3.853  10.976 -0.1663 -0.0964 -0.1010
  310loPI   PO4 4948   7.038   3.850  10.436 -0.3636  0.0871 -0.1690
  310loPI   GL1 4949   7.075   3.987   9.979  0.1529 -0.0840 -0.2551
  310loPI   GL2 4950   6.862   3.615  10.044  0.0242 -0.0818 -0.2470
  310loPI   C1A 4951   7.343   4.444   9.871 -0.0203  0.1297  0.2220
  310loPI   C2A 4952   7.723   4.643   9.551 -0.3510  0.1328  0.1106
  310loPI   C3A 4953   7.802   4.845   9.218  0.1387  0.0479  0.0199
  310loPI   C4A 4954   8.147   4.950   9.072 -0.1905  0.3130 -0.0436
  310loPI   C5A 4955   8.372   4.967   8.726  0.0709  0.0086 -0.1023
  310loPI   C6A 4956   8.530   5.342   8.521  0.2704 -0.2281 -0.3773
  310loPI   C1B 4957   7.220   3.598   9.638  0.0674 -0.2214  0.0926
  310loPI   C2B 4958   7.318   3.749   9.326 -0.1172 -0.1619 -0.0728
  310loPI   C3B 4959   7.398   3.865   8.975 -0.2180 -0.0733 -0.1653
  310loPI   C4B 4960   7.607   4.068   8.589  0.1965  0.0043  0.3445
  311loPI    C1 4961  17.703   7.379  10.341 -0.0522 -0.1258  0.0069
  311loPI    C2 4962  17.592   7.763  10.344 -0.2182 -0.1725 -0.0527
  311loPI    C3 4963  17.618   7.559  10.688  0.3715  0.0319  0.0351
  311loPI   PO4 4964  17.965   7.293  10.205  0.0202 -0.0546  0.0134
  311loPI   GL1 4965  17.973   7.068   9.845  0.1606  0.1417 -0.2144
  311loPI   GL2 4966  17.784   6.958   9.634  0.2312  0.2688  0.2750
  311loPI   C1A 4967  18.244   6.724   9.603  0.0494 -0.1903 -0.2005
  311loPI   C2A 4968  18.451   6.769   9.257 -0.2363  0.0667 -0.1334
  311loPI   C3A 4969  18.481   6.760   8.775 -0.0329 -0.0582 -0.1682
  311loPI   C4A 4970  18.485   6.662   8.306 -0.0398  0.0538  0.0893
  311loPI   C5A 4971  18.371   6.370   8.003  0.0762  0.0631 -0.0164
  311loPI   C6A 4972  18.321   6.245   7.626  0.0806 -0.0674 -0.0707
  311loPI   C1B 4973  17.965   7.114   9.329  0.1648  0.1876 -0.0195
  311loPI   C2B 4974  18.006   7.114   8.871  0.0360 -0.0130  0.0134
  311loPI   C3B 4975  17.963   7.021   8.485 -0.0885  0.0636  0.1881
  311loPI   C4B 4976  17.582   7.310   8.281 -0.2521  0.1175  0.1689
  312loPI    C1 4977   6.751  13.158  10.778  0.2566 -0.0056  0.0815
  312loPI    C2 4978   6.761  12.772  10.881 -0.0551 -0.0022  0.1343
  312loPI    C3 4979   6.420  12.978  10.911 -0.0160  0.1495 -0.3627
  312loPI   PO4 4980   6.899  13.181  10.493 -0.0778  0.1434 -0.2746
  312loPI   GL1 4981   6.719  13.139  10.031  0.0051  0.0915  0.0302
  312loPI   GL2 4982   6.685  13.439   9.917 -0.1408  0.4683  0.1669
  312loPI   C1A 4983   6.844  13.049   9.627  0.0091 -0.1975  0.2087
  312loPI   C2A 4984   6.991  13.190   9.221 -0.0589 -0.0177  0.3735
  312loPI   C3A 4985   7.290  13.059   8.895  0.2481 -0.4404  0.0732
  312loPI   C4A 4986   7.409  12.997   8.554 -0.2726 -0.2968 -0.0177
  312loPI   C5A 4987   7.693  13.006   8.192 -0.0530  0.1034 -0.3028
  312loPI   C6A 4988   7.998  13.198   7.856 -0.2188 -0.2115  0.0601
  312loPI   C1B 4989   6.605  13.695   9.500  0.1181  0.1385 -0.0883
  312loPI   C2B 4990   6.593  13.611   9.077  0.0622 -0.2647 -0.0783
  312loPI   C3B 4991   6.570  13.266   8.807 -0.1296  0.1590  0.1410
  312loPI   C4B 4992   6.843  13.020   8.592 -0.5182  0.4111  0.1256
  313loPI    C1 4993   3.035   9.617  10.270  0.1065  0.0585  0.0033
  313loPI    C2 4994   2.917   9.449  10.613 -0.1119 -0.1850 -0.1873
  313loPI    C3 4995   2.730   9.775  10.475  0.2049  0.1255  0.0990
  313loPI   PO4 4996   3.138   9.486  10.104 -0.1521  0.0794  0.1251
  313loPI   GL1 4997   3.110   9.199   9.700  0.0849 -0.2234 -0.1516
  313loPI   GL2 4998   3.344   9.176   9.744 -0.0619 -0.0937  0.0861
  313loPI   C1A 4999   2.772   9.054   9.424 -0.2943 -0.2745  0.0942
  313loPI   C2A 5000   2.745   9.007   9.015 -0.3780 -0.0778 -0.1600
  313loPI   C3A 5001   2.816   8.907   8.609 -0.1342  0.1590 -0.2403
  313loPI   C4A 5002   2.874   8.848   8.173  0.0183  0.1351 -0.0296
  313loPI   C5A 5003   3.133   8.687   7.866  0.2910 -0.0543 -0.1466
  313loPI   C6A 5004   3.400   8.224   7.853  0.1140 -0.2361  0.1214
  313loPI   C1B 5005   3.265   9.091   9.281  0.0654  0.1515  0.3203
  313loPI   C2B 5006   3.309   9.023   8.877  0.1202 -0.0687  0.0626
  313loPI   C3B 5007   3.356   8.955   8.382 -0.0820  0.1889 -0.2203
  313loPI   C4B 5008   3.580   8.935   8.039 -0.0122 -0.3356  0.1820
  314loPI    C1 5009  17.679  16.281  10.582 -0.0111 -0.1195 -0.1293
  314loPI    C2 5010  17.867  16.624  10.669 -0.1533 -0.0477 -0.1014
  314loPI    C3 5011  17.754  16.377  10.963  0.0345 -0.1658 -0.1265
  314loPI   PO4 5012  17.818  16.162  10.349 -0.2870  0.2306 -0.1074
  314loPI   GL1 5013  17.992  16.012   9.871  0.0538 -0.0149 -0.0210
  314loPI   GL2 5014  18.227  16.276  10.002 -0.1493  0.1203 -0.1472
  314loPI   C1A 5015  18.012  15.973   9.360  0.2217 -0.1372 -0.2167
  314loPI   C2A 5016  17.973  15.916   8.852 -0.1665  0.0798 -0.0886
  314loPI   C3A 5017  18.252  15.745   8.533  0.1534 -0.0903 -0.0457
  314loPI   C4A 5018  18.544  15.855   8.326  0.1994  0.1055  0.0313
  314loPI   C5A 5019  18.641  16.294   8.190 -0.3661  0.1793  0.1219
  314loPI   C6A 5020  18.726  16.628   7.971  0.2275 -0.2525 -0.0639
  314loPI   C1B 5021  18.062  16.457   9.689 -0.0500  0.4080  0.4324
  314loPI   C2B 5022  18.101  16.478   9.287 -0.0599  0.2866 -0.1363
  314loPI   C3B 5023  18.142  16.416   8.838 -0.0723  0.0381  0.1213
  314loPI   C4B 5024  18.219  16.306   8.306 -0.0645 -0.0524  0.2344
  315loPI    C1 5025   5.834   4.733  10.736 -0.3412 -0.1553 -0.0173
  315loPI    C2 5026   6.139   4.970  10.842 -0.1280 -0.2651 -0.3664
  315loPI    C3 5027   5.838   4.904  11.097 -0.0061  0.0793 -0.1266
  315loPI   PO4 5028   5.857   4.784  10.481 -0.1251  0.0343  0.1333
  315loPI   GL1 5029   5.713   4.612  10.072  0.1413  0.1125 -0.2420
  315loPI   GL2 5030   5.808   4.304  10.127 -0.0866 -0.0402  0.1062
  315loPI   C1A 5031   5.422   4.451   9.668  0.0402 -0.3505  0.0396
  315loPI   C2A 5032   5.475   4.401   9.244  0.2121 -0.2290  0.1713
  315loPI   C3A 5033   5.689   4.263   8.917  0.1642 -0.1716 -0.0765
  315loPI   C4A 5034   5.699   4.107   8.522  0.0622 -0.1797 -0.0368
  315loPI   C5A 5035   5.516   3.961   8.114 -0.3968  0.1316 -0.1235
  315loPI   C6A 5036   5.340   3.631   8.090  0.1934  0.2229  0.2548
  315loPI   C1B 5037   5.894   4.280   9.665 -0.0213 -0.1042  0.0171
  315loPI   C2B 5038   6.027   4.048   9.261  0.0898 -0.0628  0.0652
  315loPI   C3B 5039   6.145   4.149   8.849 -0.0377 -0.1720  0.1360
  315loPI   C4B 5040   6.194   3.999   8.391 -0.2739  0.2593  0.1656
  316loPI    C1 5041   2.081  12.985  10.541 -0.0322 -0.4019  0.4101
  316loPI    C2 5042   1.700  12.874  10.586 -0.1378 -0.0623  0.3744
  316loPI    C3 5043   1.859  13.148  10.830 -0.0747  0.1860  0.0608
  316loPI   PO4 5044   2.173  12.967  10.316  0.1084  0.0615 -0.3795
  316loPI   GL1 5045   2.145  12.949   9.978 -0.1504  0.0390 -0.2300
  316loPI   GL2 5046   2.380  12.958   9.825  0.1755  0.0539 -0.4213
  316loPI   C1A 5047   2.006  12.717   9.638 -0.0998 -0.1351  0.2341
  316loPI   C2A 5048   1.913  12.738   9.230  0.2213  0.0556  0.0306
  316loPI   C3A 5049   1.976  12.721   8.867  0.0522  0.0554 -0.1062
  316loPI   C4A 5050   1.945  12.641   8.441 -0.0707 -0.0498  0.1088
  316loPI   C5A 5051   1.812  12.385   8.096  0.0053 -0.1156  0.0328
  316loPI   C6A 5052   1.490  12.016   8.094 -0.0078 -0.0166  0.0517
  316loPI   C1B 5053   2.306  13.053   9.335 -0.0650 -0.1425  0.2885
  316loPI   C2B 5054   2.242  13.114   8.859  0.0025 -0.1247 -0.1488
  316loPI   C3B 5055   2.182  13.170   8.457  0.1531  0.3303  0.0002
  316loPI   C4B 5056   2.167  13.520   8.188  0.0505  0.0221  0.1688
  317loPI    C1 5057  14.067   5.283  11.069 -0.0720  0.0344 -0.1375
  317loPI    C2 5058  13.764   5.247  11.327  0.0232  0.1357 -0.0100
  317loPI    C3 5059  14.116   5.073  11.406  0.0601  0.1878 -0.0595
  317loPI   PO4 5060  13.868   5.200  10.837 -0.0840  0.2414 -0.0041
  317loPI   GL1 5061  13.961   5.326  10.394 -0.0521 -0.1506  0.0735
  317loPI   GL2 5062  14.014   5.708  10.190  0.1284 -0.1209  0.3164
  317loPI   C1A 5063  13.702   5.370   9.981  0.0395 -0.0716 -0.0137
  317loPI   C2A 5064  13.835   5.450   9.540 -0.1256  0.1575  0.0507
  317loPI   C3A 5065  14.034   5.586   9.282  0.0535 -0.2271  0.1921
  317loPI   C4A 5066  14.315   5.511   8.885  0.0433  0.2348  0.0330
  317loPI   C5A 5067  14.685   5.722   8.792 -0.0922 -0.0542 -0.1340
  317loPI   C6A 5068  15.062   5.628   9.119  0.2384  0.0103 -0.0479
  317loPI   C1B 5069  14.081   5.861   9.763  0.0929  0.0639 -0.3436
  317loPI   C2B 5070  14.064   6.135   9.373  0.4388  0.3254  0.0330
  317loPI   C3B 5071  13.908   6.040   9.075  0.2244 -0.1082 -0.2045
  317loPI   C4B 5072  13.929   5.947   8.710 -0.0625  0.0637  0.2372
  318loPI    C1 5073   0.951   1.293  10.225 -0.0977 -0.1798 -0.0414
  318loPI    C2 5074   0.969   1.356  10.620  0.0073 -0.1453 -0.0513
  318loPI    C3 5075   0.679   1.126  10.467 -0.0659 -0.1144  0.0400
  318loPI   PO4 5076   0.996   1.508  10.064 -0.0669  0.3101  0.0100
  318loPI   GL1 5077   0.837   1.842   9.886  0.2156 -0.0395 -0.2117
  318loPI   GL2 5078   0.628   1.594   9.727  0.1719  0.0228 -0.0596
  318loPI   C1A 5079   0.977   1.812   9.519  0.3257  0.1400  0.0237
  318loPI   C2A 5080   0.934   1.692   9.061 -0.0611 -0.0879 -0.1157
  318loPI   C3A 5081   1.060   1.635   8.656 -0.1012 -0.1849  0.2009
  318loPI   C4A 5082   1.090   1.660   8.189 -0.0246  0.0917  0.0985
  318loPI   C5A 5083   1.022   1.663   7.692 -0.1247 -0.0104 -0.3700
  318loPI   C6A 5084   0.608   1.874   7.510  0.0169  0.2904  0.0002
  318loPI   C1B 5085   0.607   1.489   9.336 -0.3565  0.1770  0.0968
  318loPI   C2B 5086   0.542   1.400   8.858 -0.0114 -0.2711 -0.1507
  318loPI   C3B 5087   0.692   1.427   8.406 -0.0214 -0.1234 -0.0951
  318loPI   C4B 5088   0.887   1.261   7.978 -0.0060 -0.1473  0.1704
  319loPI    C1 5089  16.659   9.696  10.803 -0.1982  0.2893  0.0742
  319loPI    C2 5090  17.000   9.903  10.773 -0.0079 -0.0502 -0.1686
  319loPI    C3 5091  16.867   9.789  11.132  0.0939  0.1485 -0.0664
  319loPI   PO4 5092  16.752   9.600  10.459  0.1987 -0.0548 -0.0841
  319loPI   GL1 5093  16.848   9.632  10.096 -0.2238 -0.1102  0.1660
  319loPI   GL2 5094  16.799   9.333   9.974  0.1172 -0.0944 -0.1347
  319loPI   C1A 5095  16.702   9.729   9.611  0.1754 -0.0766 -0.0569
  319loPI   C2A 5096  16.466   9.559   9.130 -0.3290  0.1006  0.0811
  319loPI   C3A 5097  16.153   9.642   8.847  0.2569 -0.0401 -0.0078
  319loPI   C4A 5098  15.823   9.830   8.516 -0.2825  0.1144  0.2843
  319loPI   C5A 5099  15.819   9.988   8.095 -0.1381 -0.2275 -0.2161
  319loPI   C6A 5100  15.554  10.212   7.781 -0.0158  0.1199 -0.1689
  319loPI   C1B 5101  16.435   9.310   9.920  0.0069  0.1258 -0.2768
  319loPI   C2B 5102  16.300   9.480   9.592 -0.2490  0.1789  0.2381
  319loPI   C3B 5103  15.946   9.578   9.375 -0.4486  0.1335  0.2317
  319loPI   C4B 5104  15.731   9.783   9.149 -0.0972  0.1480  0.2891
  320loPI    C1 5105   5.915   2.691  10.685 -0.0340 -0.1035 -0.0682
  320loPI    C2 5106   5.706   2.591  11.011  0.2772  0.0955  0.1986
  320loPI    C3 5107   6.003   2.355  10.883  0.2473  0.0892  0.1401
  320loPI   PO4 5108   5.721   2.813  10.572  0.3308  0.1419 -0.0219
  320loPI   GL1 5109   5.547   2.961  10.315  0.0650  0.1044  0.1760
  320loPI   GL2 5110   5.176   2.918  10.311  0.2570 -0.0037 -0.1573
  320loPI   C1A 5111   5.384   2.776   9.872 -0.1613  0.1303 -0.0614
  320loPI   C2A 5112   5.450   2.782   9.467 -0.1964 -0.1950  0.0093
  320loPI   C3A 5113   5.540   2.773   8.990  0.2972 -0.1448 -0.0432
  320loPI   C4A 5114   5.557   2.671   8.605 -0.1613  0.0232 -0.0212
  320loPI   C5A 5115   5.216   2.519   8.351 -0.4132 -0.0113 -0.2409
  320loPI   C6A 5116   5.090   2.191   8.037 -0.2915  0.1213  0.3188
  320loPI   C1B 5117   4.947   2.954   9.958 -0.0295 -0.0350  0.1542
  320loPI   C2B 5118   5.003   2.935   9.544 -0.0599 -0.2028  0.1213
  320loPI   C3B 5119   5.052   2.995   9.028  0.1163 -0.0555 -0.2832
  320loPI   C4B 5120   4.931   2.972   8.663  0.4020 -0.1378 -0.0474
  321loPI    C1 5121  14.773   1.433  10.488 -0.0572  0.1115  0.1596
  321loPI    C2 5122  15.053   1.230  10.688  0.0317 -0.0895 -0.1623
  321loPI    C3 5123  15.047   1.630  10.703  0.1899 -0.0928  0.0364
  321loPI   PO4 5124  14.544   1.312  10.522  0.1907 -0.0694  0.1845
  321loPI   GL1 5125  14.162   1.270  10.219  0.1041  0.2130 -0.1454
  321loPI   GL2 5126  14.233   0.936  10.228 -0.2178  0.1190 -0.0063
  321loPI   C1A 5127  14.459   1.469   9.828  0.0935 -0.0604 -0.2570
  321loPI   C2A 5128  14.676   1.431   9.472 -0.0973 -0.2128 -0.3440
  321loPI   C3A 5129  14.530   1.379   9.024 -0.0307  0.1400 -0.0558
  321loPI   C4A 5130  14.523   1.208   8.573  0.0212 -0.2629 -0.0453
  321loPI   C5A 5131  14.473   1.395   8.199  0.3638  0.0685 -0.3616
  321loPI   C6A 5132  14.051   1.304   7.978 -0.0352 -0.1423  0.0228
  321loPI   C1B 5133  14.361   0.948   9.880 -0.0083  0.2552  0.0888
  321loPI   C2B 5134  14.431   1.012   9.412  0.1402  0.3116  0.1824
  321loPI   C3B 5135  14.526   0.618   9.193  0.0156 -0.2484 -0.1394
  321loPI   C4B 5136  14.694   0.278   8.998 -0.0489  0.2629  0.0958
  322loPI    C1 5137   2.649  15.130  10.377 -0.2347 -0.3141 -0.0018
  322loPI    C2 5138   2.661  15.422  10.650 -0.0449 -0.1671 -0.1643
  322loPI    C3 5139   2.729  15.043  10.759 -0.0227 -0.1162  0.0012
  322loPI   PO4 5140   2.361  15.161  10.252  0.2345 -0.0502 -0.4551
  322loPI   GL1 5141   2.065  15.190   9.882  0.1947  0.1466  0.0910
  322loPI   GL2 5142   2.334  15.304   9.795 -0.1765 -0.2305 -0.0780
  322loPI   C1A 5143   2.060  15.150   9.422  0.1152 -0.1510 -0.1983
  322loPI   C2A 5144   2.157  15.141   9.010 -0.0819  0.0036 -0.2770
  322loPI   C3A 5145   2.166  15.276   8.542  0.0590 -0.1333  0.0677
  322loPI   C4A 5146   2.370  15.125   8.156  0.0825  0.0505 -0.1158
  322loPI   C5A 5147   2.425  14.725   7.930  0.1617  0.0244  0.1300
  322loPI   C6A 5148   2.212  14.584   7.490 -0.1248  0.1194  0.1539
  322loPI   C1B 5149   2.241  15.577   9.458 -0.4507  0.1445 -0.0051
  322loPI   C2B 5150   2.133  15.654   9.020  0.0126  0.3084  0.0675
  322loPI   C3B 5151   2.234  15.801   8.650 -0.1172 -0.0276  0.1767
  322loPI   C4B 5152   2.133  15.957   8.339  0.0203  0.0176  0.1642
  323loPI    C1 5153  13.944   9.842  10.718  0.0942 -0.0167  0.0507
  323loPI    C2 5154  14.252   9.709  10.935  0.1367 -0.0902 -0.0538
  323loPI    C3 5155  13.879   9.680  11.078  0.1762 -0.0141  0.0665
  323loPI   PO4 5156  14.019  10.062  10.584 -0.3015  0.0524 -0.3447
  323loPI   GL1 5157  14.113  10.028  10.145 -0.0470  0.2116  0.1311
  323loPI   GL2 5158  13.839   9.739  10.240 -0.3183 -0.0889  0.0620
  323loPI   C1A 5159  14.086   9.739   9.742  0.2025 -0.0047  0.1252
  323loPI   C2A 5160  14.096   9.705   9.321  0.2282 -0.3785 -0.0334
  323loPI   C3A 5161  14.172   9.775   8.861  0.1672  0.0048 -0.0328
  323loPI   C4A 5162  14.162  10.056   8.569 -0.1931 -0.0860  0.3033
  323loPI   C5A 5163  13.896  10.210   8.275 -0.1673 -0.1686  0.2667
  323loPI   C6A 5164  13.411  10.202   8.248 -0.0000 -0.3630 -0.0422
  323loPI   C1B 5165  13.970   9.348  10.049  0.0209  0.1188 -0.1913
  323loPI   C2B 5166  14.089   9.243   9.650 -0.1484  0.2366  0.2913
  323loPI   C3B 5167  14.511   9.369   9.431 -0.0459 -0.1411  0.0826
  323loPI   C4B 5168  14.667   9.408   8.978 -0.0238  0.3174 -0.1687
  324loPI    C1 5169  15.110  15.905  10.672 -0.1833 -0.1615  0.0933
  324loPI    C2 5170  15.250  16.246  10.827 -0.2756 -0.1896  0.2406
  324loPI    C3 5171  14.859  16.208  10.748 -0.2158 -0.1408 -0.0918
  324loPI   PO4 5172  15.256  15.775  10.353 -0.2653 -0.3644 -0.1118
  324loPI   GL1 5173  15.347  15.399  10.112 -0.1146  0.2222  0.2157
  324loPI   GL2 5174  15.699  15.414   9.941  0.1603 -0.1343  0.1365
  324loPI   C1A 5175  15.310  15.193   9.647  0.3110 -0.0456 -0.1228
  324loPI   C2A 5176  15.182  15.313   9.289 -0.0209 -0.1776 -0.0318
  324loPI   C3A 5177  15.136  15.512   8.781  0.0938  0.0482  0.0912
  324loPI   C4A 5178  15.140  15.443   8.409  0.0735  0.0333 -0.1503
  324loPI   C5A 5179  15.105  15.726   8.126 -0.2649 -0.0976 -0.2365
  324loPI   C6A 5180  14.921  16.014   7.913  0.0196  0.0340 -0.0407
  324loPI   C1B 5181  15.697  15.518   9.472 -0.0745  0.0419  0.0893
  324loPI   C2B 5182  15.645  15.406   9.096 -0.0600  0.1546  0.2713
  324loPI   C3B 5183  15.672  15.449   8.721  0.2765  0.4788  0.0631
  324loPI   C4B 5184  15.658  15.468   8.260 -0.3035  0.0903 -0.0351
  325loPI    C1 5185  11.805  17.993  10.593 -0.0089  0.0822 -0.0581
  325loPI    C2 5186  11.446  18.168  10.571 -0.1090 -0.1158 -0.0216
  325loPI    C3 5187  11.638  18.149  10.921  0.0803  0.2681 -0.1000
  325loPI   PO4 5188  11.958  18.083  10.391  0.3935  0.1237  0.2785
  325loPI   GL1 5189  11.880  17.890   9.958  0.0979 -0.1219 -0.3174
  325loPI   GL2 5190  12.204  17.693  10.055  0.1517 -0.2376 -0.0360
  325loPI   C1A 5191  11.855  17.835   9.515 -0.1911 -0.0377  0.0969
  325loPI   C2A 5192  11.809  17.835   9.079 -0.0477  0.0478  0.1029
  325loPI   C3A 5193  11.633  17.951   8.721 -0.3350  0.0890 -0.2712
  325loPI   C4A 5194  11.741  18.336   8.458 -0.0065  0.0944  0.1546
  325loPI   C5A 5195  11.538  18.770   8.323  0.0738  0.2962  0.1080
  325loPI   C6A 5196  11.213  19.087   8.401  0.1775  0.2052  0.0388
  325loPI   C1B 5197  12.336  17.846   9.576  0.0300  0.0791 -0.0724
  325loPI   C2B 5198  12.519  17.803   9.168  0.0396 -0.1266 -0.1884
  325loPI   C3B 5199  12.684  17.912   8.728  0.0370  0.0717  0.1829
  325loPI   C4B 5200  12.481  17.661   8.508  0.3518 -0.2026 -0.0283
  326loPI    C1 5201   5.636  11.837  10.329  0.0516 -0.0464  0.1766
  326loPI    C2 5202   5.716  11.883  10.718  0.0540  0.0299  0.1670
  326loPI    C3 5203   5.368  11.723  10.602  0.0474  0.0202  0.2002
  326loPI   PO4 5204   5.751  12.030  10.218  0.1182  0.1508 -0.2581
  326loPI   GL1 5205   5.860  12.222   9.850 -0.0649 -0.1506  0.0163
  326loPI   GL2 5206   6.087  12.373   9.601 -0.2722 -0.1358  0.2323
  326loPI   C1A 5207   5.624  12.321   9.480  0.0550 -0.1013  0.0143
  326loPI   C2A 5208   5.562  12.306   9.031  0.4400 -0.0501  0.0519
  326loPI   C3A 5209   5.565  12.284   8.652 -0.3226 -0.0305  0.0358
  326loPI   C4A 5210   5.267  12.270   8.289  0.0092  0.0713 -0.1902
  326loPI   C5A 5211   4.912  12.186   8.233  0.0941 -0.3930  0.4584
  326loPI   C6A 5212   4.455  12.134   8.513 -0.1751  0.1065  0.1075
  326loPI   C1B 5213   5.995  12.451   9.136  0.1896 -0.1407 -0.0568
  326loPI   C2B 5214   6.061  12.489   8.683  0.1937 -0.1880  0.0112
  326loPI   C3B 5215   5.992  12.411   8.247 -0.3697  0.2002 -0.0223
  326loPI   C4B 5216   6.080  12.186   7.827 -0.0868  0.1139  0.1667
  327loPI    C1 5217   1.383   5.766  10.453  0.0032 -0.2609  0.1898
  327loPI    C2 5218   1.150   5.539  10.685 -0.1935 -0.2119  0.0418
  327loPI    C3 5219   1.395   5.807  10.851 -0.3524 -0.1582  0.1932
  327loPI   PO4 5220   1.171   5.855  10.265 -0.0112  0.3033  0.1693
  327loPI   GL1 5221   1.068   5.712   9.843  0.0187 -0.0283 -0.2651
  327loPI   GL2 5222   1.365   5.621   9.825 -0.1050 -0.1283  0.1838
  327loPI   C1A 5223   0.889   5.632   9.414  0.3447 -0.0985 -0.0736
  327loPI   C2A 5224   1.050   5.539   8.986 -0.2386 -0.0632 -0.1567
  327loPI   C3A 5225   1.381   5.760   8.678 -0.2038  0.0107 -0.2855
  327loPI   C4A 5226   1.618   5.667   8.306  0.0216  0.0078  0.0592
  327loPI   C5A 5227   1.864   5.711   8.080 -0.0837  0.5853 -0.0727
  327loPI   C6A 5228   2.031   5.581   7.715 -0.1693 -0.0435 -0.1873
  327loPI   C1B 5229   1.502   5.665   9.395  0.0774 -0.2199  0.1635
  327loPI   C2B 5230   1.651   5.479   9.030  0.2540 -0.0184 -0.3073
  327loPI   C3B 5231   1.544   5.254   8.677  0.0344 -0.0144 -0.1520
  327loPI   C4B 5232   1.486   5.030   8.382  0.1183 -0.0299  0.2191
  328loPI    C1 5233  13.107   2.557  10.585 -0.0448  0.0433 -0.0874
  328loPI    C2 5234  13.486   2.500  10.699  0.0347 -0.0379 -0.3824
  328loPI    C3 5235  13.273   2.195  10.553 -0.1794 -0.0155 -0.1263
  328loPI   PO4 5236  13.102   2.804  10.532  0.1556  0.3980  0.2058
  328loPI   GL1 5237  13.153   3.045  10.224  0.1052 -0.2468 -0.1007
  328loPI   GL2 5238  12.865   3.014  10.105  0.1578 -0.2712  0.1646
  328loPI   C1A 5239  13.393   3.030   9.885  0.2278 -0.0083  0.0699
  328loPI   C2A 5240  13.391   2.894   9.472  0.0122 -0.1003 -0.1985
  328loPI   C3A 5241  13.125   2.968   9.213 -0.2685  0.0786 -0.2722
  328loPI   C4A 5242  13.171   3.073   8.799  0.3347 -0.5977 -0.1769
  328loPI   C5A 5243  13.000   3.169   8.400 -0.2026 -0.1069  0.0556
  328loPI   C6A 5244  12.953   2.833   8.068 -0.0787 -0.2595 -0.1839
  328loPI   C1B 5245  12.791   2.993   9.668  0.1316  0.0581 -0.3145
  328loPI   C2B 5246  12.636   2.826   9.310  0.1213  0.2748 -0.1649
  328loPI   C3B 5247  12.634   2.895   8.866 -0.3306 -0.0653  0.3829
  328loPI   C4B 5248  12.449   3.109   8.489 -0.0042  0.0593 -0.2354
  329loPI    C1 5249  13.922  11.128  10.859 -0.1309 -0.1678 -0.3036
  329loPI    C2 5250  13.601  11.209  11.084  0.0278  0.0167 -0.1397
  329loPI    C3 5251  13.754  11.491  10.844 -0.1529 -0.1852 -0.4991
  329loPI   PO4 5252  13.796  10.874  10.738  0.0602 -0.0388  0.0679
  329loPI   GL1 5253  13.900  10.739  10.408  0.0354  0.2658  0.0515
  329loPI   GL2 5254  13.902  10.490  10.239  0.0522 -0.1383  0.3152
  329loPI   C1A 5255  13.971  11.056  10.077 -0.0596 -0.1618 -0.0748
  329loPI   C2A 5256  14.100  11.069   9.596 -0.1871  0.0407 -0.0313
  329loPI   C3A 5257  14.017  11.095   9.129 -0.3755 -0.0605 -0.0517
  329loPI   C4A 5258  13.994  11.087   8.666  0.4345 -0.0203  0.1201
  329loPI   C5A 5259  13.938  11.180   8.191 -0.1485 -0.0459  0.1868
  329loPI   C6A 5260  13.978  11.037   7.621 -0.1493  0.0895  0.0775
  329loPI   C1B 5261  13.928  10.580   9.846 -0.1014 -0.0291 -0.0057
  329loPI   C2B 5262  13.867  10.597   9.417 -0.0336 -0.0157  0.2470
  329loPI   C3B 5263  14.081  10.621   9.092  0.0399 -0.2548  0.1328
  329loPI   C4B 5264  14.414  10.648   8.778  0.0402 -0.0875 -0.1443
  330loPI    C1 5265  15.510   1.260  10.319  0.1689 -0.1493 -0.2005
  330loPI    C2 5266  15.553   1.589  10.542 -0.1206 -0.2604  0.0252
  330loPI    C3 5267  15.861   1.452  10.327 -0.0080  0.1771 -0.1021
  330loPI   PO4 5268  15.213   1.386  10.229 -0.2446 -0.0702  0.1641
  330loPI   GL1 5269  15.368   1.576   9.898 -0.0139  0.2865 -0.0724
  330loPI   GL2 5270  15.656   1.744   9.941  0.0976  0.0633  0.0755
  330loPI   C1A 5271  15.154   1.592   9.540 -0.1304 -0.1281 -0.0387
  330loPI   C2A 5272  15.080   1.464   9.096  0.0270 -0.1018  0.1201
  330loPI   C3A 5273  14.979   1.362   8.720 -0.0336  0.2169  0.2033
  330loPI   C4A 5274  14.974   1.625   8.400 -0.1562  0.1369  0.3660
  330loPI   C5A 5275  15.179   1.551   8.017 -0.1105 -0.3283 -0.0003
  330loPI   C6A 5276  15.417   1.546   7.643  0.1143 -0.0232 -0.0020
  330loPI   C1B 5277  15.741   1.759   9.557 -0.1715  0.0161 -0.2367
  330loPI   C2B 5278  15.903   1.692   9.155  0.0301  0.3351  0.0257
  330loPI   C3B 5279  16.065   1.541   8.801 -0.2155 -0.2637 -0.2708
  330loPI   C4B 5280  16.217   1.449   8.335 -0.0338  0.0089 -0.0144
  331loPI    C1 5281  16.937  10.338  10.973 -0.1666  0.1201 -0.1193
  331loPI    C2 5282  16.569  10.182  10.993 -0.2172  0.2352 -0.1493
  331loPI    C3 5283  16.777  10.249  11.328 -0.1627  0.0269 -0.1406
  331loPI   PO4 5284  16.909  10.383  10.674 -0.1812  0.0418  0.3521
  331loPI   GL1 5285  17.184  10.267  10.334 -0.0158  0.0231  0.0245
  331loPI   GL2 5286  16.882  10.160  10.176  0.1189 -0.1810  0.1170
  331loPI   C1A 5287  17.136  10.574   9.996  0.0160  0.3414 -0.0793
  331loPI   C2A 5288  17.007  10.518   9.527  0.1484 -0.2190  0.1029
  331loPI   C3A 5289  16.999  10.470   9.074  0.0850  0.0379  0.1577
  331loPI   C4A 5290  16.895  10.229   8.584 -0.0267  0.0165  0.0396
  331loPI   C5A 5291  17.274  10.290   8.240  0.0728  0.1267  0.0782
  331loPI   C6A 5292  17.541   9.932   8.291 -0.0434 -0.1659 -0.0279
  331loPI   C1B 5293  16.745  10.261   9.812  0.4636  0.0117  0.0807
  331loPI   C2B 5294  16.544  10.301   9.405  0.0864  0.0844  0.2349
  331loPI   C3B 5295  16.542  10.389   8.931 -0.2651  0.0314 -0.1081
  331loPI   C4B 5296  16.559  10.610   8.468  0.4119 -0.2679 -0.0828
  332loPI    C1 5297  15.303  12.695  10.645  0.0865  0.1926  0.2355
  332loPI    C2 5298  15.402  12.391  10.887  0.0059 -0.0542 -0.0356
  332loPI    C3 5299  15.178  12.693  11.025 -0.0299 -0.1859  0.1993
  332loPI   PO4 5300  15.216  12.569  10.394  0.0793 -0.1514 -0.1606
  332loPI   GL1 5301  15.210  12.575   9.921  0.0718  0.0941  0.0596
  332loPI   GL2 5302  15.294  12.293   9.974  0.0018  0.0787 -0.0554
  332loPI   C1A 5303  15.096  12.659   9.482  0.0021 -0.1532  0.0092
  332loPI   C2A 5304  15.016  12.776   9.120 -0.2549 -0.1860  0.1650
  332loPI   C3A 5305  14.979  12.808   8.710 -0.0414 -0.1749  0.1035
  332loPI   C4A 5306  14.733  12.938   8.433 -0.0312  0.0668 -0.1105
  332loPI   C5A 5307  14.664  13.332   8.324 -0.0003  0.0902 -0.2772
  332loPI   C6A 5308  14.942  13.648   8.111  0.2572  0.1990 -0.1195
  332loPI   C1B 5309  15.259  12.181   9.571 -0.2245  0.0594  0.2385
  332loPI   C2B 5310  15.265  12.286   9.115  0.0286 -0.0693 -0.1839
  332loPI   C3B 5311  15.200  12.368   8.703 -0.2848 -0.1737  0.1793
  332loPI   C4B 5312  15.443  12.171   8.278  0.0489  0.0785  0.0315
  333loPI    C1 5313  17.730   9.599  10.565  0.3713  0.1478  0.0274
  333loPI    C2 5314  17.732   9.359  10.886 -0.1557  0.0180 -0.0574
  333loPI    C3 5315  17.760   9.755  10.932  0.1074 -0.0192  0.1232
  333loPI   PO4 5316  17.679   9.369  10.375  0.1163  0.2560 -0.2265
  333loPI   GL1 5317  17.844   9.136  10.004 -0.2891  0.3019 -0.0726
  333loPI   GL2 5318  17.928   9.523   9.948  0.1477  0.1569  0.4217
  333loPI   C1A 5319  17.567   9.216   9.609  0.1269  0.2840 -0.1886
  333loPI   C2A 5320  17.730   9.370   9.253  0.2345 -0.1008  0.2878
  333loPI   C3A 5321  17.656   9.741   8.957  0.1796  0.0022  0.4525
  333loPI   C4A 5322  17.755  10.133   8.640  0.1389  0.0413  0.0362
  333loPI   C5A 5323  17.807  10.305   8.168  0.1034 -0.1917  0.0530
  333loPI   C6A 5324  17.765  10.614   7.829 -0.1710 -0.0720 -0.3740
  333loPI   C1B 5325  17.834   9.683   9.615  0.3879 -0.3279 -0.2377
  333loPI   C2B 5326  17.506  10.011   9.445 -0.0827  0.0157 -0.2910
  333loPI   C3B 5327  17.358  10.121   9.053 -0.1436  0.0165 -0.0745
  333loPI   C4B 5328  17.181   9.819   8.675  0.0016 -0.0166  0.2317
  334loPI    C1 5329  14.429   8.001  10.874 -0.1484  0.0019  0.0983
  334loPI    C2 5330  14.531   7.676  11.084  0.0237  0.0806  0.1388
  334loPI    C3 5331  14.645   8.038  11.209 -0.1997  0.1612  0.1147
  334loPI   PO4 5332  14.220   7.923  10.755 -0.1866  0.2907  0.0980
  334loPI   GL1 5333  14.049   7.789  10.397 -0.1048  0.0016  0.2400
  334loPI   GL2 5334  14.093   7.505  10.302  0.1239 -0.2467 -0.0785
  334loPI   C1A 5335  13.871   7.663   9.899 -0.2187 -0.3478 -0.1068
  334loPI   C2A 5336  13.888   7.706   9.363  0.0829 -0.2797  0.1543
  334loPI   C3A 5337  13.716   7.660   9.001  0.0516 -0.0452 -0.0659
  334loPI   C4A 5338  13.743   7.409   8.704  0.1916  0.0950 -0.0870
  334loPI   C5A 5339  13.569   7.324   8.328  0.0111  0.0983 -0.3493
  334loPI   C6A 5340  13.102   7.258   8.192  0.2770 -0.3308  0.2473
  334loPI   C1B 5341  14.111   7.237   9.952 -0.0648 -0.2807 -0.0055
  334loPI   C2B 5342  14.320   7.316   9.548  0.0402 -0.0454  0.0821
  334loPI   C3B 5343  14.184   7.386   9.075  0.2289 -0.0317  0.1900
  334loPI   C4B 5344  14.284   7.642   8.761  0.0737  0.2151  0.0344
  335loPI    C1 5345   9.167  14.755  10.541 -0.4550 -0.0038 -0.1461
  335loPI    C2 5346   9.088  14.978  10.864 -0.1352 -0.0552 -0.0285
  335loPI    C3 5347   9.150  14.584  10.903  0.0007 -0.0452 -0.1383
  335loPI   PO4 5348   9.035  14.924  10.355  0.1694  0.2858  0.0612
  335loPI   GL1 5349   8.792  14.735  10.051 -0.0448 -0.3016 -0.1247
  335loPI   GL2 5350   8.705  14.459   9.949  0.0012  0.2411  0.1100
  335loPI   C1A 5351   8.992  14.769   9.673 -0.0260 -0.0292  0.0126
  335loPI   C2A 5352   8.986  14.820   9.282 -0.2010  0.5460 -0.0423
  335loPI   C3A 5353   8.955  14.789   8.826 -0.2028  0.0398  0.3211
  335loPI   C4A 5354   9.265  14.712   8.431  0.0047 -0.0587  0.1787
  335loPI   C5A 5355   9.253  14.450   8.104  0.2562  0.0498 -0.3467
  335loPI   C6A 5356   9.175  14.055   7.951 -0.1207 -0.1228  0.2169
  335loPI   C1B 5357   8.837  14.345   9.473 -0.1969  0.0567 -0.0141
  335loPI   C2B 5358   8.821  14.369   9.094 -0.0378 -0.1462  0.1604
  335loPI   C3B 5359   8.885  14.327   8.645  0.1111  0.0573 -0.2315
  335loPI   C4B 5360   8.807  14.259   8.234  0.0926  0.2833 -0.0637
  336loPI    C1 5361  12.585   3.864  11.170 -0.0651  0.1998  0.0939
  336loPI    C2 5362  12.704   3.483  11.207 -0.1492  0.1324 -0.2910
  336loPI    C3 5363  12.939   3.779  11.337 -0.0290 -0.0441 -0.1002
  336loPI   PO4 5364  12.509   3.867  10.895 -0.0431 -0.0666 -0.0878
  336loPI   GL1 5365  12.675   4.065  10.517  0.0340  0.0065  0.0567
  336loPI   GL2 5366  12.440   4.205  10.386  0.1467 -0.0904  0.2938
  336loPI   C1A 5367  12.774   3.993  10.067 -0.2190 -0.2532 -0.2143
  336loPI   C2A 5368  12.903   3.925   9.679 -0.2910  0.0520 -0.0407
  336loPI   C3A 5369  12.900   3.932   9.280 -0.1257  0.5134  0.0679
  336loPI   C4A 5370  12.919   3.838   8.789 -0.1058  0.1889  0.1292
  336loPI   C5A 5371  13.215   4.019   8.439  0.5148  0.1572  0.2083
  336loPI   C6A 5372  13.599   3.994   8.226 -0.1571 -0.0499 -0.5618
  336loPI   C1B 5373  12.211   3.934  10.070 -0.1290 -0.0462  0.1589
  336loPI   C2B 5374  12.176   3.790   9.629 -0.0403 -0.3034  0.0264
  336loPI   C3B 5375  12.246   3.705   9.148 -0.0162  0.0879  0.1191
  336loPI   C4B 5376  12.388   3.688   8.721 -0.3245  0.1452 -0.0527
  337loPI    C1 5377   2.424  11.622  10.399 -0.1575  0.0935  0.0459
  337loPI    C2 5378   2.222  11.856  10.653  0.1196  0.1327  0.2344
  337loPI    C3 5379   2.449  11.558  10.793  0.1302  0.0388  0.0210
  337loPI   PO4 5380   2.557  11.735  10.227 -0.0446  0.0435  0.0035
  337loPI   GL1 5381   2.530  11.945   9.890 -0.1120 -0.2460 -0.3597
  337loPI   GL2 5382   2.726  11.726   9.736 -0.4018 -0.0105  0.0413
  337loPI   C1A 5383   2.436  12.132   9.514  0.3542  0.0773 -0.2311
  337loPI   C2A 5384   2.134  12.307   9.336 -0.1067 -0.0865  0.0452
  337loPI   C3A 5385   1.932  12.209   9.067  0.0354 -0.2063  0.0056
  337loPI   C4A 5386   1.838  12.203   8.672  0.1255 -0.1270  0.0823
  337loPI   C5A 5387   1.931  11.869   8.394  0.2384  0.0334 -0.0694
  337loPI   C6A 5388   2.099  11.450   8.122  0.1420 -0.2237 -0.2661
  337loPI   C1B 5389   2.769  11.715   9.283  0.0390 -0.1300 -0.0013
  337loPI   C2B 5390   2.543  11.991   8.961 -0.2463 -0.3531 -0.0828
  337loPI   C3B 5391   2.340  12.295   8.689  0.0798 -0.2654 -0.1682
  337loPI   C4B 5392   2.254  12.239   8.298 -0.0396  0.2700  0.2986
  338loPI    C1 5393  16.330   6.817  10.306 -0.1909  0.0177  0.0818
  338loPI    C2 5394  16.092   6.993  10.575  0.0664  0.2408  0.1685
  338loPI    C3 5395  16.399   6.769  10.697  0.0402  0.1436  0.0583
  338loPI   PO4 5396  16.337   7.029  10.059  0.1631  0.4083 -0.3867
  338loPI   GL1 5397  16.604   7.219   9.748 -0.1706  0.3666  0.0797
  338loPI   GL2 5398  16.614   7.548   9.731 -0.0633  0.1265 -0.0706
  338loPI   C1A 5399  16.472   6.956   9.318 -0.0046 -0.0094 -0.0111
  338loPI   C2A 5400  16.415   7.096   9.014 -0.0952 -0.0084  0.0317
  338loPI   C3A 5401  16.390   7.260   8.598  0.0101  0.1978 -0.2261
  338loPI   C4A 5402  16.245   7.503   8.243 -0.0929 -0.0894  0.2304
  338loPI   C5A 5403  16.270   7.665   7.738  0.0363  0.2595  0.0765
  338loPI   C6A 5404  16.473   7.759   7.317  0.0763 -0.1416  0.2491
  338loPI   C1B 5405  16.668   7.845   9.472  0.1594  0.0166  0.1034
  338loPI   C2B 5406  16.816   8.111   9.318 -0.0191  0.0520 -0.0394
  338loPI   C3B 5407  16.993   8.086   8.936  0.1220 -0.4105  0.1206
  338loPI   C4B 5408  17.049   8.003   8.454  0.0816 -0.3628  0.2551
  339loPI    C1 5409   7.715  15.349  10.336  0.0862 -0.0140  0.4043
  339loPI    C2 5410   7.337  15.291  10.218  0.2010  0.1629 -0.0725
  339loPI    C3 5411   7.593  14.984  10.225  0.0213  0.0149  0.3797
  339loPI   PO4 5412   7.747  15.543  10.315  0.4479  0.0046 -0.0736
  339loPI   GL1 5413   8.007  15.783   9.985  0.2564 -0.2337  0.0020
  339loPI   GL2 5414   8.065  16.166   9.960 -0.0558 -0.1962  0.0460
  339loPI   C1A 5415   8.059  15.834   9.444  0.0203  0.1250  0.4254
  339loPI   C2A 5416   8.216  15.715   9.028 -0.1189  0.0976 -0.2075
  339loPI   C3A 5417   8.123  15.546   8.643  0.1097  0.0918 -0.0182
  339loPI   C4A 5418   8.341  15.570   8.274  0.1214  0.0510 -0.0048
  339loPI   C5A 5419   8.616  15.866   8.063 -0.0455 -0.0448  0.0102
  339loPI   C6A 5420   8.896  16.174   8.048 -0.2027  0.2353 -0.1095
  339loPI   C1B 5421   7.883  16.251   9.525  0.0354  0.4268 -0.0695
  339loPI   C2B 5422   7.969  16.139   9.059 -0.1998  0.0843  0.4931
  339loPI   C3B 5423   8.015  16.062   8.675  0.0518 -0.1904  0.0771
  339loPI   C4B 5424   8.179  16.075   8.228 -0.0232  0.0707  0.1300
  340loPI    C1 5425  10.334   1.213  11.249  0.2181 -0.1969  0.1900
  340loPI    C2 5426  10.122   1.369  11.551  0.1398 -0.1561  0.1146
  340loPI    C3 5427  10.457   1.549  11.428  0.1682 -0.1691  0.1724
  340loPI   PO4 5428  10.205   1.234  11.022 -0.1489  0.0402  0.2960
  340loPI   GL1 5429   9.978   1.177  10.558 -0.0057  0.1450  0.2620
  340loPI   GL2 5430  10.145   1.369  10.536  0.1020  0.3126  0.1990
  340loPI   C1A 5431   9.700   1.103  10.195 -0.1664  0.0680  0.1303
  340loPI   C2A 5432   9.330   1.373  10.122 -0.2074 -0.0255  0.1392
  340loPI   C3A 5433   9.112   1.734   9.840 -0.1298 -0.2695  0.0495
  340loPI   C4A 5434   9.254   1.796   9.385  0.2684  0.1400  0.0504
  340loPI   C5A 5435   9.493   1.756   8.991 -0.1101 -0.1652 -0.0776
  340loPI   C6A 5436   9.653   1.892   8.660 -0.0993  0.0441 -0.0397
  340loPI   C1B 5437  10.207   1.299  10.166 -0.2053 -0.1326 -0.1135
  340loPI   C2B 5438  10.211   1.301   9.730 -0.0160 -0.0858 -0.1628
  340loPI   C3B 5439  10.047   1.303   9.252 -0.0999 -0.0957 -0.2781
  340loPI   C4B 5440  10.232   1.275   8.806  0.2577 -0.2871  0.1186
  341loPI    C1 5441   5.519  10.147  10.502 -0.1454  0.3180 -0.1322
  341loPI    C2 5442   5.466   9.882  10.796  0.1763 -0.0217 -0.3710
  341loPI    C3 5443   5.344  10.260  10.843 -0.1198 -0.1618  0.0468
  341loPI   PO4 5444   5.794  10.126  10.351 -0.2449  0.1468 -0.3088
  341loPI   GL1 5445   5.920  10.041   9.911  0.1424  0.2533 -0.1217
  341loPI   GL2 5446   5.631   9.880   9.932  0.0685 -0.0511  0.1466
  341loPI   C1A 5447   5.991   9.930   9.394 -0.1291 -0.1867  0.0585
  341loPI   C2A 5448   6.028   9.824   8.870 -0.0327 -0.2013  0.1775
  341loPI   C3A 5449   5.955   9.887   8.445 -0.1213  0.2141  0.1642
  341loPI   C4A 5450   5.811   9.914   8.040 -0.0259 -0.1204  0.0309
  341loPI   C5A 5451   5.696  10.069   7.607  0.0680  0.1082 -0.0187
  341loPI   C6A 5452   5.799  10.146   7.206 -0.2368  0.0879  0.2583
  341loPI   C1B 5453   5.460  10.061   9.606 -0.2033 -0.1185  0.2148
  341loPI   C2B 5454   5.466  10.047   9.077 -0.2264  0.0280  0.0988
  341loPI   C3B 5455   5.474  10.003   8.624 -0.1584 -0.0435 -0.1257
  341loPI   C4B 5456   5.335   9.939   8.245 -0.1601 -0.0369 -0.0191
  342loPI    C1 5457   5.371   3.345  10.713 -0.1350 -0.1745 -0.1112
  342loPI    C2 5458   5.276   3.486  11.075 -0.0514 -0.1964 -0.0806
  342loPI    C3 5459   5.626   3.584  10.907  0.0437 -0.4316 -0.0236
  342loPI   PO4 5460   5.170   3.308  10.584  0.1803  0.0067  0.1853
  342loPI   GL1 5461   5.003   3.429  10.160  0.3529 -0.1763 -0.0090
  342loPI   GL2 5462   5.227   3.729  10.139 -0.0384  0.1008  0.1556
  342loPI   C1A 5463   5.343   3.311   9.906 -0.1201 -0.0589 -0.0825
  342loPI   C2A 5464   5.452   3.266   9.435 -0.0031 -0.0255 -0.2041
  342loPI   C3A 5465   5.404   3.333   8.989  0.2058  0.0406 -0.3517
  342loPI   C4A 5466   5.363   3.156   8.640 -0.0300  0.2154 -0.2710
  342loPI   C5A 5467   5.209   3.114   8.262  0.1280 -0.1528  0.0038
  342loPI   C6A 5468   4.862   2.870   8.167  0.0453  0.0230  0.1733
  342loPI   C1B 5469   5.002   3.714   9.636 -0.1405  0.0144 -0.1467
  342loPI   C2B 5470   4.969   3.474   9.248  0.1050 -0.0117  0.0790
  342loPI   C3B 5471   4.931   3.474   8.755 -0.1789 -0.2541  0.0562
  342loPI   C4B 5472   4.910   3.536   8.360 -0.0220 -0.2138  0.1914
  343loPI    C1 5473  10.882   6.692  10.530 -0.0852  0.0536  0.2784
  343loPI    C2 5474  10.734   7.012  10.341 -0.1860 -0.2739 -0.2192
  343loPI    C3 5475  10.563   6.883  10.679 -0.0830  0.2465  0.0430
  343loPI   PO4 5476  10.934   6.524  10.291  0.3197 -0.0062  0.1664
  343loPI   GL1 5477  10.811   6.271   9.952  0.4200 -0.1851 -0.0956
  343loPI   GL2 5478  11.099   6.056  10.068  0.0309  0.2954  0.1392
  343loPI   C1A 5479  10.810   6.179   9.479  0.3169  0.1907  0.4973
  343loPI   C2A 5480  10.816   6.336   8.998 -0.1774 -0.1652  0.0769
  343loPI   C3A 5481  10.628   6.464   8.550 -0.1532  0.1844  0.0601
  343loPI   C4A 5482  10.415   6.635   8.250  0.2278 -0.0267 -0.0792
  343loPI   C5A 5483  10.103   6.864   8.074  0.4581  0.0170  0.1326
  343loPI   C6A 5484   9.698   7.016   8.264 -0.2678  0.2876 -0.1759
  343loPI   C1B 5485  11.304   6.128   9.670  0.2062 -0.0211  0.1582
  343loPI   C2B 5486  11.180   6.104   9.227 -0.0968 -0.0136  0.1115
  343loPI   C3B 5487  11.075   5.962   8.844  0.1023 -0.1764  0.2651
  343loPI   C4B 5488  11.105   6.057   8.401  0.3260  0.1401 -0.3236
  344loPI    C1 5489  16.663   8.524  10.941  0.1112 -0.0934 -0.1632
  344loPI    C2 5490  16.885   8.768  11.167 -0.0680  0.1067 -0.2001
  344loPI    C3 5491  16.881   8.375  11.242  0.0063  0.1490  0.0362
  344loPI   PO4 5492  16.658   8.681  10.670  0.3057  0.2655 -0.1542
  344loPI   GL1 5493  16.695   8.553  10.266 -0.0294  0.0996  0.1266
  344loPI   GL2 5494  17.009   8.662  10.240 -0.2276 -0.0390  0.0060
  344loPI   C1A 5495  16.678   8.849   9.939 -0.0928  0.1660 -0.2373
  344loPI   C2A 5496  16.732   9.061   9.579  0.1139  0.0809 -0.1486
  344loPI   C3A 5497  16.674   9.080   9.137 -0.3101 -0.0853  0.2400
  344loPI   C4A 5498  16.873   8.948   8.709  0.0940  0.2055  0.1880
  344loPI   C5A 5499  16.920   8.975   8.219  0.1072  0.0233  0.4311
  344loPI   C6A 5500  17.207   9.072   7.860 -0.0022 -0.1252 -0.0803
  344loPI   C1B 5501  17.158   8.851   9.869 -0.0563  0.4600  0.0593
  344loPI   C2B 5502  17.253   8.881   9.421 -0.0120  0.3234 -0.1632
  344loPI   C3B 5503  17.299   9.095   9.072  0.1990 -0.1510 -0.0555
  344loPI   C4B 5504  17.469   9.311   8.689 -0.1053  0.1006  0.0551
  345loPI    C1 5505   3.596   7.978  10.618  0.0385  0.2466  0.1761
  345loPI    C2 5506   3.902   7.748  10.502 -0.1216  0.0911  0.0551
  345loPI    C3 5507   3.970   8.081  10.713  0.1339  0.0889 -0.0204
  345loPI   PO4 5508   3.463   7.961  10.358  0.0563  0.3605  0.2560
  345loPI   GL1 5509   3.422   7.876   9.886  0.2049 -0.0173 -0.1061
  345loPI   GL2 5510   3.636   7.700   9.678 -0.0866  0.1229 -0.3905
  345loPI   C1A 5511   3.186   7.789   9.465 -0.4264 -0.1937 -0.1382
  345loPI   C2A 5512   3.000   7.723   9.173  0.0423  0.0562  0.3670
  345loPI   C3A 5513   2.978   7.581   8.706  0.0892  0.0744  0.0958
  345loPI   C4A 5514   2.932   7.394   8.343  0.4339  0.1910  0.0920
  345loPI   C5A 5515   2.766   7.136   7.905  0.0988  0.1036 -0.1974
  345loPI   C6A 5516   2.455   7.221   7.699 -0.0262  0.0864 -0.0835
  345loPI   C1B 5517   3.848   7.793   9.202 -0.1047 -0.2924  0.5853
  345loPI   C2B 5518   3.781   7.896   8.758 -0.2448  0.0467  0.1218
  345loPI   C3B 5519   3.576   7.996   8.345  0.0375  0.1330 -0.3744
  345loPI   C4B 5520   3.661   7.779   8.025 -0.0604 -0.0407  0.2198
  346loPI    C1 5521   7.592   0.490  10.530 -0.0071  0.2573  0.1093
  346loPI    C2 5522   7.897   0.554  10.780  0.1184  0.0347  0.0167
  346loPI    C3 5523   7.685   0.216  10.806 -0.0474  0.1366  0.0042
  346loPI   PO4 5524   7.700   0.467  10.312 -0.1405  0.0668 -0.3393
  346loPI   GL1 5525   7.979   0.707  10.072 -0.0084  0.4244 -0.3724
  346loPI   GL2 5526   8.043   0.380   9.907  0.0650 -0.1565 -0.0902
  346loPI   C1A 5527   7.992   0.949   9.692 -0.0849  0.1998 -0.2618
  346loPI   C2A 5528   8.124   0.999   9.292 -0.1297  0.2525 -0.2513
  346loPI   C3A 5529   8.163   0.973   8.923  0.0275  0.0022 -0.1900
  346loPI   C4A 5530   7.989   1.176   8.593 -0.4649  0.0483 -0.2549
  346loPI   C5A 5531   7.820   1.405   8.309 -0.1941  0.1216 -0.0577
  346loPI   C6A 5532   7.974   1.698   7.983  0.0967 -0.2059 -0.0573
  346loPI   C1B 5533   8.335   0.565   9.656 -0.1672 -0.1346 -0.0151
  346loPI   C2B 5534   8.448   0.648   9.219 -0.0225  0.3375 -0.2409
  346loPI   C3B 5535   8.417   0.588   8.823 -0.0007  0.2181  0.1904
  346loPI   C4B 5536   8.477   0.467   8.402  0.1483  0.0756  0.1321
  347loPI    C1 5537   6.991  11.165  10.357  0.0776 -0.1203 -0.0722
  347loPI    C2 5538   7.315  10.977  10.215  0.2166 -0.1349  0.2543
  347loPI    C3 5539   7.308  11.105  10.594  0.0302  0.3077  0.1081
  347loPI   PO4 5540   6.783  11.021  10.253 -0.3442 -0.1296  0.3302
  347loPI   GL1 5541   6.839  10.858   9.909  0.1124 -0.0910 -0.0583
  347loPI   GL2 5542   6.563  10.665   9.738 -0.0298  0.2179  0.1091
  347loPI   C1A 5543   6.899  10.999   9.450  0.1137 -0.0749  0.0198
  347loPI   C2A 5544   6.840  11.141   9.098  0.0316  0.0836  0.2955
  347loPI   C3A 5545   6.827  11.210   8.665  0.1051  0.2005  0.3009
  347loPI   C4A 5546   6.699  11.090   8.253 -0.2753 -0.1770  0.1879
  347loPI   C5A 5547   6.404  11.170   7.891  0.0861  0.2662  0.0725
  347loPI   C6A 5548   6.457  11.469   7.654  0.3129  0.0249 -0.2969
  347loPI   C1B 5549   6.472  10.750   9.306 -0.1092  0.1011  0.3114
  347loPI   C2B 5550   6.497  10.758   8.854  0.1505 -0.0865 -0.0541
  347loPI   C3B 5551   6.555  10.580   8.377 -0.2767 -0.2647  0.0207
  347loPI   C4B 5552   6.610  10.665   7.969 -0.2510 -0.2316  0.1472
  348loPI    C1 5553  16.642   5.495  10.476 -0.1636 -0.1114 -0.0249
  348loPI    C2 5554  16.880   5.175  10.461 -0.0038  0.0061 -0.0192
  348loPI    C3 5555  16.907   5.430  10.768 -0.1204  0.0330 -0.0309
  348loPI   PO4 5556  16.387   5.429  10.454 -0.2911 -0.3316 -0.0989
  348loPI   GL1 5557  16.218   5.573  10.121 -0.0514 -0.2031  0.4474
  348loPI   GL2 5558  16.044   5.508   9.878  0.0105 -0.2043 -0.1473
  348loPI   C1A 5559  16.440   5.769   9.662  0.0616 -0.1656  0.0611
  348loPI   C2A 5560  16.381   5.939   9.354 -0.3611 -0.0428  0.0060
  348loPI   C3A 5561  16.318   6.048   8.914  0.0714 -0.2883  0.2478
  348loPI   C4A 5562  16.502   6.003   8.612  0.2246 -0.1997  0.0260
  348loPI   C5A 5563  16.793   6.091   8.249  0.1537  0.2850 -0.0812
  348loPI   C6A 5564  17.196   5.774   8.185  0.0210 -0.2340 -0.3151
  348loPI   C1B 5565  15.906   5.594   9.514 -0.5284  0.1822  0.0455
  348loPI   C2B 5566  16.077   5.663   9.101 -0.1845  0.0225 -0.0130
  348loPI   C3B 5567  16.213   5.619   8.634  0.0016  0.0304 -0.0003
  348loPI   C4B 5568  16.059   5.557   8.257 -0.1387  0.0888  0.0952
  349loPI    C1 5569  13.027  15.664  10.454  0.0002 -0.2606 -0.2278
  349loPI    C2 5570  13.099  15.457  10.788 -0.3607 -0.0316 -0.0012
  349loPI    C3 5571  12.725  15.568  10.698 -0.1977  0.3710 -0.2060
  349loPI   PO4 5572  13.217  15.547  10.312  0.1779  0.0806  0.0180
  349loPI   GL1 5573  13.387  15.654   9.909 -0.4353  0.0638 -0.0157
  349loPI   GL2 5574  13.609  15.645   9.907  0.2185 -0.0452 -0.3192
  349loPI   C1A 5575  13.446  15.298   9.603 -0.1978  0.1903  0.2721
  349loPI   C2A 5576  13.542  15.234   9.178  0.1337 -0.0024 -0.0097
  349loPI   C3A 5577  13.626  15.142   8.765 -0.1838 -0.1355  0.2230
  349loPI   C4A 5578  13.709  15.146   8.348  0.0495 -0.3811  0.2268
  349loPI   C5A 5579  13.423  15.030   8.007  0.1222  0.0734 -0.0147
  349loPI   C6A 5580  13.045  15.138   7.758 -0.0161 -0.1958  0.0476
  349loPI   C1B 5581  13.555  15.722   9.384  0.0960  0.0551 -0.3093
  349loPI   C2B 5582  13.539  15.695   8.955 -0.0340  0.0581  0.1090
  349loPI   C3B 5583  13.457  15.568   8.496  0.4312 -0.0077 -0.1624
  349loPI   C4B 5584  13.091  15.409   8.313 -0.0660  0.4574  0.0760
  350loPI    C1 5585   6.897   7.899  10.877 -0.0650 -0.0244 -0.0772
  350loPI    C2 5586   6.539   7.769  11.001  0.0163 -0.1150  0.0653
  350loPI    C3 5587   6.831   7.837  11.267  0.1413 -0.1517 -0.0612
  350loPI   PO4 5588   6.966   7.722  10.654 -0.3759 -0.2838 -0.1170
  350loPI   GL1 5589   6.921   7.800  10.191  0.3833 -0.0127 -0.0477
  350loPI   GL2 5590   6.895   7.481  10.017 -0.2119 -0.3300 -0.0117
  350loPI   C1A 5591   7.094   7.845   9.703 -0.1545  0.1051 -0.1022
  350loPI   C2A 5592   7.056   7.766   9.350  0.1363 -0.0432  0.2663
  350loPI   C3A 5593   7.110   7.812   8.946  0.1370  0.2949  0.0276
  350loPI   C4A 5594   7.344   8.039   8.646  0.2873  0.0141  0.3336
  350loPI   C5A 5595   7.274   8.353   8.376 -0.0927  0.0127  0.1507
  350loPI   C6A 5596   6.949   8.649   8.233  0.2627  0.0798  0.2098
  350loPI   C1B 5597   6.855   7.285   9.634 -0.0336  0.1901  0.2367
  350loPI   C2B 5598   6.922   7.261   9.093 -0.2050  0.0990  0.0448
  350loPI   C3B 5599   6.863   7.199   8.611 -0.1374 -0.0626 -0.2164
  350loPI   C4B 5600   6.617   6.946   8.378 -0.2611  0.1744 -0.0295
  351loPI    C1 5601   9.723  11.869  10.351 -0.0698  0.1171  0.2714
  351loPI    C2 5602   9.512  11.601  10.561 -0.0470 -0.0161  0.1254
  351loPI    C3 5603   9.590  11.536  10.174  0.1930  0.0705  0.1576
  351loPI   PO4 5604   9.996  11.930  10.365 -0.0441  0.2089  0.0990
  351loPI   GL1 5605  10.334  11.974  10.034 -0.1110 -0.1091 -0.1450
  351loPI   GL2 5606  10.026  11.841   9.868  0.0931 -0.0490  0.0062
  351loPI   C1A 5607  10.493  12.097   9.649  0.0867  0.2111  0.0349
  351loPI   C2A 5608  10.625  12.194   9.241  0.0471  0.1111  0.0473
  351loPI   C3A 5609  10.640  12.388   8.836  0.3110 -0.0431  0.4737
  351loPI   C4A 5610  10.735  12.578   8.365  0.1628  0.1939  0.0447
  351loPI   C5A 5611  10.761  12.947   8.119 -0.1425  0.1834 -0.0427
  351loPI   C6A 5612  10.929  13.313   7.851  0.1581  0.0756 -0.2135
  351loPI   C1B 5613   9.975  12.117   9.588  0.0908  0.0224  0.0660
  351loPI   C2B 5614  10.137  12.306   9.322  0.0514  0.2455 -0.0861
  351loPI   C3B 5615  10.146  12.363   8.860 -0.0646 -0.0777 -0.3223
  351loPI   C4B 5616  10.196  12.384   8.447 -0.3327 -0.1676 -0.2707
  352loPI    C1 5617  17.069   8.222  10.534  0.1038 -0.0077  0.0926
  352loPI    C2 5618  17.369   8.044  10.730  0.0686 -0.0221  0.1336
  352loPI    C3 5619  17.180   8.355  10.895 -0.1024 -0.1683  0.2174
  352loPI   PO4 5620  17.213   8.135  10.244 -0.3576  0.0079  0.1079
  352loPI   GL1 5621  17.286   8.393   9.840 -0.0910  0.0641 -0.1795
  352loPI   GL2 5622  16.925   8.309   9.872  0.2411 -0.1150  0.1423
  352loPI   C1A 5623  17.302   8.330   9.407 -0.1587  0.1314  0.0212
  352loPI   C2A 5624  17.385   8.533   9.029 -0.0553  0.0766  0.1850
  352loPI   C3A 5625  17.252   8.693   8.675 -0.0784  0.3186  0.0475
  352loPI   C4A 5626  17.369   8.902   8.392 -0.0007  0.1276 -0.1276
  352loPI   C5A 5627  17.755   9.102   8.332  0.1060 -0.0393  0.2407
  352loPI   C6A 5628  17.999   9.300   8.020  0.0480  0.0749  0.0383
  352loPI   C1B 5629  16.901   8.530   9.561 -0.0792 -0.2628  0.2754
  352loPI   C2B 5630  16.919   8.611   9.078 -0.0016  0.0656  0.0348
  352loPI   C3B 5631  16.802   8.433   8.644  0.1837  0.2619 -0.0689
  352loPI   C4B 5632  16.735   8.390   8.151 -0.0464  0.0990 -0.1513
  353loPI    C1 5633   2.448  10.973  10.501 -0.0002 -0.1075  0.0455
  353loPI    C2 5634   2.064  10.933  10.395  0.0156 -0.0229 -0.0447
  353loPI    C3 5635   2.267  10.618  10.535 -0.0634 -0.0872 -0.0745
  353loPI   PO4 5636   2.541  11.083  10.243  0.2700  0.1345 -0.0763
  353loPI   GL1 5637   2.433  11.213   9.879  0.3135  0.0082  0.0763
  353loPI   GL2 5638   2.265  11.439   9.794 -0.0081 -0.0983  0.2290
  353loPI   C1A 5639   2.531  11.180   9.491  0.3261 -0.4198 -0.1689
  353loPI   C2A 5640   2.524  11.284   9.145 -0.1892  0.0242  0.5666
  353loPI   C3A 5641   2.642  11.325   8.861 -0.0129  0.2310 -0.0790
  353loPI   C4A 5642   2.826  11.658   8.705  0.0222  0.0972  0.0249
  353loPI   C5A 5643   2.663  11.923   8.430  0.0722  0.0583  0.2336
  353loPI   C6A 5644   2.822  11.923   7.967 -0.3263 -0.1758  0.1541
  353loPI   C1B 5645   2.247  11.672   9.377 -0.3538 -0.1858  0.0670
  353loPI   C2B 5646   2.080  11.627   8.847  0.1632  0.1939 -0.1387
  353loPI   C3B 5647   2.346  11.570   8.534 -0.4740  0.1342 -0.4504
  353loPI   C4B 5648   2.594  11.279   8.339 -0.2816 -0.0392  0.3535
  354loPI    C1 5649   8.663  17.953  10.994 -0.2488  0.2480  0.1879
  354loPI    C2 5650   8.916  17.817  11.272 -0.1328 -0.2824 -0.1633
  354loPI    C3 5651   8.522  17.778  11.325 -0.1275 -0.0124  0.1041
  354loPI   PO4 5652   8.701  17.816  10.739 -0.1697 -0.0555  0.1843
  354loPI   GL1 5653   8.841  17.734  10.314  0.0380  0.0009 -0.0148
  354loPI   GL2 5654   9.096  17.857  10.426 -0.1466 -0.2953  0.2794
  354loPI   C1A 5655   8.743  17.778   9.812 -0.0973  0.0855 -0.2320
  354loPI   C2A 5656   8.543  17.755   9.463 -0.1026 -0.1512 -0.2380
  354loPI   C3A 5657   8.551  17.851   9.054 -0.1297  0.2637  0.2195
  354loPI   C4A 5658   8.500  17.938   8.567  0.0017  0.1600 -0.0563
  354loPI   C5A 5659   8.443  17.707   8.243 -0.0972  0.0315  0.1628
  354loPI   C6A 5660   8.378  17.713   7.745 -0.0610  0.2432  0.0216
  354loPI   C1B 5661   9.224  17.641   9.951 -0.3390  0.2153 -0.2958
  354loPI   C2B 5662   9.437  17.679   9.558  0.1417  0.3304 -0.2398
  354loPI   C3B 5663   9.301  17.619   9.181  0.2585  0.1112 -0.1709
  354loPI   C4B 5664   9.397  17.484   8.778 -0.4292 -0.2649  0.0830
  355loPI    C1 5665  15.691  16.402  10.094 -0.0699  0.3159  0.1566
  355loPI    C2 5666  15.381  16.384  10.347 -0.1549 -0.2158  0.0266
  355loPI    C3 5667  15.696  16.142  10.399  0.0257 -0.0161 -0.1213
  355loPI   PO4 5668  15.810  16.610   9.976 -0.0268 -0.1904 -0.1767
  355loPI   GL1 5669  16.167  16.506   9.792 -0.1174 -0.1930  0.1248
  355loPI   GL2 5670  16.392  16.594   9.852  0.1526 -0.1102 -0.3398
  355loPI   C1A 5671  15.969  16.495   9.402  0.4472  0.2871  0.0691
  355loPI   C2A 5672  16.014  16.650   9.069  0.0246 -0.0286 -0.0190
  355loPI   C3A 5673  15.957  16.762   8.674  0.2420 -0.1345  0.1616
  355loPI   C4A 5674  15.871  16.913   8.242 -0.0440  0.3059  0.0561
  355loPI   C5A 5675  15.633  17.020   7.976 -0.0101 -0.3527 -0.0356
  355loPI   C6A 5676  15.259  17.195   7.679  0.2832  0.0668 -0.1043
  355loPI   C1B 5677  16.546  16.736   9.443 -0.2316  0.0025  0.2781
  355loPI   C2B 5678  16.514  16.783   8.980 -0.0165  0.1662  0.1057
  355loPI   C3B 5679  16.671  16.694   8.594 -0.1060  0.1341 -0.1277
  355loPI   C4B 5680  16.803  16.507   8.138  0.0722  0.1994  0.4359
  356loPI    C1 5681   8.897  15.780  10.593  0.2953  0.0545 -0.1542
  356loPI    C2 5682   8.738  15.482  10.379 -0.1581  0.1235  0.0752
  356loPI    C3 5683   9.104  15.443  10.535 -0.1334 -0.2318 -0.0626
  356loPI   PO4 5684   8.764  15.994  10.476 -0.1129  0.0359 -0.4442
  356loPI   GL1 5685   8.538  15.871  10.095  0.0815 -0.0611 -0.0017
  356loPI   GL2 5686   8.547  15.614   9.918 -0.1720 -0.0936 -0.1383
  356loPI   C1A 5687   8.473  16.202   9.804 -0.0677  0.1129 -0.0094
  356loPI   C2A 5688   8.433  16.175   9.397 -0.0520 -0.0298 -0.1639
  356loPI   C3A 5689   8.493  16.139   8.957  0.1720  0.2505 -0.3991
  356loPI   C4A 5690   8.490  15.933   8.628  0.1623  0.2012  0.3193
  356loPI   C5A 5691   8.598  15.482   8.668  0.0876  0.3298  0.2718
  356loPI   C6A 5692   8.731  15.202   8.247 -0.1391  0.1301  0.2669
  356loPI   C1B 5693   8.610  15.742   9.538  0.1282 -0.2291  0.1048
  356loPI   C2B 5694   8.730  15.694   9.139 -0.0335  0.0747 -0.1407
  356loPI   C3B 5695   8.977  15.726   8.871 -0.1235 -0.0022  0.0019
  356loPI   C4B 5696   9.367  15.778   8.629  0.2180  0.0082  0.2230
  357loPI    C1 5697  10.291   8.400  10.699 -0.0039  0.2317 -0.0537
  357loPI    C2 5698  10.688   8.377  10.740 -0.0296  0.0815  0.1265
  357loPI    C3 5699  10.450   8.186  10.998 -0.2175  0.0689 -0.0543
  357loPI   PO4 5700  10.227   8.323  10.369  0.0404 -0.0770  0.2511
  357loPI   GL1 5701  10.446   8.089  10.060 -0.0945  0.2019 -0.1636
  357loPI   GL2 5702  10.326   7.744  10.168  0.1315 -0.2797 -0.3305
  357loPI   C1A 5703  10.575   8.088   9.577 -0.3991 -0.3933 -0.2505
  357loPI   C2A 5704  10.438   7.947   9.125 -0.2598  0.5009 -0.0023
  357loPI   C3A 5705  10.208   8.143   8.706 -0.1696 -0.1732  0.2185
  357loPI   C4A 5706  10.115   8.272   8.325 -0.2485 -0.0052 -0.2686
  357loPI   C5A 5707   9.891   8.095   7.992 -0.1912  0.1266 -0.0056
  357loPI   C6A 5708   9.773   8.032   7.596  0.0984  0.1799 -0.2432
  357loPI   C1B 5709  10.083   7.725   9.692  0.3055 -0.2142  0.1247
  357loPI   C2B 5710  10.133   7.398   9.340 -0.1346  0.0568 -0.1162
  357loPI   C3B 5711  10.250   7.199   8.966  0.0746 -0.0311 -0.0993
  357loPI   C4B 5712  10.420   6.925   8.644  0.0235  0.1485 -0.2070
  358loPI    C1 5713  16.593  15.787  10.462 -0.0137  0.1511 -0.2576
  358loPI    C2 5714  16.966  15.721  10.331 -0.0595 -0.1667 -0.2359
  358loPI    C3 5715  16.859  15.603  10.699 -0.1295  0.0945 -0.1706
  358loPI   PO4 5716  16.518  15.972  10.394 -0.0342  0.0384  0.2470
  358loPI   GL1 5717  16.651  16.112  10.052  0.0328 -0.2614  0.1288
  358loPI   GL2 5718  16.455  16.060   9.834 -0.2777  0.0082 -0.1397
  358loPI   C1A 5719  16.938  15.861   9.744  0.0228  0.2162  0.1794
  358loPI   C2A 5720  16.949  15.771   9.314 -0.0198 -0.1059  0.0186
  358loPI   C3A 5721  17.003  15.725   8.913 -0.0648  0.0010  0.1802
  358loPI   C4A 5722  16.963  15.693   8.525 -0.0536 -0.2370  0.1044
  358loPI   C5A 5723  17.100  15.442   8.201 -0.0673 -0.0763 -0.1731
  358loPI   C6A 5724  17.230  15.261   7.856 -0.0630  0.2633 -0.1680
  358loPI   C1B 5725  16.430  16.228   9.454 -0.0235 -0.1217 -0.2127
  358loPI   C2B 5726  16.420  16.298   9.017  0.0562 -0.4014 -0.1962
  358loPI   C3B 5727  16.259  16.246   8.591 -0.1290 -0.0476 -0.0459
  358loPI   C4B 5728  16.205  16.522   8.238 -0.0870  0.5065  0.0949
  359loPI    C1 5729   5.111  15.352  10.331  0.3905  0.1020  0.2006
  359loPI    C2 5730   4.918  15.036  10.180  0.0094  0.4120  0.0211
  359loPI    C3 5731   5.307  15.009  10.270 -0.0245 -0.1129  0.0378
  359loPI   PO4 5732   4.905  15.544  10.254  0.0132  0.1951  0.2912
  359loPI   GL1 5733   4.732  15.673   9.892  0.1182 -0.0374  0.2756
  359loPI   GL2 5734   4.953  15.395   9.777 -0.0183 -0.2816  0.0203
  359loPI   C1A 5735   4.724  16.096   9.767 -0.1206 -0.0390 -0.2432
  359loPI   C2A 5736   4.609  16.104   9.252 -0.1557 -0.0315 -0.3413
  359loPI   C3A 5737   4.598  16.099   8.846  0.3328  0.0556  0.0124
  359loPI   C4A 5738   4.715  16.119   8.430 -0.0060 -0.1954  0.0329
  359loPI   C5A 5739   4.746  16.109   8.042 -0.3251  0.1905  0.0988
  359loPI   C6A 5740   5.146  16.132   7.675 -0.1414  0.3100  0.0732
  359loPI   C1B 5741   4.985  15.707   9.432 -0.2050  0.0207  0.0005
  359loPI   C2B 5742   5.000  15.734   8.988 -0.0420  0.1293  0.0236
  359loPI   C3B 5743   5.065  15.783   8.585 -0.1806  0.0902  0.3247
  359loPI   C4B 5744   5.143  15.805   8.154 -0.0701  0.0000  0.1287
  360loPI    C1 5745  18.071   5.786  10.202  0.0091 -0.1372 -0.2199
  360loPI    C2 5746  18.022   6.049  10.499  0.0714  0.0466 -0.3701
  360loPI    C3 5747  17.765   5.745  10.456  0.0711  0.0096 -0.1203
  360loPI   PO4 5748  18.362   5.719  10.186  0.1805 -0.4336 -0.1787
  360loPI   GL1 5749  18.574   5.833   9.912  0.1434 -0.0625  0.1326
  360loPI   GL2 5750  18.627   5.535   9.825  0.1212 -0.3062  0.0125
  360loPI   C1A 5751  18.797   6.057   9.656 -0.0659  0.1594 -0.2281
  360loPI   C2A 5752  18.732   6.009   9.264  0.2905 -0.0076 -0.0886
  360loPI   C3A 5753  18.841   5.961   8.955  0.1187  0.1489 -0.2074
  360loPI   C4A 5754  18.981   5.821   8.600 -0.1311 -0.1123 -0.0079
  360loPI   C5A 5755  18.859   6.010   8.215  0.0907 -0.0905  0.2099
  360loPI   C6A 5756  18.865   6.102   7.837  0.2008 -0.1767 -0.0608
  360loPI   C1B 5757  18.330   5.705   9.404 -0.0146  0.4759  0.0347
  360loPI   C2B 5758  18.377   5.791   8.977  0.0082  0.0039 -0.1208
  360loPI   C3B 5759  18.493   5.847   8.567  0.0742  0.5724 -0.1654
  360loPI   C4B 5760  18.220   5.941   8.334 -0.4636 -0.0065 -0.0171
  361loPI    C1 5761  12.913   2.010  10.861 -0.1120 -0.0628 -0.1617
  361loPI    C2 5762  13.186   2.233  11.050 -0.2333 -0.1965  0.1786
  361loPI    C3 5763  13.262   1.849  10.972 -0.2334 -0.1740  0.0669
  361loPI   PO4 5764  12.794   2.194  10.659 -0.0361  0.3023 -0.1101
  361loPI   GL1 5765  12.804   2.336  10.286  0.3439 -0.1380  0.0011
  361loPI   GL2 5766  12.718   2.052  10.176  0.0938 -0.2611  0.3256
  361loPI   C1A 5767  12.561   2.534   9.945  0.0986 -0.1252 -0.2245
  361loPI   C2A 5768  12.526   2.425   9.559 -0.2950 -0.0608 -0.2858
  361loPI   C3A 5769  12.578   2.402   9.110 -0.1985  0.3483  0.0958
  361loPI   C4A 5770  12.724   2.288   8.730  0.1577 -0.1273 -0.1057
  361loPI   C5A 5771  12.937   2.294   8.265  0.1397 -0.0495 -0.0865
  361loPI   C6A 5772  13.290   2.460   8.115 -0.1306  0.3641 -0.0318
  361loPI   C1B 5773  12.880   2.067   9.808  0.3730 -0.2960 -0.1298
  361loPI   C2B 5774  12.902   2.068   9.397 -0.0292 -0.0629  0.0891
  361loPI   C3B 5775  13.101   2.008   9.006 -0.0773  0.2588 -0.2074
  361loPI   C4B 5776  13.338   2.211   8.627  0.0743  0.1460 -0.2124
  362loPI    C1 5777   1.800  13.410  10.393  0.0234  0.0677 -0.0226
  362loPI    C2 5778   1.497  13.622  10.240  0.0999  0.0307 -0.2296
  362loPI    C3 5779   1.434  13.377  10.550  0.0341  0.4374  0.0871
  362loPI   PO4 5780   1.981  13.436  10.133 -0.0202  0.0569 -0.0395
  362loPI   GL1 5781   2.023  13.709   9.818 -0.2280  0.3491 -0.4092
  362loPI   GL2 5782   1.980  13.940   9.963  0.2536  0.0873  0.0612
  362loPI   C1A 5783   1.833  13.817   9.410 -0.0011 -0.0220  0.1740
  362loPI   C2A 5784   1.637  13.882   8.978 -0.0492  0.1345 -0.2157
  362loPI   C3A 5785   1.478  13.974   8.568 -0.0473  0.1556  0.0060
  362loPI   C4A 5786   1.115  14.042   8.405 -0.0105 -0.2202  0.0604
  362loPI   C5A 5787   0.846  13.985   7.967  0.0341 -0.1800 -0.3219
  362loPI   C6A 5788   0.457  14.177   7.917  0.2925  0.1861  0.4881
  362loPI   C1B 5789   1.516  13.636   9.754  0.1222 -0.0960 -0.0180
  362loPI   C2B 5790   1.238  13.663   9.329 -0.0605 -0.0656 -0.0643
  362loPI   C3B 5791   1.194  13.685   8.892 -0.2051 -0.2175  0.1236
  362loPI   C4B 5792   1.267  13.504   8.500 -0.3068  0.0617  0.0436
  363loPI    C1 5793   0.209   9.969  10.465  0.0778  0.0432  0.0652
  363loPI    C2 5794   0.491   9.686  10.487 -0.0086 -0.0676 -0.2046
  363loPI    C3 5795   0.586  10.054  10.361  0.0408 -0.0675 -0.1670
  363loPI   PO4 5796  -0.061   9.839  10.306 -0.2346 -0.2964  0.0634
  363loPI   GL1 5797  -0.402   9.958  10.118 -0.2753 -0.0629 -0.0802
  363loPI   GL2 5798  -0.447  10.249  10.087  0.0973 -0.0040 -0.1863
  363loPI   C1A 5799  -0.815  10.033   9.869  0.0016 -0.1883 -0.1728
  363loPI   C2A 5800  -1.074  10.036   9.469  0.2033 -0.5476 -0.1475
  363loPI   C3A 5801  -1.241   9.991   9.044 -0.0854 -0.1605 -0.2565
  363loPI   C4A 5802  -1.416   9.782   8.741 -0.1965  0.0555  0.0173
  363loPI   C5A 5803  -1.603   9.323   8.644  0.1202 -0.1228  0.0645
  363loPI   C6A 5804  -1.731   9.061   8.362 -0.1194  0.1001 -0.0809
  363loPI   C1B 5805  -0.197  10.305   9.663  0.2630  0.1189  0.1804
  363loPI   C2B 5806  -0.115  10.220   9.213 -0.0382  0.2303  0.3039
  363loPI   C3B 5807   0.188  10.259   8.873 -0.1100 -0.1730  0.0126
  363loPI   C4B 5808   0.467  10.192   8.645 -0.1532  0.0866  0.4889
  364loPI    C1 5809   6.725  15.327  10.151 -0.0202  0.0105 -0.1934
  364loPI    C2 5810   6.513  15.431  10.474  0.1441  0.2065 -0.1468
  364loPI    C3 5811   6.660  15.061  10.443 -0.0828  0.1121 -0.1138
  364loPI   PO4 5812   6.645  15.488   9.941 -0.1529  0.2235  0.0775
  364loPI   GL1 5813   6.442  15.336   9.569 -0.0364  0.2363 -0.2625
  364loPI   GL2 5814   6.220  15.071   9.497 -0.1299  0.1738 -0.0151
  364loPI   C1A 5815   6.347  15.379   9.087  0.2282 -0.0280 -0.0775
  364loPI   C2A 5816   6.329  15.558   8.736  0.1139  0.0367  0.0660
  364loPI   C3A 5817   6.312  15.578   8.404 -0.3056 -0.0836 -0.0733
  364loPI   C4A 5818   6.534  15.551   7.993 -0.2523  0.1112  0.1609
  364loPI   C5A 5819   6.689  15.395   7.601 -0.1079 -0.1041  0.1279
  364loPI   C6A 5820   6.986  15.190   7.386  0.1243  0.0303 -0.1557
  364loPI   C1B 5821   6.171  14.955   9.082  0.0706 -0.0721  0.0873
  364loPI   C2B 5822   6.257  15.017   8.683 -0.1792  0.0111 -0.0352
  364loPI   C3B 5823   6.451  14.986   8.267  0.1015 -0.1783  0.2635
  364loPI   C4B 5824   6.716  14.979   7.921  0.0142 -0.1639  0.2394
  365loPI    C1 5825   9.422  15.771  10.309 -0.1463 -0.0820  0.1971
  365loPI    C2 5826   9.389  16.037  10.012  0.2019  0.0357  0.2585
  365loPI    C3 5827   9.069  15.829  10.131  0.0472  0.0201 -0.1662
  365loPI   PO4 5828   9.664  15.686  10.196  0.0004 -0.0094 -0.0947
  365loPI   GL1 5829   9.752  15.368   9.832  0.0079 -0.2202 -0.1323
  365loPI   GL2 5830   9.600  15.644   9.699  0.0375 -0.0091 -0.0772
  365loPI   C1A 5831  10.036  15.384   9.488  0.1433 -0.0374 -0.2865
  365loPI   C2A 5832   9.973  15.165   9.153 -0.1511  0.2806  0.1344
  365loPI   C3A 5833  10.023  15.157   8.761 -0.0392  0.4404  0.1001
  365loPI   C4A 5834  10.105  15.372   8.341  0.0117  0.4212 -0.0347
  365loPI   C5A 5835  10.246  15.720   8.076 -0.3417  0.0467 -0.0333
  365loPI   C6A 5836  10.491  15.984   8.124 -0.2410 -0.2291  0.0800
  365loPI   C1B 5837   9.959  15.918   9.490  0.1566  0.2269  0.3678
  365loPI   C2B 5838   9.911  16.235   9.249  0.2639 -0.5044 -0.0590
  365loPI   C3B 5839   9.690  16.152   8.822 -0.0984 -0.1118  0.0565
  365loPI   C4B 5840   9.461  16.211   8.442 -0.0862  0.1502  0.1738
  366loPI    C1 5841   8.166   2.937  10.870 -0.0972 -0.0176 -0.3225
  366loPI    C2 5842   8.256   2.576  11.016  0.0605  0.1271 -0.0547
  366loPI    C3 5843   7.966   2.793  11.185  0.0557  0.1805 -0.1312
  366loPI   PO4 5844   8.010   2.894  10.605  0.0508 -0.1063  0.0143
  366loPI   GL1 5845   7.744   2.987  10.334 -0.3224 -0.1161 -0.0221
  366loPI   GL2 5846   7.421   3.011  10.245 -0.1687 -0.1409 -0.1966
  366loPI   C1A 5847   7.776   2.892   9.859 -0.0778 -0.0107 -0.0226
  366loPI   C2A 5848   7.785   2.865   9.438  0.1797  0.0494  0.1999
  366loPI   C3A 5849   7.903   3.097   9.033  0.1401 -0.1292 -0.0496
  366loPI   C4A 5850   8.182   3.352   8.700 -0.0617  0.1416  0.1129
  366loPI   C5A 5851   8.143   3.084   8.262 -0.0328 -0.0416  0.0596
  366loPI   C6A 5852   8.240   3.014   7.842  0.0892  0.1344 -0.0131
  366loPI   C1B 5853   7.324   3.009   9.819  0.5674 -0.1163  0.2586
  366loPI   C2B 5854   7.342   3.082   9.429 -0.0567  0.1071  0.2027
  366loPI   C3B 5855   7.409   3.308   8.973  0.0517 -0.1372 -0.0600
  366loPI   C4B 5856   7.298   3.639   8.619  0.0923  0.0946  0.0367
  367loPI    C1 5857   0.625   3.097  10.334 -0.1462 -0.1814 -0.1214
  367loPI    C2 5858   0.281   3.134  10.535 -0.0591 -0.1688  0.0267
  367loPI    C3 5859   0.619   3.048  10.731  0.1197  0.3343 -0.0454
  367loPI   PO4 5860   0.588   3.113  10.129 -0.2116 -0.1142  0.0637
  367loPI   GL1 5861   0.545   3.246   9.769 -0.0466 -0.0249  0.2464
  367loPI   GL2 5862   0.922   3.346   9.764 -0.1849 -0.0966  0.0711
  367loPI   C1A 5863   0.642   3.438   9.361 -0.0830 -0.1241  0.0454
  367loPI   C2A 5864   0.620   3.362   8.880  0.0052  0.1025 -0.1627
  367loPI   C3A 5865   0.782   3.041   8.571  0.0858 -0.2497 -0.0104
  367loPI   C4A 5866   1.048   3.168   8.260  0.0940 -0.0163  0.0341
  367loPI   C5A 5867   1.279   3.091   7.908  0.1093  0.6043  0.0214
  367loPI   C6A 5868   1.657   3.273   7.821 -0.2841  0.0371 -0.1286
  367loPI   C1B 5869   1.129   3.456   9.419 -0.1428  0.0108 -0.0962
  367loPI   C2B 5870   1.111   3.424   8.996 -0.1236  0.2672 -0.4960
  367loPI   C3B 5871   1.027   3.517   8.618  0.1538  0.2703 -0.1436
  367loPI   C4B 5872   1.039   3.815   8.359 -0.0100 -0.2118  0.0600
  368loPI    C1 5873   0.449   6.698  10.934 -0.0121  0.2248 -0.0899
  368loPI    C2 5874   0.107   6.863  11.058 -0.0253  0.1781 -0.0642
  368loPI    C3 5875   0.384   6.754  11.324 -0.0898 -0.0015 -0.0685
  368loPI   PO4 5876   0.576   6.917  10.633  0.0442 -0.0528 -0.0333
  368loPI   GL1 5877   0.565   6.771  10.181  0.2088 -0.0071  0.0415
  368loPI   GL2 5878   0.279   6.930  10.124  0.3062 -0.0248 -0.1389
  368loPI   C1A 5879   0.611   6.662   9.744 -0.0605 -0.0273 -0.0034
  368loPI   C2A 5880   0.725   6.494   9.407 -0.0755 -0.0939 -0.2088
  368loPI   C3A 5881   0.775   6.426   8.980 -0.0280 -0.2193 -0.0218
  368loPI   C4A 5882   0.677   6.313   8.607 -0.1015 -0.0195 -0.2504
  368loPI   C5A 5883   0.820   6.487   8.275 -0.2351  0.0280 -0.1151
  368loPI   C6A 5884   1.255   6.610   8.089  0.1112  0.1727  0.0627
  368loPI   C1B 5885   0.337   7.174   9.695  0.0122 -0.3637 -0.0501
  368loPI   C2B 5886   0.410   7.357   9.282 -0.0031  0.0890 -0.0721
  368loPI   C3B 5887   0.347   7.376   8.785  0.1507 -0.1620  0.0882
  368loPI   C4B 5888   0.309   7.227   8.400 -0.0554 -0.2638 -0.0518
  369loPI    C1 5889   5.374   9.136  10.427 -0.1330  0.0991 -0.2385
  369loPI    C2 5890   5.152   9.389  10.643  0.0373 -0.1016  0.1850
  369loPI    C3 5891   5.531   9.318  10.747  0.1743 -0.0864 -0.2803
  369loPI   PO4 5892   5.346   9.175  10.213  0.0005 -0.1848  0.0525
  369loPI   GL1 5893   5.321   9.417   9.834  0.0087  0.0291 -0.1725
  369loPI   GL2 5894   5.174   9.237   9.725 -0.4038 -0.0011  0.0192
  369loPI   C1A 5895   5.597   9.585   9.524 -0.2171  0.1333 -0.1160
  369loPI   C2A 5896   5.622   9.534   9.112  0.2443 -0.3587  0.4155
  369loPI   C3A 5897   5.630   9.445   8.675 -0.1580 -0.1912 -0.1567
  369loPI   C4A 5898   5.668   9.374   8.293 -0.2664 -0.0666 -0.1240
  369loPI   C5A 5899   5.800   9.036   8.039 -0.3210 -0.3188  0.0246
  369loPI   C6A 5900   5.867   9.191   7.677 -0.1663  0.0964  0.2307
  369loPI   C1B 5901   5.337   9.177   9.372  0.0017  0.1647  0.0895
  369loPI   C2B 5902   5.342   9.154   8.933  0.2404  0.2141 -0.0413
  369loPI   C3B 5903   5.380   8.964   8.650  0.2680  0.1246 -0.1331
  369loPI   C4B 5904   5.276   9.031   8.369 -0.1621 -0.0847 -0.1048
  370loPI    C1 5905   1.060  16.220  10.477 -0.1061  0.0739 -0.0024
  370loPI    C2 5906   1.273  15.978  10.241 -0.0298  0.2444 -0.1105
  370loPI    C3 5907   1.363  16.008  10.629 -0.1075  0.0205 -0.0738
  370loPI   PO4 5908   1.133  16.448  10.335  0.0676  0.0968 -0.2628
  370loPI   GL1 5909   1.137  16.532   9.868 -0.2794  0.0085 -0.0035
  370loPI   GL2 5910   1.362  16.254   9.828 -0.0626  0.1444 -0.1767
  370loPI   C1A 5911   0.939  16.676   9.580 -0.1218 -0.0695  0.3064
  370loPI   C2A 5912   0.941  16.595   9.146  0.0972  0.1138 -0.1032
  370loPI   C3A 5913   0.949  16.278   8.806 -0.3180  0.1469 -0.2137
  370loPI   C4A 5914   0.963  16.094   8.311 -0.3770  0.2099 -0.0096
  370loPI   C5A 5915   0.863  15.760   8.009 -0.2595 -0.0213 -0.2346
  370loPI   C6A 5916   0.946  15.330   7.984  0.1076  0.3650 -0.3812
  370loPI   C1B 5917   1.742  16.287   9.688 -0.1681  0.1658 -0.5888
  370loPI   C2B 5918   1.929  16.517   9.349 -0.1308  0.2813 -0.0464
  370loPI   C3B 5919   1.940  16.632   8.911  0.0945 -0.1580 -0.0103
  370loPI   C4B 5920   2.012  16.809   8.606  0.0770  0.0334 -0.0301
  371loPI    C1 5921   6.666  11.547  10.319 -0.1325  0.0706 -0.1218
  371loPI    C2 5922   6.494  11.418  10.657  0.1931  0.0837  0.0524
  371loPI    C3 5923   6.577  11.806  10.611 -0.0392  0.1137 -0.1317
  371loPI   PO4 5924   6.484  11.407  10.188 -0.0355  0.3241 -0.1286
  371loPI   GL1 5925   6.393  11.442   9.740 -0.0006  0.3021 -0.2706
  371loPI   GL2 5926   6.446  11.168   9.683  0.0531 -0.0286 -0.0192
  371loPI   C1A 5927   6.625  11.584   9.406  0.0560  0.1057 -0.2388
  371loPI   C2A 5928   6.592  11.638   9.085 -0.2375 -0.1360 -0.0636
  371loPI   C3A 5929   6.582  11.628   8.580 -0.0122 -0.1110 -0.2149
  371loPI   C4A 5930   6.690  11.594   8.178  0.0397 -0.0745 -0.0221
  371loPI   C5A 5931   6.906  11.353   7.860 -0.2959  0.1259 -0.0120
  371loPI   C6A 5932   7.086  10.861   7.913  0.0222  0.0176 -0.0998
  371loPI   C1B 5933   6.331  11.246   9.278 -0.1813 -0.0026 -0.0563
  371loPI   C2B 5934   6.325  11.273   8.852 -0.4668  0.1380 -0.0597
  371loPI   C3B 5935   6.187  11.318   8.353 -0.0282  0.1620 -0.0480
  371loPI   C4B 5936   5.807  11.297   8.156  0.2279  0.1427 -0.1889
  372loPI    C1 5937  14.215   2.212  10.659 -0.2984 -0.0315  0.0582
  372loPI    C2 5938  14.438   2.263  10.987 -0.0169 -0.0210 -0.1306
  372loPI    C3 5939  14.185   1.954  10.964  0.2260 -0.2292 -0.0466
  372loPI   PO4 5940  14.387   2.279  10.398 -0.0942  0.0953 -0.1487
  372loPI   GL1 5941  14.208   2.253  10.056  0.1441  0.0229  0.0334
  372loPI   GL2 5942  13.962   2.281  10.088 -0.1174  0.4121 -0.2144
  372loPI   C1A 5943  14.270   1.927   9.731  0.3362  0.1600 -0.0293
  372loPI   C2A 5944  14.227   1.694   9.329 -0.0281  0.0638 -0.1862
  372loPI   C3A 5945  14.021   1.647   8.945  0.2788 -0.0231 -0.0902
  372loPI   C4A 5946  14.194   1.612   8.557  0.3645  0.0896  0.3236
  372loPI   C5A 5947  14.144   1.862   8.178  0.1583  0.3104  0.0039
  372loPI   C6A 5948  14.064   2.167   7.858 -0.0590 -0.0324 -0.4107
  372loPI   C1B 5949  13.864   2.188   9.661  0.1222 -0.1178  0.1193
  372loPI   C2B 5950  13.986   2.105   9.264 -0.0479  0.0741 -0.0151
  372loPI   C3B 5951  13.849   2.153   8.761  0.0015  0.1495 -0.3332
  372loPI   C4B 5952  13.752   2.180   8.364  0.2985  0.6051 -0.0403
  373loPI    C1 5953   5.496   1.849  10.567  0.1756  0.0929 -0.0071
  373loPI    C2 5954   5.356   1.669  10.895 -0.0058 -0.0012 -0.1342
  373loPI    C3 5955   5.578   2.000  10.928  0.0816 -0.0798  0.0876
  373loPI   PO4 5956   5.343   1.935  10.423  0.1066 -0.1614 -0.0408
  373loPI   GL1 5957   5.133   2.168  10.204 -0.0869  0.0282 -0.0884
  373loPI   GL2 5958   5.307   2.429  10.232 -0.0315  0.1737  0.0260
  373loPI   C1A 5959   5.293   1.947   9.824 -0.1282  0.1070  0.1255
  373loPI   C2A 5960   5.534   1.730   9.549 -0.0449  0.1043 -0.0667
  373loPI   C3A 5961   5.600   1.629   9.146 -0.0443 -0.0848  0.3897
  373loPI   C4A 5962   5.463   1.712   8.796 -0.0144 -0.2006 -0.2101
  373loPI   C5A 5963   5.114   1.758   8.526 -0.2360 -0.0604  0.1176
  373loPI   C6A 5964   5.050   1.483   8.235 -0.2113  0.1397  0.4267
  373loPI   C1B 5965   5.693   2.329   9.977 -0.2215 -0.0620  0.2934
  373loPI   C2B 5966   5.761   2.451   9.633  0.3223  0.3309 -0.1699
  373loPI   C3B 5967   5.939   2.439   9.240 -0.0849 -0.2109  0.0816
  373loPI   C4B 5968   5.942   2.476   8.814  0.0396  0.2234 -0.0375
  374loPI    C1 5969   5.836  11.190  10.361 -0.1254 -0.1264 -0.0036
  374loPI    C2 5970   6.015  11.126  10.713  0.1224  0.0878 -0.0871
  374loPI    C3 5971   5.702  11.374  10.690 -0.1410 -0.2238  0.0450
  374loPI   PO4 5972   5.766  10.904  10.280 -0.3753  0.2596  0.1642
  374loPI   GL1 5973   5.720  10.839   9.882  0.0503  0.0492 -0.0180
  374loPI   GL2 5974   6.056  10.831   9.749  0.1755 -0.2028  0.2227
  374loPI   C1A 5975   5.676  10.534   9.631 -0.2238  0.0652 -0.4273
  374loPI   C2A 5976   5.705  10.485   9.267  0.1628  0.0323  0.0802
  374loPI   C3A 5977   5.801  10.436   8.770 -0.1358  0.2456  0.0232
  374loPI   C4A 5978   5.692  10.332   8.325  0.0597  0.0676 -0.1968
  374loPI   C5A 5979   5.316  10.366   7.997 -0.1176  0.2651 -0.3064
  374loPI   C6A 5980   4.912  10.206   7.970 -0.1051 -0.2332  0.0226
  374loPI   C1B 5981   5.955  10.875   9.350 -0.3553  0.3040 -0.2577
  374loPI   C2B 5982   6.035  10.854   9.009  0.0527 -0.1789 -0.1874
  374loPI   C3B 5983   6.121  10.730   8.558 -0.0517 -0.1948  0.2509
  374loPI   C4B 5984   6.065  10.741   8.064 -0.2736  0.1617 -0.1479
  375loPI    C1 5985   2.424   0.949  10.784  0.1634 -0.1381  0.0537
  375loPI    C2 5986   2.380   1.205  11.088 -0.1530  0.2677 -0.3217
  375loPI    C3 5987   2.065   0.999  10.952  0.0437 -0.1218 -0.2023
  375loPI   PO4 5988   2.543   1.083  10.509  0.1381 -0.3454 -0.0298
  375loPI   GL1 5989   2.437   1.308  10.112 -0.0193 -0.0124  0.1304
  375loPI   GL2 5990   2.186   1.345  10.094  0.0028 -0.1841  0.2580
  375loPI   C1A 5991   2.743   1.229   9.701 -0.0836 -0.0051 -0.1203
  375loPI   C2A 5992   3.084   1.362   9.421 -0.0637  0.2309  0.0070
  375loPI   C3A 5993   3.078   1.446   9.046  0.2070 -0.0095  0.2293
  375loPI   C4A 5994   2.977   1.434   8.678  0.0051 -0.1501 -0.0620
  375loPI   C5A 5995   3.159   1.185   8.388 -0.0162  0.0974 -0.1460
  375loPI   C6A 5996   3.268   0.804   8.067 -0.1436  0.1076 -0.0465
  375loPI   C1B 5997   2.225   1.462   9.688  0.3463  0.1118  0.1613
  375loPI   C2B 5998   2.354   1.318   9.390  0.1323  0.1893  0.0742
  375loPI   C3B 5999   2.612   1.243   9.024  0.1640 -0.0335 -0.2588
  375loPI   C4B 6000   2.645   1.037   8.755 -0.1191  0.1428  0.1689
  376loPI    C1 6001  16.567  12.574  10.853  0.0183  0.0989  0.0817
  376loPI    C2 6002  16.848  12.419  11.092 -0.0365 -0.0119  0.0747
  376loPI    C3 6003  16.464  12.408  11.202 -0.0452  0.0796  0.0539
  376loPI   PO4 6004  16.803  12.655  10.653 -0.2492 -0.2013 -0.1728
  376loPI   GL1 6005  16.692  12.919  10.345  0.1515 -0.0231  0.1109
  376loPI   GL2 6006  16.860  13.166  10.347  0.2292 -0.1213  0.2954
  376loPI   C1A 6007  16.457  13.120  10.016 -0.0424  0.1192  0.1959
  376loPI   C2A 6008  16.371  13.159   9.603 -0.2439 -0.2535 -0.1622
  376loPI   C3A 6009  16.366  13.225   9.189  0.2016  0.0105 -0.0357
  376loPI   C4A 6010  16.245  13.219   8.803  0.2252  0.0349 -0.0517
  376loPI   C5A 6011  16.197  13.028   8.413  0.0480  0.2272  0.0566
  376loPI   C6A 6012  16.089  13.146   7.941  0.0272  0.4020  0.0513
  376loPI   C1B 6013  17.071  13.311   9.885  0.2261  0.0236 -0.1970
  376loPI   C2B 6014  17.215  13.087   9.470  0.2051 -0.1833 -0.1437
  376loPI   C3B 6015  17.202  12.945   9.028  0.0677 -0.3320 -0.0371
  376loPI   C4B 6016  17.227  13.024   8.687  0.0497 -0.0054 -0.0042
  377loPI    C1 6017  17.908   6.842  10.329 -0.2749 -0.0316  0.0795
  377loPI    C2 6018  17.664   6.947  10.628  0.1091 -0.1030  0.4280
  377loPI    C3 6019  18.049   7.054  10.638  0.0460  0.2389 -0.2443
  377loPI   PO4 6020  17.926   6.580  10.200  0.0601  0.1110  0.0081
  377loPI   GL1 6021  17.944   6.229  10.008  0.0097  0.1618 -0.5341
  377loPI   GL2 6022  17.696   6.022   9.940  0.0644 -0.3224  0.4213
  377loPI   C1A 6023  18.293   6.179   9.689  0.2252  0.0053 -0.1272
  377loPI   C2A 6024  18.207   6.308   9.321  0.0560  0.0206 -0.1384
  377loPI   C3A 6025  18.312   6.307   8.860  0.1500 -0.0450  0.1555
  377loPI   C4A 6026  18.114   6.378   8.475 -0.0902 -0.2687 -0.0771
  377loPI   C5A 6027  17.890   6.264   8.071  0.1721 -0.3857  0.4095
  377loPI   C6A 6028  17.559   5.980   7.836  0.2053  0.1676 -0.0215
  377loPI   C1B 6029  17.821   5.982   9.556 -0.1535  0.0024 -0.3394
  377loPI   C2B 6030  17.764   6.088   9.135  0.0101  0.2448  0.1879
  377loPI   C3B 6031  17.794   6.026   8.700  0.2004 -0.0036  0.3177
  377loPI   C4B 6032  17.507   6.132   8.470  0.3363 -0.3005 -0.0050
  378loPI    C1 6033  16.446   7.535  10.201  0.3505  0.1617 -0.0344
  378loPI    C2 6034  16.472   7.268  10.497 -0.0321 -0.1304 -0.2558
  378loPI    C3 6035  16.750   7.275  10.210  0.0468 -0.2073 -0.1820
  378loPI   PO4 6036  16.149   7.479  10.133 -0.1599  0.1196  0.2448
  378loPI   GL1 6037  15.980   7.397   9.765  0.1840  0.0517 -0.1421
  378loPI   GL2 6038  16.123   7.180   9.630  0.0968  0.0494  0.2414
  378loPI   C1A 6039  15.973   7.682   9.559 -0.2555  0.1514  0.0737
  378loPI   C2A 6040  15.735   7.903   9.124 -0.3001 -0.1095  0.3660
  378loPI   C3A 6041  15.671   7.896   8.725 -0.2400 -0.0882  0.2797
  378loPI   C4A 6042  15.853   7.567   8.467 -0.2422  0.3419  0.1521
  378loPI   C5A 6043  15.915   7.309   7.990 -0.1894 -0.3658 -0.3131
  378loPI   C6A 6044  15.710   7.018   7.839 -0.2633 -0.3036 -0.2431
  378loPI   C1B 6045  16.329   7.479   9.337  0.1042 -0.0226  0.1625
  378loPI   C2B 6046  16.297   7.958   9.195 -0.0796 -0.2555 -0.0255
  378loPI   C3B 6047  16.506   8.119   8.834  0.0174  0.3621 -0.1705
  378loPI   C4B 6048  16.546   7.987   8.372  0.1750 -0.3497  0.0114
  379loPI    C1 6049   0.288   0.838  10.705  0.1702  0.0552 -0.1082
  379loPI    C2 6050   0.620   0.654  10.579  0.1126  0.0162 -0.2047
  379loPI    C3 6051   0.638   0.913  10.884  0.1848 -0.1943 -0.0277
  379loPI   PO4 6052   0.188   0.941  10.447  0.1814 -0.0220 -0.1624
  379loPI   GL1 6053   0.100   0.802  10.010 -0.0624  0.0677 -0.4639
  379loPI   GL2 6054  -0.044   0.653   9.766 -0.0137  0.1309 -0.2393
  379loPI   C1A 6055   0.325   1.023   9.608 -0.2459 -0.0697  0.0278
  379loPI   C2A 6056   0.413   1.034   9.174 -0.0815  0.1073 -0.0996
  379loPI   C3A 6057   0.321   0.983   8.746 -0.1254 -0.2565  0.2431
  379loPI   C4A 6058   0.269   1.119   8.340  0.2102  0.1231 -0.0070
  379loPI   C5A 6059   0.360   1.338   7.989 -0.0519  0.0920 -0.0814
  379loPI   C6A 6060   0.585   1.719   7.984 -0.0684  0.2213  0.0432
  379loPI   C1B 6061   0.177   0.617   9.328 -0.1218  0.0825 -0.1311
  379loPI   C2B 6062   0.220   0.503   8.882  0.0013 -0.1858 -0.0022
  379loPI   C3B 6063   0.321   0.608   8.458  0.0681 -0.2605  0.1390
  379loPI   C4B 6064   0.289   0.495   8.038  0.1114  0.2424 -0.2149
  380loPI    C1 6065   2.215  14.264  10.550 -0.1352 -0.2229 -0.1404
  380loPI    C2 6066   2.247  14.657  10.618 -0.2754 -0.2219 -0.0747
  380loPI    C3 6067   1.914  14.463  10.724 -0.2160 -0.3543 -0.1285
  380loPI   PO4 6068   2.241  14.275  10.220 -0.1431 -0.2506 -0.0220
  380loPI   GL1 6069   1.921  14.463  10.084 -0.1310  0.4628 -0.3126
  380loPI   GL2 6070   2.115  14.750  10.120 -0.0464  0.0798  0.2508
  380loPI   C1A 6071   1.850  14.356   9.683  0.1005 -0.2313 -0.1573
  380loPI   C2A 6072   1.796  14.371   9.194  0.0189 -0.0360 -0.2309
  380loPI   C3A 6073   1.520  14.513   8.871 -0.2447  0.0707  0.1200
  380loPI   C4A 6074   1.449  14.463   8.489 -0.3949 -0.1093  0.0621
  380loPI   C5A 6075   1.413  14.155   8.042  0.2916  0.1784  0.0386
  380loPI   C6A 6076   1.398  13.907   7.651 -0.1973 -0.0146  0.0044
  380loPI   C1B 6077   2.299  14.725   9.679  0.1096 -0.0252  0.0563
  380loPI   C2B 6078   2.287  14.628   9.264 -0.2494  0.0900  0.0934
  380loPI   C3B 6079   2.047  14.657   8.837 -0.2079 -0.3528 -0.0603
  380loPI   C4B 6080   1.983  14.840   8.438  0.0002  0.2229 -0.0589
  381loPI    C1 6081   9.665   5.428  10.723 -0.1969  0.0073  0.1706
  381loPI    C2 6082   9.311   5.244  10.755 -0.1594 -0.1051 -0.0417
  381loPI    C3 6083   9.606   5.157  11.011 -0.2380 -0.1191  0.0446
  381loPI   PO4 6084   9.663   5.506  10.433 -0.0198  0.2138  0.2120
  381loPI   GL1 6085   9.392   5.509  10.048 -0.0783 -0.0923 -0.1270
  381loPI   GL2 6086   9.400   5.847  10.125  0.1247  0.2351  0.1044
  381loPI   C1A 6087   9.330   5.454   9.657  0.1825  0.3279 -0.1292
  381loPI   C2A 6088   9.307   5.484   9.237  0.0346  0.2523 -0.2015
  381loPI   C3A 6089   9.144   5.307   8.869 -0.2730 -0.2331  0.0245
  381loPI   C4A 6090   9.161   5.333   8.526 -0.5111  0.0699  0.5801
  381loPI   C5A 6091   9.022   5.313   8.078  0.3820  0.0234 -0.1126
  381loPI   C6A 6092   8.732   5.654   7.958 -0.1951  0.0362  0.0710
  381loPI   C1B 6093   9.285   5.939   9.775 -0.2708  0.1621 -0.2077
  381loPI   C2B 6094   9.189   6.065   9.372  0.0693 -0.0330  0.0744
  381loPI   C3B 6095   9.031   6.526   9.168  0.1474  0.2124  0.0739
  381loPI   C4B 6096   9.034   6.766   8.825 -0.1757  0.0356  0.0192
  382loPI    C1 6097  14.734   3.381  10.750  0.1312  0.1024 -0.0571
  382loPI    C2 6098  14.980   3.522  11.032 -0.0747  0.0797  0.1367
  382loPI    C3 6099  14.607   3.416  11.127 -0.1857  0.1852 -0.1690
  382loPI   PO4 6100  14.815   3.431  10.517  0.0174 -0.0182  0.2369
  382loPI   GL1 6101  14.986   3.377  10.088 -0.2449  0.0429  0.1989
  382loPI   GL2 6102  14.572   3.218  10.131 -0.0772 -0.1453 -0.0050
  382loPI   C1A 6103  14.875   3.232   9.735 -0.2683 -0.1352  0.1180
  382loPI   C2A 6104  14.757   2.845   9.496 -0.1035  0.1876 -0.2976
  382loPI   C3A 6105  14.643   2.708   9.002  0.0120 -0.0439  0.3116
  382loPI   C4A 6106  14.775   2.373   8.807 -0.0029  0.0515  0.3637
  382loPI   C5A 6107  15.081   2.243   8.534  0.0554 -0.1261  0.0326
  382loPI   C6A 6108  15.071   2.112   8.137 -0.1408 -0.0361  0.1930
  382loPI   C1B 6109  14.386   3.174   9.649  0.6812 -0.4268 -0.0821
  382loPI   C2B 6110  14.274   2.908   9.337  0.2584  0.1976 -0.0635
  382loPI   C3B 6111  14.203   2.992   8.940  0.0633  0.0571 -0.1765
  382loPI   C4B 6112  14.220   3.080   8.498  0.1579 -0.0872 -0.0229
  383loPI    C1 6113   6.208  14.215  10.013  0.4622  0.2746  0.1536
  383loPI    C2 6114   5.967  14.168  10.328  0.1567  0.0040 -0.1118
  383loPI    C3 6115   6.309  13.963  10.306  0.0620 -0.1606 -0.0677
  383loPI   PO4 6116   6.028  14.150   9.826 -0.2342  0.0618  0.1691
  383loPI   GL1 6117   6.005  14.369   9.427  0.1554  0.1799  0.0051
  383loPI   GL2 6118   5.762  14.539   9.195  0.0603  0.0108  0.0102
  383loPI   C1A 6119   6.379  14.596   9.331  0.3642  0.1744  0.0888
  383loPI   C2A 6120   6.540  14.664   8.970 -0.1269 -0.0958 -0.2362
  383loPI   C3A 6121   6.575  14.629   8.622  0.2047  0.0741 -0.0413
  383loPI   C4A 6122   6.719  14.562   8.178 -0.2012 -0.3869  0.0139
  383loPI   C5A 6123   6.725  14.328   7.854 -0.1270 -0.1244  0.2429
  383loPI   C6A 6124   7.094  14.243   7.619 -0.0729 -0.0604  0.0451
  383loPI   C1B 6125   5.951  14.533   8.837  0.1816 -0.2666  0.0504
  383loPI   C2B 6126   6.091  14.568   8.444  0.0380 -0.0996  0.0467
  383loPI   C3B 6127   6.278  14.559   7.998 -0.1491 -0.0863 -0.2338
  383loPI   C4B 6128   6.453  14.724   7.577 -0.3042 -0.2462 -0.1170
  384loPI    C1 6129   7.285  10.011  10.605 -0.1853  0.1716  0.0295
  384loPI    C2 6130   7.681  10.029  10.658 -0.1859  0.3166 -0.0087
  384loPI    C3 6131   7.443   9.912  10.958 -0.0885 -0.1000 -0.0872
  384loPI   PO4 6132   7.281   9.920  10.333 -0.0975 -0.0612 -0.2778
  384loPI   GL1 6133   7.283   9.982   9.979  0.3469  0.3940  0.1442
  384loPI   GL2 6134   7.428   9.650   9.822 -0.1714 -0.1725 -0.1196
  384loPI   C1A 6135   7.337  10.095   9.488  0.2933  0.2938  0.1170
  384loPI   C2A 6136   7.293  10.283   9.131 -0.4072 -0.0630 -0.0232
  384loPI   C3A 6137   7.321  10.352   8.752  0.1668  0.0773 -0.0392
  384loPI   C4A 6138   7.416  10.182   8.340 -0.1174  0.2524 -0.1257
  384loPI   C5A 6139   7.516  10.254   7.926  0.0516  0.0727 -0.0488
  384loPI   C6A 6140   7.493  10.654   7.684  0.2409 -0.1664  0.2548
  384loPI   C1B 6141   7.470   9.641   9.479 -0.0013 -0.1346 -0.0677
  384loPI   C2B 6142   7.437   9.665   9.034  0.1906 -0.3093  0.1154
  384loPI   C3B 6143   7.481   9.756   8.613 -0.1871 -0.0034  0.2306
  384loPI   C4B 6144   7.704   9.843   8.154 -0.0789  0.0105  0.0919
  385loPI    C1 6145  12.693  13.942  10.756 -0.0321 -0.1893  0.1189
  385loPI    C2 6146  12.460  14.265  10.714  0.0190 -0.1699 -0.0199
  385loPI    C3 6147  12.726  14.248  11.012 -0.0332 -0.1143  0.0301
  385loPI   PO4 6148  12.807  13.875  10.513 -0.0997  0.1361  0.0429
  385loPI   GL1 6149  12.683  13.972  10.000  0.0175 -0.0460 -0.3205
  385loPI   GL2 6150  12.923  14.120   9.834  0.1939  0.0536  0.0665
  385loPI   C1A 6151  12.415  14.000   9.597  0.1284 -0.0996 -0.0715
  385loPI   C2A 6152  12.541  14.188   9.212 -0.2962  0.0151  0.0659
  385loPI   C3A 6153  12.590  14.199   8.721  0.1580 -0.1479 -0.0319
  385loPI   C4A 6154  12.493  14.147   8.305  0.1537  0.2241 -0.1534
  385loPI   C5A 6155  12.373  13.860   8.036  0.0182 -0.2619  0.0405
  385loPI   C6A 6156  12.523  13.483   8.037 -0.1301 -0.2069  0.2542
  385loPI   C1B 6157  12.890  13.895   9.500 -0.0367 -0.0058 -0.0702
  385loPI   C2B 6158  12.963  13.903   9.073  0.0739  0.0975 -0.3105
  385loPI   C3B 6159  13.041  13.892   8.684  0.2034 -0.3743 -0.0069
  385loPI   C4B 6160  13.012  13.502   8.242 -0.3350 -0.0848 -0.0648
  386loPI    C1 6161  16.544   0.319  10.354  0.0258 -0.0820 -0.0101
  386loPI    C2 6162  16.470  -0.007  10.574 -0.0054 -0.0713 -0.0046
  386loPI    C3 6163  16.363   0.355  10.709  0.0306 -0.0587 -0.0100
  386loPI   PO4 6164  16.435   0.279  10.101 -0.2986 -0.2755  0.2790
  386loPI   GL1 6165  16.579   0.549   9.679  0.1111 -0.1191  0.3120
  386loPI   GL2 6166  16.362   0.893   9.747  0.1352 -0.0716  0.0507
  386loPI   C1A 6167  16.634   0.551   9.244  0.0568 -0.0380 -0.0478
  386loPI   C2A 6168  16.666   0.415   8.840 -0.0374  0.1270  0.1034
  386loPI   C3A 6169  16.508   0.548   8.353  0.2013  0.0612 -0.0799
  386loPI   C4A 6170  16.285   0.524   7.907 -0.0211  0.1849 -0.1523
  386loPI   C5A 6171  16.042   0.350   7.584  0.2089  0.0568  0.0643
  386loPI   C6A 6172  15.590   0.315   7.633 -0.2026  0.0408 -0.1043
  386loPI   C1B 6173  16.390   0.960   9.337  0.0298 -0.1264  0.3525
  386loPI   C2B 6174  16.414   1.030   8.950  0.0813 -0.0473  0.2859
  386loPI   C3B 6175  16.495   1.050   8.487  0.0074 -0.1097  0.2463
  386loPI   C4B 6176  16.552   0.915   8.016  0.1248 -0.2424  0.0090
  387loPI    C1 6177  11.763  12.438  10.493 -0.1138  0.0162 -0.0290
  387loPI    C2 6178  11.883  12.058  10.520 -0.0919  0.0196 -0.0774
  387loPI    C3 6179  12.011  12.327  10.787 -0.1607 -0.0208 -0.0034
  387loPI   PO4 6180  11.762  12.470  10.271  0.1087 -0.1646  0.0498
  387loPI   GL1 6181  12.072  12.705   9.987 -0.0727 -0.0212 -0.2159
  387loPI   GL2 6182  12.345  12.524   9.987 -0.0737  0.0616  0.0990
  387loPI   C1A 6183  12.223  12.602   9.531 -0.0570  0.0077  0.0075
  387loPI   C2A 6184  12.320  12.415   9.161  0.1557  0.1665 -0.0840
  387loPI   C3A 6185  12.385  12.468   8.736 -0.0757  0.1570 -0.1302
  387loPI   C4A 6186  12.275  12.594   8.304  0.2315  0.0262 -0.1112
  387loPI   C5A 6187  12.212  12.946   8.087 -0.1765  0.2115 -0.2407
  387loPI   C6A 6188  12.068  13.267   7.899 -0.0086 -0.0192  0.0536
  387loPI   C1B 6189  12.663  12.585   9.730  0.4171 -0.0803 -0.1540
  387loPI   C2B 6190  12.784  12.617   9.328  0.2012 -0.1023  0.0529
  387loPI   C3B 6191  13.147  12.500   9.100 -0.1674 -0.0496  0.0628
  387loPI   C4B 6192  13.225  12.387   8.690 -0.0084  0.0456 -0.1864
  388loPI    C1 6193  13.972  14.116  10.395  0.0235  0.0374 -0.1032
  388loPI    C2 6194  13.691  13.880  10.555  0.1662 -0.1736 -0.1597
  388loPI    C3 6195  13.636  14.276  10.541 -0.1148 -0.2105 -0.1446
  388loPI   PO4 6196  14.165  13.954  10.562  0.1205 -0.3530 -0.1105
  388loPI   GL1 6197  14.554  13.707  10.340 -0.1321  0.3618  0.2359
  388loPI   GL2 6198  14.842  13.564  10.286 -0.2286  0.0740  0.0466
  388loPI   C1A 6199  14.270  13.581   9.927  0.0464  0.2358 -0.0616
  388loPI   C2A 6200  14.199  13.435   9.511 -0.0811 -0.2105 -0.1073
  388loPI   C3A 6201  14.196  13.396   9.061 -0.0963 -0.2359  0.4089
  388loPI   C4A 6202  14.213  13.339   8.686  0.0651 -0.1243 -0.0450
  388loPI   C5A 6203  14.177  13.390   8.260  0.0915  0.3074 -0.1423
  388loPI   C6A 6204  14.399  13.397   7.907 -0.2945 -0.1648 -0.0671
  388loPI   C1B 6205  15.101  13.591   9.923  0.1697 -0.1008 -0.3029
  388loPI   C2B 6206  15.102  13.592   9.488  0.1845 -0.3040  0.2230
  388loPI   C3B 6207  15.042  13.658   9.027  0.2346  0.2076  0.0332
  388loPI   C4B 6208  14.919  13.665   8.614 -0.1236  0.2287 -0.2487
  389loPI    C1 6209   1.882   0.351  10.343  0.0065 -0.1331  0.0011
  389loPI    C2 6210   1.571   0.327  10.593 -0.0338 -0.0036 -0.0355
  389loPI    C3 6211   1.852   0.605  10.650 -0.0822  0.0751 -0.1769
  389loPI   PO4 6212   1.801   0.401  10.130 -0.1577 -0.2827 -0.2850
  389loPI   GL1 6213   1.683   0.149   9.786  0.1994  0.1000 -0.4121
  389loPI   GL2 6214   1.598   0.424   9.702 -0.2405  0.0257  0.1290
  389loPI   C1A 6215   1.412   0.054   9.473 -0.0808  0.0813  0.0914
  389loPI   C2A 6216   1.500   0.156   8.978  0.1728  0.2642  0.0982
  389loPI   C3A 6217   1.540   0.294   8.495 -0.0606  0.1094 -0.3644
  389loPI   C4A 6218   1.232   0.242   8.158 -0.2038  0.0965 -0.1916
  389loPI   C5A 6219   0.796   0.258   7.968  0.1582  0.0007  0.1840
  389loPI   C6A 6220   0.465   0.375   7.582  0.0347  0.0503  0.4081
  389loPI   C1B 6221   1.605   0.534   9.257  0.3218 -0.1787  0.1125
  389loPI   C2B 6222   1.783   0.604   8.929 -0.0708  0.1479 -0.0649
  389loPI   C3B 6223   1.761   0.709   8.600 -0.0465 -0.3125  0.1367
  389loPI   C4B 6224   1.818   0.663   8.201 -0.1751 -0.4802 -0.1909
  390loPI    C1 6225   2.034  17.718  10.639  0.0974 -0.0347 -0.0097
  390loPI    C2 6226   1.815  17.400  10.746  0.0604  0.0191  0.0751
  390loPI    C3 6227   2.006  17.615  11.025 -0.1157  0.2171  0.0449
  390loPI   PO4 6228   2.119  17.577  10.342  0.0995  0.0633  0.1402
  390loPI   GL1 6229   2.002  17.332  10.027  0.3544  0.0619 -0.1640
  390loPI   GL2 6230   2.150  17.451   9.860 -0.2112 -0.3234 -0.0600
  390loPI   C1A 6231   1.664  17.271   9.695 -0.1022  0.0100  0.1212
  390loPI   C2A 6232   1.492  17.347   9.340  0.0915  0.0834 -0.1966
  390loPI   C3A 6233   1.271  17.342   8.903  0.2341 -0.0543 -0.2451
  390loPI   C4A 6234   1.119  17.355   8.501 -0.1623  0.0462 -0.1088
  390loPI   C5A 6235   1.176  17.321   8.062  0.1384 -0.0818 -0.0616
  390loPI   C6A 6236   0.997  17.544   7.718  0.1232  0.3180 -0.1719
  390loPI   C1B 6237   2.188  17.485   9.481 -0.0581  0.0724  0.3399
  390loPI   C2B 6238   2.164  17.478   8.993 -0.0445  0.0610  0.1229
  390loPI   C3B 6239   2.197  17.341   8.555 -0.3004  0.2547 -0.0760
  390loPI   C4B 6240   2.212  17.429   8.173 -0.1627 -0.0006  0.1287
  391loPI    C1 6241  11.608   9.288  10.355  0.0701  0.0026 -0.0406
  391loPI    C2 6242  11.814   9.120  10.655  0.1794  0.1947 -0.0061
  391loPI    C3 6243  11.782   9.518  10.633 -0.3119  0.1657  0.0691
  391loPI   PO4 6244  11.471   9.103  10.265  0.1032  0.3483  0.2853
  391loPI   GL1 6245  11.118   9.078   9.915  0.2274  0.1238  0.1043
  391loPI   GL2 6246  10.813   9.363   9.784 -0.2788 -0.0171 -0.2609
  391loPI   C1A 6247  10.961   8.959   9.654  0.2465 -0.1012 -0.0847
  391loPI   C2A 6248  10.881   9.121   9.354 -0.0501 -0.0153 -0.0408
  391loPI   C3A 6249  10.881   9.231   8.958  0.2009  0.1287  0.3439
  391loPI   C4A 6250  10.775   9.364   8.657 -0.3386 -0.1622  0.3146
  391loPI   C5A 6251  10.839   9.678   8.355  0.1816  0.0362  0.0424
  391loPI   C6A 6252  10.949   9.754   7.932 -0.0010 -0.0458  0.1639
  391loPI   C1B 6253  10.914   9.586   9.458  0.1448 -0.1395  0.0029
  391loPI   C2B 6254  11.240   9.788   9.257  0.0401 -0.0281  0.0788
  391loPI   C3B 6255  11.434   9.949   8.983  0.0123  0.1540  0.3366
  391loPI   C4B 6256  11.941   9.989   8.901  0.3180 -0.0880  0.1771
  392loPI    C1 6257   3.404   2.624  10.455 -0.2137 -0.0807 -0.0817
  392loPI    C2 6258   3.644   2.572  10.771 -0.3622 -0.3465 -0.0095
  392loPI    C3 6259   3.771   2.785  10.457 -0.1204 -0.2892  0.1241
  392loPI   PO4 6260   3.221   2.350  10.431 -0.1111 -0.0649  0.0508
  392loPI   GL1 6261   3.275   1.934  10.217  0.2733 -0.2197  0.1172
  392loPI   GL2 6262   2.961   1.945  10.242  0.0800  0.0303 -0.0486
  392loPI   C1A 6263   3.201   1.926   9.745 -0.0137  0.1813 -0.2412
  392loPI   C2A 6264   3.199   1.889   9.359  0.1546 -0.0417  0.1039
  392loPI   C3A 6265   3.374   1.795   8.849 -0.0042  0.1877  0.1066
  392loPI   C4A 6266   3.519   1.546   8.422 -0.2803 -0.1931  0.0360
  392loPI   C5A 6267   3.783   1.669   8.088  0.0333 -0.0675  0.0583
  392loPI   C6A 6268   4.154   1.668   7.839  0.0253 -0.1833 -0.0010
  392loPI   C1B 6269   2.794   2.194   9.840  0.0077 -0.3074 -0.4305
  392loPI   C2B 6270   2.829   2.160   9.442  0.1251 -0.1426 -0.0481
  392loPI   C3B 6271   2.921   2.144   9.004  0.0707  0.1105  0.1797
  392loPI   C4B 6272   2.936   1.964   8.655  0.1104 -0.0407 -0.0519
  393loPI    C1 6273   5.033   1.566  10.544  0.0093  0.0021  0.0499
  393loPI    C2 6274   4.958   1.584  10.152  0.0900  0.0352  0.0357
  393loPI    C3 6275   4.800   1.857  10.398  0.1135  0.0685  0.0142
  393loPI   PO4 6276   5.236   1.327  10.460  0.2649  0.0594  0.1894
  393loPI   GL1 6277   5.386   1.377  10.004  0.1372 -0.3039 -0.2177
  393loPI   GL2 6278   5.410   1.134   9.754 -0.0164  0.2137  0.1006
  393loPI   C1A 6279   5.074   1.525   9.658  0.0116 -0.1405 -0.0488
  393loPI   C2A 6280   5.186   1.327   9.288  0.2642 -0.0874  0.0097
  393loPI   C3A 6281   5.533   1.140   9.087 -0.2287 -0.3278 -0.0308
  393loPI   C4A 6282   5.666   0.959   8.759 -0.1242 -0.0443  0.1905
  393loPI   C5A 6283   5.988   0.903   8.441  0.3030  0.1795  0.2595
  393loPI   C6A 6284   6.299   0.712   8.150  0.5353 -0.3027 -0.1140
  393loPI   C1B 6285   5.075   0.780   9.554  0.3159 -0.2206  0.0930
  393loPI   C2B 6286   5.095   0.278   9.519  0.2863 -0.0658 -0.0199
  393loPI   C3B 6287   5.204   0.157   9.137 -0.0018 -0.1040 -0.1213
  393loPI   C4B 6288   5.586   0.128   9.063 -0.0948 -0.1854  0.0418
  394loPI    C1 6289   4.428  13.120  10.071 -0.0384  0.1577  0.0046
  394loPI    C2 6290   4.741  12.966  10.266  0.1626  0.3631 -0.1512
  394loPI    C3 6291   4.437  13.125  10.471 -0.0018 -0.1395  0.0098
  394loPI   PO4 6292   4.498  13.228   9.912  0.0867  0.0292 -0.1195
  394loPI   GL1 6293   4.400  13.344   9.568 -0.0960  0.2501  0.0751
  394loPI   GL2 6294   4.150  13.587   9.570 -0.0828 -0.2146 -0.2022
  394loPI   C1A 6295   4.514  13.332   9.170 -0.1041  0.1846 -0.0235
  394loPI   C2A 6296   4.482  13.380   8.778 -0.0559 -0.0495  0.0162
  394loPI   C3A 6297   4.372  13.337   8.312  0.2435  0.2103  0.3174
  394loPI   C4A 6298   4.303  13.112   7.881 -0.2303  0.2016  0.2632
  394loPI   C5A 6299   4.336  12.691   7.655  0.0745 -0.0833 -0.0850
  394loPI   C6A 6300   4.024  12.453   7.526 -0.1004  0.1007  0.1103
  394loPI   C1B 6301   4.030  13.630   9.177 -0.0882 -0.0260 -0.0493
  394loPI   C2B 6302   4.039  13.644   8.704 -0.3043  0.1154 -0.0562
  394loPI   C3B 6303   3.992  13.643   8.290 -0.0745  0.2713  0.1246
  394loPI   C4B 6304   3.958  13.431   7.969 -0.0633  0.0184  0.1242
  395loPI    C1 6305   9.795   4.271  10.805 -0.0628 -0.1413  0.0532
  395loPI    C2 6306   9.817   3.982  11.081 -0.0234  0.0081  0.2081
  395loPI    C3 6307   9.908   4.359  11.178  0.0268  0.0563 -0.0195
  395loPI   PO4 6308   9.901   4.261  10.649 -0.1053 -0.1180  0.0552
  395loPI   GL1 6309   9.821   4.203  10.247  0.0459  0.2002 -0.0210
  395loPI   GL2 6310   9.569   4.113  10.122 -0.2113 -0.0966  0.4665
  395loPI   C1A 6311   9.888   4.470   9.902 -0.2326 -0.3387  0.0956
  395loPI   C2A 6312  10.162   4.485   9.522 -0.0688 -0.0488  0.1410
  395loPI   C3A 6313  10.401   4.201   9.364  0.1114 -0.0642 -0.1200
  395loPI   C4A 6314  10.388   4.028   8.959  0.0828  0.2080  0.2906
  395loPI   C5A 6315  10.289   3.643   8.693 -0.2455  0.4179  0.1573
  395loPI   C6A 6316  10.051   3.233   8.601 -0.0092  0.1705  0.0112
  395loPI   C1B 6317   9.667   4.144   9.632 -0.0321 -0.1910 -0.0837
  395loPI   C2B 6318   9.921   4.140   9.324 -0.0924  0.0204 -0.0202
  395loPI   C3B 6319   9.858   4.045   8.910  0.1847 -0.0589  0.2174
  395loPI   C4B 6320   9.420   3.983   8.758  0.1759  0.0284  0.2558
  396loPI    C1 6321  17.222   7.492  10.101 -0.0623 -0.0492 -0.1233
  396loPI    C2 6322  17.249   7.250  10.419  0.2216  0.0857 -0.0412
  396loPI    C3 6323  17.119   7.626  10.464  0.1721  0.0757 -0.1005
  396loPI   PO4 6324  17.128   7.379   9.907  0.1377 -0.1187 -0.1527
  396loPI   GL1 6325  17.126   7.121   9.605 -0.2173  0.1946  0.0708
  396loPI   GL2 6326  16.960   7.006   9.481  0.2236  0.0299 -0.0314
  396loPI   C1A 6327  17.456   7.367   9.278  0.0170 -0.0279 -0.0759
  396loPI   C2A 6328  17.686   7.502   8.904  0.0531 -0.0968  0.3877
  396loPI   C3A 6329  17.955   7.514   8.492  0.2895 -0.1372 -0.2782
  396loPI   C4A 6330  18.114   7.580   8.174  0.2876 -0.3096 -0.0031
  396loPI   C5A 6331  18.220   8.006   8.035  0.0810 -0.3486 -0.3099
  396loPI   C6A 6332  18.209   8.462   8.138  0.2037  0.2027  0.1557
  396loPI   C1B 6333  16.876   7.354   9.254 -0.2759  0.4414 -0.2548
  396loPI   C2B 6334  16.711   7.574   8.967  0.0300  0.0469  0.0877
  396loPI   C3B 6335  16.797   7.592   8.573 -0.1404  0.0929 -0.1155
  396loPI   C4B 6336  16.833   7.601   8.150  0.1538 -0.0378 -0.3912
  397loPI    C1 6337  15.175  11.922  10.782  0.0778  0.1464 -0.1693
  397loPI    C2 6338  15.154  11.747  11.141  0.1105 -0.2125 -0.3380
  397loPI    C3 6339  15.503  11.891  11.009  0.1097 -0.1288 -0.2498
  397loPI   PO4 6340  15.103  11.767  10.638  0.0419 -0.2622  0.2756
  397loPI   GL1 6341  15.053  11.636  10.223  0.1223 -0.1563  0.0240
  397loPI   GL2 6342  15.170  11.794  10.052 -0.0094 -0.2069  0.0083
  397loPI   C1A 6343  14.808  11.416   9.960 -0.2565 -0.0864  0.1575
  397loPI   C2A 6344  14.658  11.335   9.558 -0.1672  0.2636 -0.2604
  397loPI   C3A 6345  14.683  11.318   9.195  0.1505  0.2637 -0.2162
  397loPI   C4A 6346  14.736  11.038   8.900  0.0137 -0.0735 -0.0100
  397loPI   C5A 6347  14.510  11.042   8.432  0.0420 -0.0926  0.0986
  397loPI   C6A 6348  14.383  10.939   7.970 -0.1523 -0.0859 -0.1271
  397loPI   C1B 6349  15.051  11.761   9.613 -0.0652 -0.0356  0.0248
  397loPI   C2B 6350  14.953  11.859   9.202 -0.0955  0.0902  0.1637
  397loPI   C3B 6351  14.992  11.933   8.802 -0.0680  0.1030 -0.0885
  397loPI   C4B 6352  14.969  12.070   8.358  0.2616 -0.2691  0.2305
  398loPI    C1 6353   1.008   8.391  10.514  0.1186  0.0747  0.1458
  398loPI    C2 6354   0.641   8.234  10.535  0.0572  0.2300  0.2545
  398loPI    C3 6355   0.829   8.348  10.869  0.2512  0.0468  0.2098
  398loPI   PO4 6356   1.130   8.162  10.330 -0.1308 -0.1520  0.2114
  398loPI   GL1 6357   0.989   8.034  10.046  0.4581  0.1080 -0.1522
  398loPI   GL2 6358   0.697   8.170   9.911 -0.1018  0.2279  0.0471
  398loPI   C1A 6359   0.914   7.679   9.896  0.2230 -0.0438 -0.0678
  398loPI   C2A 6360   0.835   7.582   9.421 -0.1211 -0.0792 -0.0233
  398loPI   C3A 6361   0.829   7.552   9.009  0.0955  0.3100 -0.2032
  398loPI   C4A 6362   0.807   7.652   8.503  0.1126 -0.0877 -0.1389
  398loPI   C5A 6363   0.550   7.576   8.152 -0.1339 -0.2544 -0.0818
  398loPI   C6A 6364   0.528   7.847   7.791  0.1803  0.0907 -0.0764
  398loPI   C1B 6365   0.544   8.346   9.589 -0.2156 -0.1356 -0.1136
  398loPI   C2B 6366   0.682   8.560   9.215 -0.0477 -0.2580  0.4779
  398loPI   C3B 6367   0.741   8.660   8.807 -0.0510  0.0330  0.2653
  398loPI   C4B 6368   0.578   8.641   8.394 -0.3140  0.0162  0.0441
  399loPI    C1 6369  10.223   7.101  10.400  0.0498  0.0743  0.1841
  399loPI    C2 6370   9.883   7.096  10.611 -0.0585  0.0791  0.0116
  399loPI    C3 6371  10.225   7.212  10.784 -0.1345  0.0247  0.2000
  399loPI   PO4 6372  10.217   6.887  10.246 -0.1354 -0.1356 -0.0116
  399loPI   GL1 6373   9.914   6.851  10.022  0.1779 -0.0717 -0.0862
  399loPI   GL2 6374   9.669   6.994  10.190  0.0201 -0.2340 -0.0746
  399loPI   C1A 6375   9.892   6.849   9.649 -0.2726 -0.2637  0.0552
  399loPI   C2A 6376   9.874   6.969   9.188 -0.0589  0.2457  0.1252
  399loPI   C3A 6377   9.845   7.072   8.782 -0.0646  0.0179  0.4657
  399loPI   C4A 6378  10.135   7.275   8.409  0.2544 -0.0523 -0.0881
  399loPI   C5A 6379  10.480   7.260   8.127  0.0070  0.0439 -0.1485
  399loPI   C6A 6380  10.874   7.209   7.907  0.0328  0.0982 -0.2627
  399loPI   C1B 6381   9.772   7.316   9.817 -0.0653 -0.1313 -0.1585
  399loPI   C2B 6382   9.618   7.303   9.379  0.0283 -0.0470 -0.3671
  399loPI   C3B 6383   9.740   7.496   9.066  0.1022 -0.2926  0.1652
  399loPI   C4B 6384  10.052   7.662   8.893 -0.3930 -0.1992 -0.1229
  400loPI    C1 6385  15.785   8.955  10.889  0.0081  0.1818 -0.2240
  400loPI    C2 6386  15.963   9.233  11.115  0.0182  0.1525 -0.1957
  400loPI    C3 6387  15.583   9.281  11.000 -0.0564  0.0650  0.0094
  400loPI   PO4 6388  15.864   8.885  10.608  0.2518 -0.1286 -0.1338
  400loPI   GL1 6389  16.133   9.120  10.290  0.4175 -0.0231  0.0946
  400loPI   GL2 6390  16.248   8.822  10.228  0.0754  0.0467  0.1148
  400loPI   C1A 6391  16.029   9.157   9.796 -0.1688  0.0416  0.1102
  400loPI   C2A 6392  16.187   9.025   9.411 -0.1820  0.1137 -0.2523
  400loPI   C3A 6393  16.126   9.149   8.985  0.0046 -0.0457 -0.1281
  400loPI   C4A 6394  15.925   8.882   8.572  0.0235  0.0240 -0.2584
  400loPI   C5A 6395  15.753   8.564   8.321 -0.0460  0.2254 -0.0966
  400loPI   C6A 6396  15.514   8.235   8.090  0.0201 -0.0098 -0.0323
  400loPI   C1B 6397  15.926   8.697   9.974 -0.1192 -0.0955 -0.1995
  400loPI   C2B 6398  15.838   8.708   9.558  0.3827 -0.3065 -0.3227
  400loPI   C3B 6399  15.802   8.728   9.123 -0.2659 -0.1888 -0.0935
  400loPI   C4B 6400  15.561   8.720   8.846  0.1274  0.3492 -0.2476
  401loPI    C1 6401   8.062   9.296  10.804  0.1672 -0.1223  0.5078
  401loPI    C2 6402   8.045   9.689  10.730 -0.0298 -0.2053  0.0835
  401loPI    C3 6403   7.858   9.537  11.049  0.2506  0.0726  0.3880
  401loPI   PO4 6404   7.919   9.165  10.520 -0.1668 -0.1974 -0.0700
  401loPI   GL1 6405   7.811   9.200  10.065  0.0015  0.2264 -0.1011
  401loPI   GL2 6406   8.165   9.281   9.853  0.0644 -0.0664  0.0565
  401loPI   C1A 6407   7.714   9.236   9.633 -0.1810 -0.0960 -0.2914
  401loPI   C2A 6408   7.671   9.293   9.213 -0.0572  0.1606  0.0259
  401loPI   C3A 6409   7.623   9.217   8.851  0.0378  0.2363 -0.0911
  401loPI   C4A 6410   7.763   9.324   8.432  0.1980  0.1004 -0.0436
  401loPI   C5A 6411   7.554   9.373   8.112 -0.3180 -0.0810  0.0252
  401loPI   C6A 6412   7.169   9.343   7.770 -0.0017  0.0250 -0.0167
  401loPI   C1B 6413   8.265   9.136   9.479  0.2656  0.2860  0.2157
  401loPI   C2B 6414   8.135   9.095   9.049  0.1323 -0.1041 -0.0977
  401loPI   C3B 6415   8.194   9.186   8.677 -0.0972  0.1715 -0.0777
  401loPI   C4B 6416   8.334   9.214   8.322 -0.3106  0.1057  0.0423
  402loPI    C1 6417   1.032  12.163  10.433  0.1413  0.1181 -0.0798
  402loPI    C2 6418   1.044  11.763  10.435 -0.2360  0.1031  0.1469
  402loPI    C3 6419   1.332  11.972  10.616 -0.0401 -0.0650  0.0328
  402loPI   PO4 6420   1.036  12.210  10.186  0.1389 -0.1339 -0.0027
  402loPI   GL1 6421   0.785  12.512   9.924  0.0534  0.0735  0.2101
  402loPI   GL2 6422   0.964  12.724   9.869  0.1068  0.0634  0.1228
  402loPI   C1A 6423   1.075  12.348   9.560  0.3821  0.0159  0.1384
  402loPI   C2A 6424   0.912  12.474   9.133 -0.1820 -0.2103  0.1283
  402loPI   C3A 6425   0.884  12.585   8.678 -0.3967 -0.0858 -0.3524
  402loPI   C4A 6426   0.879  12.631   8.273  0.1845  0.1096  0.0219
  402loPI   C5A 6427   0.837  12.763   7.809  0.2854 -0.2991 -0.0976
  402loPI   C6A 6428   0.700  12.774   7.385 -0.3001 -0.0301  0.2045
  402loPI   C1B 6429   0.872  12.826   9.444 -0.2304  0.0129  0.1633
  402loPI   C2B 6430   0.809  12.931   9.035  0.1247 -0.2089  0.0046
  402loPI   C3B 6431   0.681  13.000   8.558 -0.0781  0.1147  0.0689
  402loPI   C4B 6432   0.379  12.969   8.212 -0.0324  0.0924 -0.2097
  403loPI    C1 6433   3.741   4.073  10.662  0.1349 -0.0167  0.2347
  403loPI    C2 6434   3.659   4.192  11.035  0.1048  0.2822  0.1358
  403loPI    C3 6435   3.512   4.395  10.723  0.0493 -0.0222 -0.0411
  403loPI   PO4 6436   3.948   4.023  10.639  0.1226  0.0961 -0.1133
  403loPI   GL1 6437   4.149   4.015  10.299 -0.0388  0.2175  0.0160
  403loPI   GL2 6438   4.121   3.686  10.214 -0.0048 -0.0594 -0.1768
  403loPI   C1A 6439   4.167   4.038   9.821 -0.1390 -0.0480  0.3628
  403loPI   C2A 6440   4.006   4.049   9.364  0.2987 -0.0623  0.3587
  403loPI   C3A 6441   4.033   3.923   9.038  0.0977 -0.0835  0.0540
  403loPI   C4A 6442   3.943   3.916   8.672 -0.1145  0.4793 -0.1231
  403loPI   C5A 6443   3.933   3.879   8.272 -0.0453 -0.2677  0.1205
  403loPI   C6A 6444   4.045   3.813   7.827  0.3886  0.2235  0.2046
  403loPI   C1B 6445   3.954   3.560   9.781  0.0391 -0.1370  0.3680
  403loPI   C2B 6446   4.097   3.569   9.366 -0.1269  0.2169 -0.0857
  403loPI   C3B 6447   4.050   3.469   8.870  0.2803 -0.0493 -0.1659
  403loPI   C4B 6448   4.072   3.474   8.508  0.1810  0.0667  0.0158
  404loPI    C1 6449   7.335   0.995  10.729  0.2757 -0.0081  0.0673
  404loPI    C2 6450   7.229   0.979  11.115 -0.2055 -0.0046 -0.0588
  404loPI    C3 6451   7.398   0.661  10.941 -0.0569 -0.0325  0.1336
  404loPI   PO4 6452   7.389   1.235  10.660  0.1681  0.1620 -0.0535
  404loPI   GL1 6453   7.405   1.257  10.206  0.0857  0.3457  0.3079
  404loPI   GL2 6454   7.294   1.510  10.113 -0.0365 -0.0513 -0.1704
  404loPI   C1A 6455   7.507   1.063   9.903  0.1262 -0.2468 -0.2587
  404loPI   C2A 6456   7.560   1.108   9.505  0.1595  0.3645  0.2302
  404loPI   C3A 6457   7.676   1.288   9.079  0.0093  0.2105 -0.0017
  404loPI   C4A 6458   7.645   1.588   8.791 -0.0537 -0.1513  0.1667
  404loPI   C5A 6459   7.572   1.874   8.511 -0.0436  0.4027 -0.0658
  404loPI   C6A 6460   7.295   2.119   8.336 -0.0885  0.1027 -0.1082
  404loPI   C1B 6461   7.423   1.597   9.786  0.0411 -0.1498  0.2118
  404loPI   C2B 6462   7.569   1.633   9.424 -0.0042  0.1305 -0.0780
  404loPI   C3B 6463   7.456   1.961   9.052  0.2478  0.1370  0.1783
  404loPI   C4B 6464   7.685   2.266   8.787 -0.2767  0.1919  0.1871
  405loPI    C1 6465  10.117   3.763  10.715 -0.1333 -0.2811 -0.1149
  405loPI    C2 6466  10.226   3.658  11.085 -0.0049  0.0389 -0.0584
  405loPI    C3 6467   9.877   3.532  10.935  0.0845 -0.3514  0.0519
  405loPI   PO4 6468  10.463   3.742  10.640 -0.1620  0.4417 -0.3113
  405loPI   GL1 6469  10.548   3.450  10.314  0.1027 -0.0790 -0.1966
  405loPI   GL2 6470  10.673   3.745  10.197  0.2820 -0.2281 -0.0358
  405loPI   C1A 6471  10.317   3.328   9.888 -0.0892 -0.0176 -0.1165
  405loPI   C2A 6472   9.988   3.071   9.650 -0.2359 -0.0757 -0.0691
  405loPI   C3A 6473  10.145   2.760   9.367  0.0968 -0.0922  0.2144
  405loPI   C4A 6474  10.343   2.768   9.029 -0.0670  0.0799 -0.1174
  405loPI   C5A 6475  10.312   2.801   8.622  0.5074 -0.1000 -0.0521
  405loPI   C6A 6476  10.659   2.646   8.317  0.0448 -0.0469 -0.1255
  405loPI   C1B 6477  10.650   3.704   9.778 -0.1265  0.0446  0.1018
  405loPI   C2B 6478  10.665   3.728   9.355 -0.0498 -0.1186  0.0486
  405loPI   C3B 6479  10.724   3.616   8.971 -0.1276  0.0412 -0.1136
  405loPI   C4B 6480  10.968   3.431   8.614  0.1831 -0.1651 -0.2525
  406POPI    C1 6481  11.997   2.014  11.021  0.0075 -0.0929  0.1004
  406POPI    C2 6482  11.618   1.956  11.133 -0.0282  0.1720  0.1225
  406POPI    C3 6483  11.916   1.792  11.344 -0.1286 -0.0314  0.1090
  406POPI   PO4 6484  11.945   1.972  10.806 -0.0473 -0.1144 -0.0691
  406POPI   GL1 6485  11.803   2.190  10.395  0.0504  0.0400 -0.0573
  406POPI   GL2 6486  11.519   2.160  10.565 -0.4280  0.0674  0.3411
  406POPI   C1A 6487  11.881   2.066   9.957 -0.1029 -0.0402 -0.0205
  406POPI   D2A 6488  11.836   1.879   9.487 -0.0174 -0.1904 -0.0310
  406POPI   C3A 6489  11.782   1.906   9.097 -0.0308  0.0148 -0.2237
  406POPI   C4A 6490  11.605   1.806   8.753  0.0369  0.1412 -0.0884
  406POPI   C1B 6491  11.454   1.986  10.137  0.4162 -0.1095  0.2327
  406POPI   C2B 6492  11.429   1.965   9.683  0.0667  0.0013  0.1406
  406POPI   C3B 6493  11.340   2.157   9.301  0.2114 -0.0425  0.2457
  406POPI   C4B 6494  11.140   2.041   8.925  0.1681 -0.1704 -0.0555
  407POPI    C1 6495   6.261   6.645  10.791  0.0018  0.1018 -0.0979
  407POPI    C2 6496   6.135   6.869  11.097 -0.0999 -0.0941  0.0047
  407POPI    C3 6497   6.254   6.492  11.160  0.1166 -0.0552 -0.1595
  407POPI   PO4 6498   6.334   6.901  10.650  0.1636 -0.0663 -0.1637
  407POPI   GL1 6499   6.346   6.773  10.284  0.1870  0.0514  0.1041
  407POPI   GL2 6500   6.528   6.625  10.096  0.1476 -0.0370  0.0680
  407POPI   C1A 6501   6.091   6.845  10.054 -0.3503 -0.2011  0.3251
  407POPI   D2A 6502   5.640   6.716   9.849 -0.0336  0.0902  0.0360
  407POPI   C3A 6503   5.655   6.637   9.459  0.0151  0.0196 -0.0952
  407POPI   C4A 6504   5.698   6.473   9.040  0.0583 -0.0789  0.2633
  407POPI   C1B 6505   6.475   6.892   9.767 -0.0742 -0.0401 -0.2974
  407POPI   C2B 6506   6.569   6.966   9.333 -0.1318 -0.1438  0.4049
  407POPI   C3B 6507   6.788   6.771   8.980 -0.0858 -0.0424 -0.1867
  407POPI   C4B 6508   6.764   6.386   8.833 -0.0242  0.0018 -0.0258
  408POPI    C1 6509  10.069  17.403  10.626 -0.1296 -0.0238  0.0328
  408POPI    C2 6510  10.216  17.044  10.530 -0.0164  0.0277  0.0112
  408POPI    C3 6511  10.003  17.090  10.866  0.1414 -0.0174  0.1182
  408POPI   PO4 6512  10.139  17.538  10.439 -0.0929  0.1353  0.2532
  408POPI   GL1 6513  10.202  17.332  10.096  0.1684  0.0459 -0.0995
  408POPI   GL2 6514  10.391  17.467   9.954  0.1871 -0.1085  0.0229
  408POPI   C1A 6515  10.043  17.166   9.745  0.1769 -0.0426  0.0048
  408POPI   D2A 6516  10.037  17.068   9.283 -0.0248 -0.1161  0.2780
  408POPI   C3A 6517  10.223  17.120   8.842 -0.1590  0.2014  0.0273
  408POPI   C4A 6518  10.507  17.243   8.515 -0.0074  0.3642  0.0338
  408POPI   C1B 6519  10.339  17.487   9.548  0.0531  0.1225 -0.0120
  408POPI   C2B 6520  10.283  17.553   9.166 -0.0877  0.4087 -0.0386
  408POPI   C3B 6521  10.569  17.508   8.890 -0.1962 -0.2010  0.0419
  408POPI   C4B 6522  11.029  17.796   8.922  0.2975 -0.1072 -0.2808
  409POPI    C1 6523   5.426  16.269  10.270 -0.3453 -0.0677 -0.0448
  409POPI    C2 6524   5.385  16.651  10.381  0.0095 -0.0028 -0.1230
  409POPI    C3 6525   5.657  16.419  10.560 -0.2006 -0.2198 -0.0796
  409POPI   PO4 6526   5.442  16.252  10.080 -0.1044 -0.0142  0.0849
  409POPI   GL1 6527   5.476  16.544   9.774  0.0704  0.2444  0.1420
  409POPI   GL2 6528   5.687  16.242   9.606 -0.1489 -0.1172 -0.0980
  409POPI   C1A 6529   5.319  16.722   9.438  0.0346 -0.0837 -0.0172
  409POPI   D2A 6530   5.445  16.811   9.042  0.2403 -0.1085 -0.2259
  409POPI   C3A 6531   5.557  16.778   8.612  0.2284  0.1781  0.0651
  409POPI   C4A 6532   5.558  16.772   8.157 -0.1274  0.2596 -0.1910
  409POPI   C1B 6533   5.673  16.412   9.162 -0.1144 -0.1993 -0.0911
  409POPI   C2B 6534   5.733  16.276   8.812  0.1569 -0.1554 -0.2732
  409POPI   C3B 6535   5.749  16.335   8.356  0.0861  0.0798  0.3469
  409POPI   C4B 6536   6.030  16.605   8.079  0.0314 -0.1991 -0.2180
  410POPI    C1 6537   4.683  12.027  10.209 -0.1568  0.1012 -0.1615
  410POPI    C2 6538   4.591  11.657  10.329  0.0422  0.0209 -0.2520
  410POPI    C3 6539   4.405  11.972  10.491  0.0775 -0.1022  0.0347
  410POPI   PO4 6540   4.936  11.996  10.170  0.0683  0.2277  0.0014
  410POPI   GL1 6541   5.241  11.996   9.964 -0.1657  0.0227  0.1928
  410POPI   GL2 6542   5.523  11.806   9.812 -0.2102 -0.2138  0.0717
  410POPI   C1A 6543   5.169  12.038   9.511 -0.0145 -0.2254  0.1235
  410POPI   D2A 6544   4.880  11.943   9.191 -0.2314 -0.1554 -0.1698
  410POPI   C3A 6545   4.529  12.003   9.058  0.2783 -0.1047 -0.3140
  410POPI   C4A 6546   4.127  11.984   8.900 -0.1704 -0.1403  0.1232
  410POPI   C1B 6547   5.547  11.736   9.345 -0.0505 -0.1309 -0.0880
  410POPI   C2B 6548   5.512  11.827   8.953 -0.1724  0.1322  0.0975
  410POPI   C3B 6549   5.177  12.013   8.830  0.3438 -0.0426 -0.1229
  410POPI   C4B 6550   4.885  12.271   8.774 -0.4465  0.2742 -0.0279
  411POPI    C1 6551  17.850   8.882  10.496  0.0553  0.1733 -0.0605
  411POPI    C2 6552  17.935   8.621  10.786 -0.1950  0.0822 -0.0660
  411POPI    C3 6553  17.607   8.848  10.811 -0.1465  0.1701 -0.2143
  411POPI   PO4 6554  17.940   8.661  10.246 -0.2143 -0.0068 -0.2623
  411POPI   GL1 6555  17.781   8.391   9.923  0.1354  0.1568 -0.0706
  411POPI   GL2 6556  17.890   8.195   9.983  0.4113 -0.2724  0.1759
  411POPI   C1A 6557  17.695   8.628   9.597 -0.0795 -0.2395 -0.2504
  411POPI   D2A 6558  17.702   8.867   9.277 -0.0911  0.1515  0.2033
  411POPI   C3A 6559  17.738   8.750   8.809  0.1112 -0.1511  0.1248
  411POPI   C4A 6560  17.815   8.580   8.390  0.1614 -0.2155 -0.1370
  411POPI   C1B 6561  18.001   8.139   9.585  0.1629  0.0911  0.0657
  411POPI   C2B 6562  17.853   8.309   9.203  0.0006 -0.0055 -0.2041
  411POPI   C3B 6563  17.921   8.318   8.792  0.1263  0.1736  0.0871
  411POPI   C4B 6564  17.991   8.122   8.485 -0.0025  0.1305  0.1413
  412POPI    C1 6565   1.083   0.821  10.308  0.1124  0.0321 -0.1267
  412POPI    C2 6566   1.450   0.804  10.466  0.0304  0.0434  0.0679
  412POPI    C3 6567   1.141   0.922  10.690 -0.0840  0.0860 -0.1101
  412POPI   PO4 6568   1.122   0.880  10.034 -0.2710 -0.1619  0.2356
  412POPI   GL1 6569   1.121   1.217   9.709 -0.1320 -0.0685  0.2948
  412POPI   GL2 6570   0.854   1.093   9.579 -0.0397  0.2993  0.0546
  412POPI   C1A 6571   1.365   1.448   9.437 -0.0768 -0.1244 -0.2358
  412POPI   D2A 6572   1.398   1.516   9.061 -0.2925  0.1190  0.0016
  412POPI   C3A 6573   1.379   1.931   9.242 -0.2515  0.1499  0.0686
  412POPI   C4A 6574   1.338   2.210   9.556  0.3227 -0.0537 -0.3013
  412POPI   C1B 6575   1.003   1.162   9.180 -0.0045 -0.1566 -0.2386
  412POPI   C2B 6576   1.104   1.117   8.805 -0.2597  0.1196  0.2156
  412POPI   C3B 6577   1.318   1.283   8.450  0.3609 -0.0316 -0.0674
  412POPI   C4B 6578   1.480   1.323   7.914 -0.1383  0.1151  0.1037
  413POPI    C1 6579   2.584   6.606  10.322 -0.1563 -0.0600 -0.1226
  413POPI    C2 6580   2.896   6.606  10.071 -0.0046 -0.1001  0.0635
  413POPI    C3 6581   2.693   6.268  10.137 -0.1654 -0.0479 -0.1502
  413POPI   PO4 6582   2.463   6.808  10.187  0.2545  0.2029 -0.0622
  413POPI   GL1 6583   2.360   6.666   9.843  0.0828  0.1426 -0.3205
  413POPI   GL2 6584   2.038   6.734   9.951 -0.0410  0.1766  0.1515
  413POPI   C1A 6585   2.384   6.253   9.593  0.0848  0.1625 -0.1516
  413POPI   D2A 6586   2.243   6.188   9.185  0.0116  0.1552 -0.0015
  413POPI   C3A 6587   2.328   6.257   8.814 -0.2507  0.0793 -0.0295
  413POPI   C4A 6588   2.554   6.509   8.460 -0.0151 -0.0451  0.1884
  413POPI   C1B 6589   2.079   6.636   9.452  0.0824  0.3429  0.0009
  413POPI   C2B 6590   1.999   6.652   9.010 -0.0749  0.1577  0.0649
  413POPI   C3B 6591   2.007   6.651   8.499  0.1878  0.1861 -0.0805
  413POPI   C4B 6592   1.832   6.823   8.187  0.3272 -0.0540 -0.0769
  414POPI    C1 6593   1.714  15.723  10.484  0.2861 -0.1591 -0.2483
  414POPI    C2 6594   1.885  15.831  10.829 -0.2015 -0.0694 -0.0251
  414POPI    C3 6595   1.803  15.446  10.759 -0.1924 -0.0760  0.0008
  414POPI   PO4 6596   1.779  15.909  10.353 -0.1374 -0.2413 -0.3041
  414POPI   GL1 6597   1.714  15.868   9.949  0.0067  0.1457 -0.0570
  414POPI   GL2 6598   1.624  15.556   9.965 -0.0614  0.0111  0.2267
  414POPI   C1A 6599   1.933  15.859   9.618  0.0943  0.2436 -0.0985
  414POPI   D2A 6600   2.185  16.116   9.438 -0.6284  0.0879 -0.1423
  414POPI   C3A 6601   2.256  16.253   8.984  0.0092 -0.1318  0.0535
  414POPI   C4A 6602   2.450  16.325   8.588  0.0974  0.0119  0.2263
  414POPI   C1B 6603   1.681  15.401   9.616  0.0273  0.0095  0.0231
  414POPI   C2B 6604   1.732  15.453   9.133  0.3978  0.3611  0.0768
  414POPI   C3B 6605   1.767  15.513   8.646 -0.0983  0.0615 -0.1533
  414POPI   C4B 6606   1.678  15.834   8.250 -0.0688  0.2002  0.0936
  415POPI    C1 6607  11.332   2.361  11.243 -0.0106  0.0817 -0.2809
  415POPI    C2 6608  11.142   2.017  11.319  0.1014  0.0238 -0.2615
  415POPI    C3 6609  11.238   2.264  11.619 -0.1531  0.1657 -0.2940
  415POPI   PO4 6610  11.227   2.340  10.975  0.0884 -0.3471  0.0863
  415POPI   GL1 6611  11.045   2.358  10.581  0.1183  0.3166  0.0512
  415POPI   GL2 6612  10.754   2.394  10.511 -0.2471  0.2120 -0.1026
  415POPI   C1A 6613  11.086   2.338  10.145 -0.1537  0.0676  0.1096
  415POPI   D2A 6614  11.101   2.374   9.713  0.1995 -0.0301  0.0571
  415POPI   C3A 6615  10.701   2.233   9.524 -0.2364 -0.0941 -0.3510
  415POPI   C4A 6616  10.409   2.335   9.319  0.1443 -0.1780  0.1986
  415POPI   C1B 6617  10.568   2.288  10.035 -0.4344 -0.0595  0.3899
  415POPI   C2B 6618  10.177   2.451   9.840 -0.0392  0.0156  0.0679
  415POPI   C3B 6619   9.926   2.367   9.545 -0.1105  0.0502 -0.1643
  415POPI   C4B 6620   9.994   2.214   9.151  0.1926 -0.2405  0.2563
  416POPI    C1 6621  12.284   9.655  10.858 -0.0315 -0.0891  0.0577
  416POPI    C2 6622  12.629   9.765  11.028 -0.0489  0.1620 -0.0647
  416POPI    C3 6623  12.340   9.601  11.250  0.1647 -0.0946  0.0300
  416POPI   PO4 6624  12.313   9.443  10.642  0.0721  0.0987  0.0934
  416POPI   GL1 6625  12.222   9.183  10.338 -0.1948  0.1232 -0.1444
  416POPI   GL2 6626  11.955   9.035  10.037 -0.1296 -0.0722  0.0136
  416POPI   C1A 6627  12.404   9.226   9.932  0.0326 -0.0011 -0.0346
  416POPI   D2A 6628  12.619   9.091   9.508 -0.0150  0.0239 -0.0775
  416POPI   C3A 6629  12.694   9.228   9.138 -0.1846  0.0216  0.2184
  416POPI   C4A 6630  12.724   9.350   8.698 -0.1088  0.0323  0.0856
  416POPI   C1B 6631  11.822   9.126   9.601  0.1064 -0.3308 -0.1009
  416POPI   C2B 6632  11.759   8.985   9.218  0.1452 -0.1488 -0.1147
  416POPI   C3B 6633  11.800   8.866   8.804 -0.0488 -0.1257  0.2004
  416POPI   C4B 6634  11.960   8.843   8.375 -0.0946 -0.0625 -0.0917
  417POPI    C1 6635  11.194   1.474  11.333 -0.0873  0.0042  0.1126
  417POPI    C2 6636  10.905   1.218  11.439 -0.3884  0.3419  0.1238
  417POPI    C3 6637  11.172   1.343  11.710 -0.0132 -0.2336  0.0364
  417POPI   PO4 6638  11.264   1.413  11.070  0.3025  0.1721 -0.2400
  417POPI   GL1 6639  11.104   1.409  10.668 -0.1210  0.0897  0.1494
  417POPI   GL2 6640  11.028   1.061  10.511  0.2735 -0.2602  0.3383
  417POPI   C1A 6641  11.279   1.499  10.238 -0.0127  0.0664  0.2009
  417POPI   D2A 6642  11.220   1.504   9.823  0.0118 -0.2981 -0.2409
  417POPI   C3A 6643  11.567   1.352   9.581  0.0590 -0.0548  0.2367
  417POPI   C4A 6644  11.710   1.322   9.172  0.1452  0.2389  0.1717
  417POPI   C1B 6645  11.025   1.142  10.079  0.1529 -0.0165 -0.4008
  417POPI   C2B 6646  11.099   1.072   9.663 -0.0007  0.0361 -0.1763
  417POPI   C3B 6647  11.156   1.189   9.258 -0.3170 -0.4804 -0.4925
  417POPI   C4B 6648  10.983   1.171   8.919  0.1199  0.2610 -0.3055
  418POPI    C1 6649   1.093  10.638  10.469  0.0413 -0.1121 -0.0610
  418POPI    C2 6650   0.872  10.362  10.657  0.1637 -0.1496  0.0288
  418POPI    C3 6651   1.183  10.531  10.844  0.1168  0.0166 -0.0419
  418POPI   PO4 6652   1.064  10.579  10.168  0.0150  0.0088  0.0039
  418POPI   GL1 6653   1.150  10.401   9.817 -0.0396 -0.0327  0.0861
  418POPI   GL2 6654   1.248  10.129   9.694  0.1838 -0.1919  0.2688
  418POPI   C1A 6655   1.111  10.630   9.480 -0.1659 -0.0312 -0.0865
  418POPI   D2A 6656   0.925  10.793   9.067  0.0302 -0.0715 -0.0975
  418POPI   C3A 6657   1.171  10.734   8.753 -0.0713  0.0153  0.0203
  418POPI   C4A 6658   1.189  10.697   8.365  0.0021  0.0778  0.1006
  418POPI   C1B 6659   1.480  10.285   9.408  0.1383 -0.0656 -0.0430
  418POPI   C2B 6660   1.331  10.343   9.070 -0.0578  0.4485 -0.3493
  418POPI   C3B 6661   1.463  10.330   8.748 -0.0085  0.1016  0.2505
  418POPI   C4B 6662   1.417  10.206   8.411  0.0965 -0.0553 -0.1316
  419POPI    C1 6663  13.070   0.652  10.659 -0.0339 -0.0735 -0.1043
  419POPI    C2 6664  13.254   0.549  10.998 -0.4248 -0.1043  0.1047
  419POPI    C3 6665  13.249   0.296  10.689 -0.2278 -0.1535  0.1402
  419POPI   PO4 6666  13.230   0.935  10.518  0.2346  0.0946 -0.1580
  419POPI   GL1 6667  12.912   1.181  10.255 -0.1983  0.1141  0.3961
  419POPI   GL2 6668  13.194   1.235  10.132  0.1288 -0.4730 -0.3881
  419POPI   C1A 6669  12.684   1.081   9.946  0.1339 -0.2865  0.1691
  419POPI   D2A 6670  12.542   1.090   9.471 -0.0390  0.2625 -0.1123
  419POPI   C3A 6671  12.686   1.267   9.050 -0.0635 -0.1447  0.0123
  419POPI   C4A 6672  12.523   1.231   8.631  0.0931 -0.0935 -0.0461
  419POPI   C1B 6673  13.074   1.216   9.687 -0.0827  0.0364 -0.0984
  419POPI   C2B 6674  13.107   1.106   9.238 -0.1075 -0.0748  0.0666
  419POPI   C3B 6675  13.225   0.969   8.831  0.1905 -0.0177 -0.1160
  419POPI   C4B 6676  13.003   0.999   8.530 -0.0138  0.1745 -0.0646
  420POPI    C1 6677   5.999  11.613   9.954 -0.1629  0.2435 -0.0144
  420POPI    C2 6678   6.093  11.642  10.342 -0.0295 -0.0758 -0.0195
  420POPI    C3 6679   6.281  11.870  10.072 -0.0551  0.0783  0.0916
  420POPI   PO4 6680   5.938  11.275   9.897 -0.0662 -0.1407 -0.0933
  420POPI   GL1 6681   5.820  11.322   9.540 -0.0365 -0.0295 -0.1114
  420POPI   GL2 6682   5.491  11.260   9.672  0.1445  0.1053  0.0185
  420POPI   C1A 6683   5.821  11.395   9.056  0.3789 -0.1604 -0.2509
  420POPI   D2A 6684   5.866  11.309   8.712 -0.0450  0.2481  0.0034
  420POPI   C3A 6685   5.625  11.696   8.452 -0.0750  0.1345 -0.0904
  420POPI   C4A 6686   5.664  12.013   8.095 -0.0475 -0.2701 -0.0257
  420POPI   C1B 6687   5.529  10.989   9.190 -0.2508  0.2785  0.1011
  420POPI   C2B 6688   5.586  10.919   8.822 -0.2232 -0.1282 -0.0720
  420POPI   C3B 6689   5.614  10.788   8.461  0.1269 -0.1708  0.1334
  420POPI   C4B 6690   5.494  10.857   8.012 -0.0957 -0.2162 -0.1831
  421POPI    C1 6691   8.654   3.399  11.116 -0.0868  0.0809 -0.0453
  421POPI    C2 6692   9.034   3.274  11.127 -0.1213 -0.0240 -0.0272
  421POPI    C3 6693   8.800   3.234  11.450 -0.1438  0.0541 -0.0335
  421POPI   PO4 6694   8.514   3.266  10.931 -0.1968  0.0651 -0.0045
  421POPI   GL1 6695   8.507   3.339  10.515 -0.0589  0.3771  0.0333
  421POPI   GL2 6696   8.295   3.205  10.294 -0.1303  0.1802 -0.2801
  421POPI   C1A 6697   8.792   3.315  10.247 -0.0597  0.0213 -0.0032
  421POPI   D2A 6698   8.902   3.215   9.745 -0.0609  0.1028  0.0827
  421POPI   C3A 6699   9.186   3.017   9.395  0.2819 -0.3659 -0.0115
  421POPI   C4A 6700   9.195   2.651   9.082 -0.1071  0.0096  0.2352
  421POPI   C1B 6701   8.356   3.218   9.823 -0.0025 -0.0374  0.0257
  421POPI   C2B 6702   8.319   3.167   9.341 -0.1467  0.3302 -0.2409
  421POPI   C3B 6703   8.337   2.901   9.093 -0.2378 -0.2198  0.0764
  421POPI   C4B 6704   8.476   2.821   8.642 -0.2360 -0.1066  0.2353
  422POPI    C1 6705   7.542   5.623  10.530 -0.1901  0.2223  0.1274
  422POPI    C2 6706   7.382   5.316  10.330  0.1249  0.1924 -0.0865
  422POPI    C3 6707   7.445   5.287  10.724  0.0870  0.0108 -0.0928
  422POPI   PO4 6708   7.746   5.748  10.398  0.1842 -0.2406  0.5287
  422POPI   GL1 6709   7.813   5.473  10.100  0.2274 -0.1206  0.0554
  422POPI   GL2 6710   8.092   5.378  10.080  0.1502  0.1941 -0.0910
  422POPI   C1A 6711   7.427   5.436   9.853  0.1562  0.2065 -0.1260
  422POPI   D2A 6712   7.396   5.414   9.424 -0.0541 -0.1057 -0.0219
  422POPI   C3A 6713   7.699   5.452   9.119 -0.1650  0.0557 -0.1177
  422POPI   C4A 6714   7.727   5.180   8.781 -0.1704  0.1259  0.4397
  422POPI   C1B 6715   8.377   5.460   9.740 -0.1015 -0.0552 -0.3853
  422POPI   C2B 6716   8.348   5.674   9.337 -0.2657  0.3692 -0.0711
  422POPI   C3B 6717   7.974   5.874   9.081 -0.1195 -0.4551 -0.0588
  422POPI   C4B 6718   7.469   5.864   9.029 -0.1846 -0.0793  0.0638
  423POPI    C1 6719   6.405  13.206  10.431 -0.0736 -0.0953  0.3747
  423POPI    C2 6720   6.142  12.906  10.429  0.1244 -0.2711  0.3599
  423POPI    C3 6721   6.533  12.829  10.392  0.1759 -0.0101  0.3465
  423POPI   PO4 6722   6.302  13.414  10.251 -0.1302  0.1515 -0.0490
  423POPI   GL1 6723   6.212  13.150   9.889 -0.1829  0.0398  0.2464
  423POPI   GL2 6724   5.878  12.960   9.886 -0.0222  0.0002 -0.0760
  423POPI   C1A 6725   6.339  13.242   9.552  0.0912 -0.0479  0.2077
  423POPI   D2A 6726   6.470  13.043   9.278  0.0994  0.1482  0.2264
  423POPI   C3A 6727   6.387  12.819   8.935 -0.1724  0.0579 -0.0201
  423POPI   C4A 6728   6.434  12.721   8.471 -0.1287 -0.0629  0.3450
  423POPI   C1B 6729   6.020  12.855   9.470  0.1771 -0.0192  0.2056
  423POPI   C2B 6730   6.013  13.134   9.048  0.1682  0.1075 -0.0812
  423POPI   C3B 6731   6.108  13.188   8.709 -0.1026  0.2098 -0.1152
  423POPI   C4B 6732   6.005  12.938   8.320  0.1529 -0.0588  0.0185
  424POPI    C1 6733   2.158   3.230  10.397  0.1657 -0.1431 -0.2088
  424POPI    C2 6734   1.892   3.209  10.100 -0.2873  0.0369  0.1711
  424POPI    C3 6735   1.935   3.549  10.306 -0.1028 -0.1343  0.4209
  424POPI   PO4 6736   2.369   3.035  10.209  0.3087  0.2712 -0.0854
  424POPI   GL1 6737   2.504   2.831   9.871  0.0117 -0.1162  0.1781
  424POPI   GL2 6738   2.188   2.863   9.738  0.1351 -0.1268  0.0378
  424POPI   C1A 6739   2.694   2.622   9.578  0.0471  0.2089  0.1186
  424POPI   D2A 6740   2.699   2.609   9.096 -0.3625  0.2392 -0.1010
  424POPI   C3A 6741   2.865   2.556   8.622  0.3947  0.3777 -0.1478
  424POPI   C4A 6742   2.795   2.253   8.313  0.0505  0.0982  0.0163
  424POPI   C1B 6743   2.282   2.798   9.301 -0.1024 -0.0019  0.1205
  424POPI   C2B 6744   2.253   2.699   8.866 -0.2075 -0.1232 -0.0705
  424POPI   C3B 6745   2.408   2.611   8.412 -0.1773 -0.0031 -0.5052
  424POPI   C4B 6746   2.246   2.558   8.065 -0.3305 -0.0356 -0.3985
  425POPI    C1 6747  16.766   3.691  10.746  0.0629  0.0121 -0.0341
  425POPI    C2 6748  17.153   3.631  10.827  0.0583 -0.0047 -0.0247
  425POPI    C3 6749  16.873   3.485  11.071  0.0395 -0.2384 -0.1825
  425POPI   PO4 6750  16.829   3.941  10.550  0.2452  0.0576  0.0579
  425POPI   GL1 6751  16.669   3.892  10.085 -0.0102  0.0418 -0.0509
  425POPI   GL2 6752  16.539   3.972   9.828  0.0991 -0.0751 -0.2914
  425POPI   C1A 6753  16.998   3.679   9.816  0.2943  0.1032 -0.0647
  425POPI   D2A 6754  17.263   3.619   9.487  0.1512 -0.2611  0.0592
  425POPI   C3A 6755  17.136   3.617   9.114 -0.1075 -0.0169  0.0728
  425POPI   C4A 6756  17.061   3.601   8.703 -0.2158 -0.0707  0.2218
  425POPI   C1B 6757  16.455   4.223   9.422 -0.0463  0.1321 -0.3520
  425POPI   C2B 6758  16.707   4.488   9.139  0.0237  0.1909 -0.0319
  425POPI   C3B 6759  16.812   4.526   8.702  0.0847  0.1977  0.3125
  425POPI   C4B 6760  17.027   4.592   8.339 -0.0563 -0.0741 -0.0085
  426POPI    C1 6761  15.441   3.883  10.362  0.0384  0.0076  0.0917
  426POPI    C2 6762  15.382   3.488  10.352 -0.1605  0.0394 -0.0825
  426POPI    C3 6763  15.372   3.683  10.701 -0.0937 -0.1036  0.0005
  426POPI   PO4 6764  15.625   3.927  10.182  0.1182  0.0116 -0.0809
  426POPI   GL1 6765  15.732   3.706   9.907  0.0038 -0.1924 -0.0100
  426POPI   GL2 6766  16.011   3.641   9.839  0.0869  0.5135  0.4575
  426POPI   C1A 6767  15.629   3.900   9.543  0.2417 -0.1493  0.1225
  426POPI   D2A 6768  15.768   3.964   9.173 -0.2079  0.1144 -0.3715
  426POPI   C3A 6769  16.055   4.103   8.865 -0.0882 -0.0815  0.1825
  426POPI   C4A 6770  16.371   4.306   8.788  0.1882 -0.0422 -0.2747
  426POPI   C1B 6771  16.116   3.797   9.464  0.3412  0.0192  0.0198
  426POPI   C2B 6772  16.207   3.728   9.111 -0.0005  0.1643 -0.1127
  426POPI   C3B 6773  16.083   3.616   8.772  0.1689  0.2762 -0.1301
  426POPI   C4B 6774  15.736   3.567   8.385  0.1081  0.5351 -0.0110
  427POPI    C1 6775  13.282   6.657  10.771 -0.1247 -0.1526 -0.0715
  427POPI    C2 6776  13.586   6.557  10.532  0.1930  0.0271  0.2479
  427POPI    C3 6777  13.450   6.295  10.801  0.0246 -0.0728  0.0684
  427POPI   PO4 6778  13.346   6.945  10.713  0.1947 -0.1187  0.0705
  427POPI   GL1 6779  13.223   7.137  10.301 -0.0037 -0.0857 -0.1466
  427POPI   GL2 6780  13.461   6.982  10.181 -0.0666 -0.2074  0.4629
  427POPI   C1A 6781  12.901   6.932   9.959 -0.0644 -0.3571 -0.0134
  427POPI   D2A 6782  12.421   6.931   9.877 -0.1480  0.2080  0.0324
  427POPI   C3A 6783  12.317   6.988   9.424  0.0109 -0.2838 -0.1118
  427POPI   C4A 6784  12.504   7.245   9.110  0.0355 -0.0040  0.1929
  427POPI   C1B 6785  13.329   6.619   9.955  0.2445  0.0420 -0.1800
  427POPI   C2B 6786  13.270   6.361   9.548  0.3810  0.2636  0.1909
  427POPI   C3B 6787  13.305   6.292   9.099 -0.1940 -0.0532  0.0197
  427POPI   C4B 6788  13.005   6.436   8.902 -0.0757 -0.2174  0.2221
  428POPI    C1 6789  11.548   8.329  10.641  0.0836 -0.1316  0.0064
  428POPI    C2 6790  11.156   8.402  10.674  0.0708 -0.1000 -0.1989
  428POPI    C3 6791  11.391   8.421  10.997 -0.1126 -0.2183 -0.0561
  428POPI   PO4 6792  11.515   8.309  10.363  0.1245 -0.0571  0.1880
  428POPI   GL1 6793  11.637   8.379   9.917  0.1790 -0.1065  0.1401
  428POPI   GL2 6794  11.552   8.700   9.922  0.0927 -0.2864 -0.1857
  428POPI   C1A 6795  11.791   8.499   9.473  0.0133  0.2255 -0.1770
  428POPI   D2A 6796  12.049   8.550   9.034  0.0703  0.4306 -0.0834
  428POPI   C3A 6797  11.995   8.386   8.565  0.0223  0.0387  0.0865
  428POPI   C4A 6798  11.912   8.076   8.202  0.1616 -0.0088 -0.1356
  428POPI   C1B 6799  11.354   8.700   9.439  0.1135 -0.2453 -0.0537
  428POPI   C2B 6800  11.272   8.877   9.107  0.2822 -0.2876 -0.1473
  428POPI   C3B 6801  11.101   8.863   8.611  0.4966 -0.1420  0.0979
  428POPI   C4B 6802  11.003   8.621   8.264 -0.1797 -0.1298 -0.0018
  429POPI    C1 6803   1.413   4.402  10.240  0.1238 -0.1567  0.2467
  429POPI    C2 6804   1.593   4.048  10.194  0.0693 -0.1583  0.0334
  429POPI    C3 6805   1.806   4.386  10.168  0.0735 -0.1663 -0.0383
  429POPI   PO4 6806   1.222   4.402  10.002  0.0344 -0.1647 -0.0848
  429POPI   GL1 6807   1.226   4.602   9.654 -0.0933  0.1412 -0.1040
  429POPI   GL2 6808   1.511   4.763   9.854  0.1104  0.2591 -0.1804
  429POPI   C1A 6809   1.358   4.478   9.316  0.1112  0.0725 -0.3588
  429POPI   D2A 6810   1.607   4.412   8.968  0.1078 -0.5737 -0.1067
  429POPI   C3A 6811   1.819   4.240   8.608 -0.3431  0.0050  0.1029
  429POPI   C4A 6812   2.020   4.036   8.348 -0.5811  0.2750 -0.1620
  429POPI   C1B 6813   1.751   4.659   9.591  0.1272  0.0157 -0.0798
  429POPI   C2B 6814   1.821   4.841   9.168 -0.1585 -0.1765 -0.1294
  429POPI   C3B 6815   1.852   4.806   8.697 -0.1636 -0.2215 -0.0416
  429POPI   C4B 6816   1.985   4.841   8.382  0.2726  0.0829  0.1737
  430POPI    C1 6817  12.483  15.678  10.289  0.1383  0.2910 -0.1249
  430POPI    C2 6818  12.129  15.664  10.475  0.2537 -0.0253  0.0789
  430POPI    C3 6819  12.358  15.991  10.504  0.0021  0.1625 -0.0153
  430POPI   PO4 6820  12.368  15.499  10.084 -0.0245 -0.0133  0.1111
  430POPI   GL1 6821  12.250  15.718   9.618 -0.3389  0.2019  0.0785
  430POPI   GL2 6822  12.194  15.348   9.619  0.1454  0.0251 -0.2727
  430POPI   C1A 6823  12.196  15.918   9.179 -0.1318 -0.0197 -0.2988
  430POPI   D2A 6824  11.892  15.921   8.887 -0.1422  0.1830 -0.0089
  430POPI   C3A 6825  11.769  15.872   8.462  0.4241  0.0958  0.1325
  430POPI   C4A 6826  11.475  16.030   8.080  0.1499 -0.1862  0.1389
  430POPI   C1B 6827  12.513  15.373   9.311 -0.1318 -0.0862 -0.1378
  430POPI   C2B 6828  12.538  15.278   8.911 -0.0634 -0.0858 -0.1537
  430POPI   C3B 6829  12.542  15.315   8.518  0.1011 -0.1723 -0.2390
  430POPI   C4B 6830  12.310  15.451   8.189 -0.0946  0.2453  0.2246
  431POPI    C1 6831   3.118  15.377  10.511  0.1271 -0.1050  0.1391
  431POPI    C2 6832   3.022  15.754  10.421  0.0568 -0.1183  0.1579
  431POPI    C3 6833   3.322  15.680  10.674  0.1786 -0.0787  0.0266
  431POPI   PO4 6834   3.102  15.245  10.190 -0.2802  0.1728  0.1992
  431POPI   GL1 6835   3.161  15.261   9.760 -0.0610 -0.1120 -0.1159
  431POPI   GL2 6836   3.176  14.914   9.789  0.2233 -0.0377  0.0602
  431POPI   C1A 6837   3.138  15.149   9.332 -0.0083  0.1709  0.1209
  431POPI   D2A 6838   3.224  15.219   8.920 -0.2618  0.2909 -0.4151
  431POPI   C3A 6839   2.954  15.082   8.638  0.0675  0.1352  0.1108
  431POPI   C4A 6840   2.797  14.832   8.283  0.0368 -0.0385 -0.2131
  431POPI   C1B 6841   3.202  14.646   9.420 -0.0521 -0.2428  0.1277
  431POPI   C2B 6842   3.089  14.701   9.061  0.1972  0.4222  0.0297
  431POPI   C3B 6843   3.072  14.552   8.677  0.1009 -0.3276  0.1693
  431POPI   C4B 6844   3.250  14.383   8.306 -0.0645 -0.0871  0.0099
  432POPI    C1 6845   4.556   1.389  10.373  0.0570  0.0381  0.1778
  432POPI    C2 6846   4.357   1.137  10.612  0.0392 -0.0680  0.0524
  432POPI    C3 6847   4.757   1.145  10.619  0.0450 -0.2174 -0.0605
  432POPI   PO4 6848   4.509   1.344  10.141 -0.0557  0.0442  0.1352
  432POPI   GL1 6849   4.570   1.403   9.667 -0.2986  0.1969 -0.0856
  432POPI   GL2 6850   4.787   1.131   9.663  0.1110 -0.1549 -0.0117
  432POPI   C1A 6851   4.628   1.584   9.287  0.3399  0.0958  0.4300
  432POPI   D2A 6852   4.894   1.451   8.888  0.4184 -0.2054 -0.0044
  432POPI   C3A 6853   4.687   1.291   8.508 -0.0928 -0.1200  0.0190
  432POPI   C4A 6854   4.424   1.023   8.186 -0.0908 -0.0365  0.0944
  432POPI   C1B 6855   4.694   1.056   9.191 -0.1164  0.3794 -0.0665
  432POPI   C2B 6856   5.007   0.950   8.933  0.2058  0.0526  0.2030
  432POPI   C3B 6857   5.300   1.206   8.567  0.0506 -0.1025  0.1543
  432POPI   C4B 6858   5.602   1.096   8.218  0.0446  0.0860 -0.1682
  433POPI    C1 6859  15.019  16.540   9.991 -0.0644  0.1401  0.0743
  433POPI    C2 6860  14.838  16.215   9.845 -0.0377  0.1033  0.1226
  433POPI    C3 6861  14.867  16.267  10.240  0.0434  0.1166  0.1149
  433POPI   PO4 6862  15.261  16.551   9.903 -0.2541  0.4469 -0.0257
  433POPI   GL1 6863  15.487  16.428   9.582 -0.1898  0.0618 -0.0897
  433POPI   GL2 6864  15.204  16.418   9.436 -0.0700  0.0604  0.2448
  433POPI   C1A 6865  15.611  16.358   9.123  0.2851  0.2218 -0.2226
  433POPI   D2A 6866  15.706  16.354   8.765  0.1235 -0.3364  0.0248
  433POPI   C3A 6867  15.674  16.456   8.323  0.2041 -0.0024 -0.3048
  433POPI   C4A 6868  15.715  16.532   7.925  0.0941 -0.0689  0.1687
  433POPI   C1B 6869  15.103  16.445   8.896 -0.0048 -0.2335 -0.0222
  433POPI   C2B 6870  15.194  16.355   8.545  0.1424  0.1540 -0.3639
  433POPI   C3B 6871  15.229  16.362   8.130 -0.1120 -0.0805 -0.2541
  433POPI   C4B 6872  15.230  16.679   7.897  0.1783  0.1558  0.2180
  434POPI    C1 6873  14.413  16.494  10.599 -0.2752 -0.1742 -0.0440
  434POPI    C2 6874  14.335  16.811  10.829 -0.0119 -0.0071 -0.1796
  434POPI    C3 6875  14.519  16.492  10.984  0.0591  0.0574 -0.1302
  434POPI   PO4 6876  14.522  16.655  10.354  0.1743  0.1327 -0.1234
  434POPI   GL1 6877  14.575  16.724   9.869  0.0377  0.0029 -0.1010
  434POPI   GL2 6878  14.229  16.766   9.964 -0.2005  0.0003  0.0851
  434POPI   C1A 6879  14.723  16.548   9.502  0.2609  0.1785 -0.0138
  434POPI   D2A 6880  14.834  16.128   9.261  0.0184 -0.1329 -0.2456
  434POPI   C3A 6881  14.873  15.979   8.908 -0.0450 -0.1411  0.1890
  434POPI   C4A 6882  14.840  15.931   8.490 -0.0162 -0.1485 -0.2100
  434POPI   C1B 6883  13.994  16.897   9.702  0.0202  0.0191  0.0082
  434POPI   C2B 6884  13.986  17.230   9.329  0.0603 -0.0368 -0.2397
  434POPI   C3B 6885  13.935  17.346   8.953  0.0400 -0.1955 -0.2161
  434POPI   C4B 6886  14.214  17.616   8.651 -0.1240  0.0250 -0.3748
  435POPI    C1 6887  17.848  11.467  10.886 -0.1663 -0.3334 -0.0031
  435POPI    C2 6888  17.724  11.416  11.263  0.0233 -0.2619  0.0700
  435POPI    C3 6889  17.986  11.160  11.102  0.0844 -0.1868  0.0494
  435POPI   PO4 6890  17.683  11.501  10.737  0.0269 -0.1073  0.0167
  435POPI   GL1 6891  17.561  11.478  10.191 -0.0030  0.0122  0.3486
  435POPI   GL2 6892  17.784  11.174  10.016  0.0110  0.2836  0.0386
  435POPI   C1A 6893  17.412  11.431   9.742  0.1591 -0.3507  0.0422
  435POPI   D2A 6894  17.440  11.360   9.322 -0.2357 -0.2013  0.0118
  435POPI   C3A 6895  17.735  11.014   9.253  0.0022 -0.0797  0.2347
  435POPI   C4A 6896  18.072  11.127   8.938  0.0987  0.2281 -0.1173
  435POPI   C1B 6897  17.625  10.826   9.738 -0.1086 -0.1944  0.0952
  435POPI   C2B 6898  17.469  10.530   9.346 -0.3764  0.1865  0.1254
  435POPI   C3B 6899  17.506  10.550   8.810  0.1913  0.0224 -0.1851
  435POPI   C4B 6900  17.594  10.703   8.377  0.0903  0.1204  0.1320
  436POPI    C1 6901  16.070   6.086  10.386 -0.0157  0.0413  0.2241
  436POPI    C2 6902  16.420   5.944  10.519  0.0111  0.0628  0.1772
  436POPI    C3 6903  16.261   6.272  10.684  0.1431  0.2067  0.0231
  436POPI   PO4 6904  16.142   6.137  10.161 -0.2139 -0.2488  0.0237
  436POPI   GL1 6905  16.442   6.244   9.798 -0.1040 -0.1465  0.0116
  436POPI   GL2 6906  16.509   6.565   9.790  0.1159  0.1059  0.1547
  436POPI   C1A 6907  16.769   6.188   9.607 -0.1475  0.2750  0.2114
  436POPI   D2A 6908  16.950   6.534   9.478 -0.0587  0.0079 -0.0883
  436POPI   C3A 6909  16.857   6.720   9.126 -0.0772  0.1064  0.0868
  436POPI   C4A 6910  16.906   6.987   8.892 -0.1731  0.0370 -0.0352
  436POPI   C1B 6911  16.456   6.462   9.339 -0.1805 -0.3119  0.0568
  436POPI   C2B 6912  16.354   6.610   8.936  0.2648 -0.0876  0.1824
  436POPI   C3B 6913  16.350   6.748   8.474  0.3199  0.2357  0.0033
  436POPI   C4B 6914  16.143   6.706   8.153 -0.0978 -0.1215 -0.1992
  437POPI    C1 6915   3.164   5.944  10.142  0.0783 -0.3231  0.0161
  437POPI    C2 6916   3.434   5.891  10.432  0.0530 -0.2625  0.0509
  437POPI    C3 6917   3.043   5.884  10.518  0.0492  0.2296  0.1035
  437POPI   PO4 6918   3.249   6.180  10.010  0.1970  0.0471  0.2906
  437POPI   GL1 6919   3.055   6.345   9.690  0.0806  0.1636  0.0682
  437POPI   GL2 6920   2.768   6.490   9.611  0.0745  0.1224 -0.0990
  437POPI   C1A 6921   3.094   6.355   9.249 -0.1409  0.3709  0.0334
  437POPI   D2A 6922   3.091   6.587   8.799 -0.2910  0.1562 -0.0496
  437POPI   C3A 6923   3.052   6.422   8.439  0.3100  0.2789  0.0365
  437POPI   C4A 6924   2.859   6.142   8.038 -0.0477  0.0957 -0.1933
  437POPI   C1B 6925   2.582   6.503   9.225 -0.1809 -0.2957  0.0136
  437POPI   C2B 6926   2.499   6.707   8.896 -0.4797  0.0829  0.0577
  437POPI   C3B 6927   2.389   6.978   8.607  0.2468  0.3222 -0.0042
  437POPI   C4B 6928   2.421   7.026   8.214 -0.1954 -0.0734  0.0472
  438POPI    C1 6929   4.700  14.927  10.627 -0.0832 -0.1679  0.4644
  438POPI    C2 6930   5.004  14.671  10.578 -0.0048 -0.0047  0.0543
  438POPI    C3 6931   5.071  15.035  10.731 -0.0064  0.0034  0.0357
  438POPI   PO4 6932   4.538  14.791  10.378  0.2742  0.1696  0.0275
  438POPI   GL1 6933   4.475  14.800   9.963 -0.1235  0.2349  0.2267
  438POPI   GL2 6934   4.459  15.116   9.841  0.2099  0.3233  0.0364
  438POPI   C1A 6935   4.430  14.594   9.470 -0.0711  0.1805  0.0287
  438POPI   D2A 6936   4.496  14.368   9.107  0.1628  0.0970 -0.1252
  438POPI   C3A 6937   4.560  14.519   8.703 -0.2235  0.2316  0.1364
  438POPI   C4A 6938   4.455  14.352   8.318 -0.1615 -0.0832  0.1884
  438POPI   C1B 6939   4.650  15.088   9.492 -0.0000 -0.1924  0.1240
  438POPI   C2B 6940   4.597  15.021   8.987 -0.0145 -0.0880 -0.0524
  438POPI   C3B 6941   4.571  15.005   8.522 -0.0062 -0.0167 -0.0617
  438POPI   C4B 6942   4.366  15.230   8.237  0.0966 -0.3685 -0.1154
  439POPI    C1 6943  10.875   0.425  11.036  0.0186  0.0802  0.0216
  439POPI    C2 6944  10.870   0.686  11.339  0.0372 -0.0730  0.1550
  439POPI    C3 6945  10.629   0.367  11.346 -0.1491  0.0584 -0.1140
  439POPI   PO4 6946  10.875   0.610  10.805 -0.3733 -0.2041  0.2672
  439POPI   GL1 6947  11.078   0.583  10.482 -0.0324 -0.0819  0.0119
  439POPI   GL2 6948  11.409   0.643  10.624 -0.1268 -0.0733  0.0146
  439POPI   C1A 6949  11.067   0.573  10.116 -0.1475  0.2827 -0.1838
  439POPI   D2A 6950  11.010   0.564   9.603 -0.2376 -0.0381  0.1823
  439POPI   C3A 6951  10.908   0.757   9.240 -0.1697 -0.1094  0.2516
  439POPI   C4A 6952  11.174   0.676   8.950 -0.2629 -0.0235  0.1435
  439POPI   C1B 6953  11.470   0.881  10.211  0.1565 -0.2111 -0.0293
  439POPI   C2B 6954  11.608   0.829   9.838 -0.3099 -0.3606 -0.2331
  439POPI   C3B 6955  11.496   0.871   9.296  0.0369  0.3974  0.1861
  439POPI   C4B 6956  11.518   1.064   8.832  0.1904 -0.0250  0.0849
  440POPI    C1 6957   3.446   1.922  10.919 -0.0789  0.0601  0.1423
  440POPI    C2 6958   3.628   1.744  11.227 -0.0140  0.1154  0.1361
  440POPI    C3 6959   3.256   1.883  11.269 -0.1462 -0.2112  0.0781
  440POPI   PO4 6960   3.526   1.687  10.663 -0.2570  0.2031  0.0696
  440POPI   GL1 6961   3.277   1.440  10.445  0.0499 -0.1117 -0.0248
  440POPI   GL2 6962   3.591   1.535  10.137 -0.1380  0.1105  0.1043
  440POPI   C1A 6963   3.071   1.444  10.088 -0.0408  0.3358 -0.0493
  440POPI   D2A 6964   2.716   1.692   9.918  0.0781 -0.3662 -0.3772
  440POPI   C3A 6965   2.708   1.689   9.450 -0.1141 -0.2927 -0.0604
  440POPI   C4A 6966   2.612   1.736   8.936 -0.0248  0.0059 -0.3242
  440POPI   C1B 6967   3.444   1.531   9.737  0.3389 -0.2231  0.0818
  440POPI   C2B 6968   3.579   1.509   9.328 -0.0525  0.2319  0.1711
  440POPI   C3B 6969   3.810   1.527   8.918 -0.0627 -0.0030 -0.2756
  440POPI   C4B 6970   4.046   1.762   8.579  0.2155 -0.0134 -0.0942
  441POPI    C1 6971  15.166  17.469  10.373  0.0688  0.0854 -0.2300
  441POPI    C2 6972  14.773  17.527  10.325  0.0200 -0.0439 -0.0013
  441POPI    C3 6973  14.925  17.475  10.692  0.2606  0.0667 -0.0827
  441POPI   PO4 6974  15.276  17.383  10.175  0.1575 -0.1118 -0.2524
  441POPI   GL1 6975  15.231  17.462   9.753  0.1888 -0.0549  0.3095
  441POPI   GL2 6976  14.836  17.453   9.847 -0.4415 -0.2339  0.3389
  441POPI   C1A 6977  15.250  17.460   9.284 -0.0436  0.0267  0.2028
  441POPI   D2A 6978  14.983  17.533   8.878  0.0286  0.1869  0.0363
  441POPI   C3A 6979  14.720  17.379   8.579 -0.3376 -0.2672  0.2047
  441POPI   C4A 6980  14.475  17.262   8.330  0.1839 -0.1217  0.0393
  441POPI   C1B 6981  14.732  17.480   9.435  0.0924  0.1849 -0.0380
  441POPI   C2B 6982  14.559  17.344   9.125  0.2660  0.0491 -0.1217
  441POPI   C3B 6983  14.369  17.119   8.788 -0.1358  0.2893 -0.1633
  441POPI   C4B 6984  14.308  16.824   8.543  0.5060  0.0715 -0.4188
  442POPI    C1 6985   4.261  16.492  10.638 -0.0971  0.0243 -0.2976
  442POPI    C2 6986   4.102  16.145  10.759  0.1140  0.0475  0.0620
  442POPI    C3 6987   3.886  16.481  10.778  0.0116 -0.0142 -0.0013
  442POPI   PO4 6988   4.361  16.401  10.375  0.3379 -0.0770  0.3225
  442POPI   GL1 6989   4.532  16.561  10.002 -0.0498 -0.4748  0.1645
  442POPI   GL2 6990   4.259  16.532   9.910  0.1517 -0.1812  0.0866
  442POPI   C1A 6991   4.751  16.556   9.542 -0.0285 -0.1273 -0.0300
  442POPI   D2A 6992   4.746  16.545   9.034 -0.1019  0.0154  0.0378
  442POPI   C3A 6993   4.743  16.712   8.616 -0.0572 -0.1062  0.1064
  442POPI   C4A 6994   4.611  16.616   8.240  0.0762  0.0766 -0.0134
  442POPI   C1B 6995   4.301  16.409   9.489  0.1389 -0.1141 -0.0515
  442POPI   C2B 6996   4.223  16.455   9.047 -0.2305  0.1127 -0.0005
  442POPI   C3B 6997   4.292  16.432   8.641  0.1453 -0.3772 -0.1896
  442POPI   C4B 6998   4.131  16.557   8.374 -0.0436  0.1075 -0.1214
  443POPI    C1 6999   9.820   8.215  10.816  0.1039 -0.1188  0.2076
  443POPI    C2 7000   9.820   8.085  11.195 -0.0183  0.0919  0.2817
  443POPI    C3 7001  10.007   8.426  11.100  0.1073 -0.0175  0.1303
  443POPI   PO4 7002   9.772   8.029  10.703  0.1547 -0.3046  0.0471
  443POPI   GL1 7003   9.835   8.009  10.277  0.3492  0.1627  0.2429
  443POPI   GL2 7004   9.579   7.821  10.109 -0.2279  0.2980 -0.1426
  443POPI   C1A 7005   9.834   8.205   9.735 -0.1854  0.0045 -0.1483
  443POPI   D2A 7006   9.992   8.102   9.260 -0.0328  0.2622 -0.0640
  443POPI   C3A 7007   9.938   8.449   9.014  0.0686 -0.3889 -0.2822
  443POPI   C4A 7008  10.170   8.704   8.711 -0.3386 -0.0501 -0.1901
  443POPI   C1B 7009   9.513   7.819   9.721  0.1016  0.1645  0.2071
  443POPI   C2B 7010   9.484   7.858   9.282 -0.0951  0.1723 -0.4853
  443POPI   C3B 7011   9.721   7.986   8.868  0.1369 -0.1644  0.2542
  443POPI   C4B 7012   9.634   8.263   8.444  0.0834 -0.0812  0.2659
  444POPI    C1 7013   0.662   8.729  10.526  0.0170 -0.2434 -0.0153
  444POPI    C2 7014   0.268   8.783  10.576  0.0642  0.2718 -0.1463
  444POPI    C3 7015   0.503   8.720  10.893 -0.0932  0.1765 -0.0475
  444POPI   PO4 7016   0.635   8.637  10.243 -0.0819  0.3275 -0.1039
  444POPI   GL1 7017   0.549   8.921   9.887 -0.1043  0.0411 -0.2942
  444POPI   GL2 7018   0.265   8.974  10.087  0.0855  0.1552 -0.0238
  444POPI   C1A 7019   0.547   9.017   9.471  0.1753 -0.2115 -0.0066
  444POPI   D2A 7020   0.637   9.110   9.137 -0.2038 -0.0639  0.0094
  444POPI   C3A 7021   0.354   9.245   8.727  0.1261 -0.0520  0.1963
  444POPI   C4A 7022   0.255   9.491   8.333 -0.0425  0.2885 -0.3618
  444POPI   C1B 7023   0.045   9.144   9.642  0.5290  0.1712 -0.0685
  444POPI   C2B 7024   0.107   9.233   9.175 -0.2881  0.4045  0.1374
  444POPI   C3B 7025  -0.135   9.298   8.788  0.1107 -0.3574 -0.1145
  444POPI   C4B 7026  -0.250   9.619   8.477 -0.0123 -0.0161 -0.0797
  445POPI    C1 7027   2.743  14.283  10.414  0.0119 -0.0220 -0.2259
  445POPI    C2 7028   2.598  14.635  10.290 -0.0477 -0.0377 -0.2011
  445POPI    C3 7029   2.721  14.591  10.668  0.0484 -0.0163 -0.2297
  445POPI   PO4 7030   2.813  14.169  10.230  0.2331  0.2657  0.3517
  445POPI   GL1 7031   2.784  14.134   9.843 -0.3869  0.1679 -0.1646
  445POPI   GL2 7032   2.453  14.027   9.878  0.1443  0.1261  0.1561
  445POPI   C1A 7033   2.679  14.451   9.594 -0.1308 -0.0755 -0.2089
  445POPI   D2A 7034   2.716  14.374   9.131  0.3972  0.1785  0.0269
  445POPI   C3A 7035   2.593  14.624   8.819 -0.0536 -0.1481 -0.5268
  445POPI   C4A 7036   2.479  14.911   8.650 -0.0311 -0.1662  0.1377
  445POPI   C1B 7037   2.308  14.094   9.533  0.0940 -0.0931 -0.1457
  445POPI   C2B 7038   2.288  14.093   9.104 -0.1971  0.1476 -0.0560
  445POPI   C3B 7039   1.913  14.218   8.731 -0.2664 -0.0024 -0.1154
  445POPI   C4B 7040   1.842  14.227   8.297 -0.1276 -0.1646  0.0087
  446POPI    C1 7041  14.532  15.743  10.000 -0.1670 -0.2764 -0.1052
  446POPI    C2 7042  14.765  15.701  10.322 -0.1195 -0.0224 -0.1044
  446POPI    C3 7043  14.453  15.457  10.268 -0.2278  0.0392  0.2213
  446POPI   PO4 7044  14.449  16.010  10.046  0.0424  0.2733  0.0500
  446POPI   GL1 7045  14.244  16.244   9.758  0.1520  0.2237 -0.2219
  446POPI   GL2 7046  14.459  16.083   9.576  0.0729 -0.0372 -0.2156
  446POPI   C1A 7047  14.157  16.484   9.472  0.1099  0.1026 -0.0243
  446POPI   D2A 7048  14.095  16.511   9.036  0.0689  0.0388  0.1958
  446POPI   C3A 7049  14.072  16.376   8.681 -0.3065  0.5584  0.0902
  446POPI   C4A 7050  13.842  16.217   8.247  0.0054 -0.0324  0.2451
  446POPI   C1B 7051  14.306  16.052   9.188  0.1001  0.0931  0.1001
  446POPI   C2B 7052  14.363  15.998   8.815  0.1123 -0.2269  0.1649
  446POPI   C3B 7053  14.279  16.050   8.403 -0.0193  0.1787  0.1001
  446POPI   C4B 7054  14.507  15.768   8.075  0.1900  0.1092  0.0993
  447POPI    C1 7055   9.537  15.199  10.642  0.0189 -0.0705 -0.2879
  447POPI    C2 7056   9.876  15.118  10.839 -0.0276  0.2743 -0.0563
  447POPI    C3 7057   9.524  15.097  11.029 -0.1205  0.1107 -0.2432
  447POPI   PO4 7058   9.484  15.153  10.415 -0.1699  0.4245  0.1544
  447POPI   GL1 7059   9.253  15.398   9.970  0.0322 -0.0653  0.5033
  447POPI   GL2 7060   8.983  15.223   9.978 -0.0357 -0.3223 -0.2156
  447POPI   C1A 7061   9.116  15.669   9.628 -0.1037 -0.0722  0.1029
  447POPI   D2A 7062   9.209  15.843   9.296 -0.3701 -0.2291  0.0099
  447POPI   C3A 7063   9.531  15.806   9.219  0.2465 -0.3818 -0.3075
  447POPI   C4A 7064   9.894  15.760   8.956  0.0176  0.2049 -0.0373
  447POPI   C1B 7065   8.848  15.287   9.504 -0.1139 -0.0765  0.1752
  447POPI   C2B 7066   8.777  15.234   9.040 -0.4588  0.0192 -0.0086
  447POPI   C3B 7067   9.039  15.257   8.713  0.2356 -0.1254  0.1243
  447POPI   C4B 7068   9.265  15.353   8.408  0.0433  0.5160  0.1695
  448POPI    C1 7069   7.449   4.741  10.657  0.1296 -0.1347 -0.0532
  448POPI    C2 7070   7.767   4.835  10.880 -0.0382  0.0146  0.1275
  448POPI    C3 7071   7.475   4.608  11.033 -0.0960  0.0140  0.0174
  448POPI   PO4 7072   7.380   4.862  10.497  0.2642 -0.2219 -0.1110
  448POPI   GL1 7073   7.505   4.817  10.149 -0.0756  0.1860 -0.2331
  448POPI   GL2 7074   7.220   4.938  10.017 -0.1789  0.0920 -0.1701
  448POPI   C1A 7075   7.771   5.012   9.948  0.1177  0.3446  0.0270
  448POPI   D2A 7076   7.900   5.215   9.528  0.0051  0.4282  0.0051
  448POPI   C3A 7077   7.875   5.621   9.561  0.1616  0.0155 -0.1281
  448POPI   C4A 7078   7.494   5.866   9.516 -0.2321  0.1815 -0.2062
  448POPI   C1B 7079   7.333   4.982   9.585  0.1928  0.0257  0.2655
  448POPI   C2B 7080   7.367   5.047   9.118 -0.0397  0.0786 -0.0640
  448POPI   C3B 7081   7.256   5.081   8.621  0.3727 -0.0254 -0.2599
  448POPI   C4B 7082   7.513   5.152   8.281 -0.2134 -0.1190  0.5541
  449POPI    C1 7083  15.666   6.552  10.501  0.0606  0.1776  0.2082
  449POPI    C2 7084  15.910   6.601  10.814  0.0936 -0.4353  0.2893
  449POPI    C3 7085  15.516   6.653  10.857  0.1670  0.2522  0.2322
  449POPI   PO4 7086  15.832   6.584  10.316 -0.4064  0.1656 -0.2510
  449POPI   GL1 7087  15.502   6.701   9.912 -0.1303 -0.1850 -0.0697
  449POPI   GL2 7088  15.231   6.497  10.086  0.1669  0.0923  0.0207
  449POPI   C1A 7089  15.308   6.788   9.489  0.1557 -0.2456 -0.0577
  449POPI   D2A 7090  15.346   6.967   9.143  0.3393  0.1064 -0.0456
  449POPI   C3A 7091  15.501   7.032   8.721 -0.0603  0.1330 -0.1223
  449POPI   C4A 7092  15.469   7.277   8.282  0.0370 -0.2083  0.2873
  449POPI   C1B 7093  14.956   6.528   9.649  0.0768 -0.1496  0.0494
  449POPI   C2B 7094  15.016   6.607   9.160  0.1344  0.2431 -0.1047
  449POPI   C3B 7095  14.910   6.882   8.832 -0.0404 -0.0234  0.0820
  449POPI   C4B 7096  15.028   7.118   8.536 -0.0753  0.0724 -0.3223
  450POPI    C1 7097   7.559  14.153   9.966  0.0522 -0.1360  0.0536
  450POPI    C2 7098   7.376  14.139  10.322 -0.1248 -0.1430 -0.0370
  450POPI    C3 7099   7.759  14.028  10.290 -0.1291 -0.2111  0.1378
  450POPI   PO4 7100   7.527  14.493   9.990 -0.0304 -0.0988  0.0144
  450POPI   GL1 7101   7.464  14.887   9.755 -0.2149 -0.0449  0.0063
  450POPI   GL2 7102   7.717  14.976   9.544  0.1948  0.0463  0.1130
  450POPI   C1A 7103   7.412  14.696   9.302 -0.1359 -0.1209  0.0460
  450POPI   D2A 7104   7.553  14.636   8.901 -0.1386 -0.0851  0.0260
  450POPI   C3A 7105   7.446  14.870   8.563 -0.2359  0.0569  0.0844
  450POPI   C4A 7106   7.590  14.629   8.313 -0.0731  0.0083  0.3744
  450POPI   C1B 7107   7.684  15.035   9.114 -0.2163  0.2615 -0.0371
  450POPI   C2B 7108   7.787  15.165   8.736  0.0916 -0.0753 -0.2108
  450POPI   C3B 7109   7.900  15.162   8.349  0.1412 -0.0065  0.4275
  450POPI   C4B 7110   7.936  15.501   8.036  0.0235 -0.1059 -0.1439
  451POPI    C1 7111   6.502  12.254  10.421 -0.0142  0.1216 -0.1570
  451POPI    C2 7112   6.137  12.137  10.534 -0.0197  0.1755 -0.1195
  451POPI    C3 7113   6.288  12.482  10.670  0.1962 -0.0270  0.1687
  451POPI   PO4 7114   6.576  12.349  10.148 -0.0371 -0.1247  0.0481
  451POPI   GL1 7115   6.717  12.644   9.921 -0.2592 -0.0433  0.1175
  451POPI   GL2 7116   6.458  12.745   9.761 -0.3162  0.1379  0.0326
  451POPI   C1A 7117   6.959  12.562   9.551 -0.1717  0.0576 -0.1497
  451POPI   D2A 7118   7.343  12.362   9.435 -0.0996 -0.2008  0.0700
  451POPI   C3A 7119   7.437  12.530   9.062  0.2366 -0.4706 -0.1018
  451POPI   C4A 7120   7.717  12.681   8.833  0.2664  0.1096 -0.2992
  451POPI   C1B 7121   6.508  12.579   9.356  0.1993  0.1619  0.2926
  451POPI   C2B 7122   6.435  12.271   8.968 -0.2507  0.0321  0.1777
  451POPI   C3B 7123   6.475  12.235   8.499 -0.0956 -0.0760  0.1658
  451POPI   C4B 7124   6.476  12.179   8.137  0.1970 -0.2103  0.1371
  452POPI    C1 7125   7.477  12.270  10.155  0.0110  0.2151  0.1152
  452POPI    C2 7126   7.405  11.980  10.421  0.2031  0.0444 -0.0155
  452POPI    C3 7127   7.457  12.357  10.545 -0.0526  0.0262  0.1551
  452POPI   PO4 7128   7.547  12.167   9.958 -0.4577  0.0893 -0.1163
  452POPI   GL1 7129   7.431  11.913   9.701 -0.1766 -0.0381  0.2968
  452POPI   GL2 7130   7.620  11.626   9.747 -0.1957  0.4450 -0.0082
  452POPI   C1A 7131   7.377  11.930   9.166 -0.2277 -0.1944 -0.2580
  452POPI   D2A 7132   7.371  12.008   8.812 -0.2176  0.0877 -0.0815
  452POPI   C3A 7133   7.436  12.271   8.617  0.3654  0.0401 -0.3985
  452POPI   C4A 7134   7.635  12.508   8.333  0.0085  0.2064 -0.1766
  452POPI   C1B 7135   7.641  11.492   9.343 -0.3010  0.1822  0.0481
  452POPI   C2B 7136   7.626  11.572   8.946  0.1618 -0.1861  0.1515
  452POPI   C3B 7137   7.581  11.684   8.520 -0.2169 -0.2235 -0.1630
  452POPI   C4B 7138   7.536  12.018   8.264  0.0021 -0.2620  0.1345
  453POPI    C1 7139  13.592  12.253  10.192  0.0646 -0.1395  0.0448
  453POPI    C2 7140  13.645  12.532  10.474  0.1486 -0.1253  0.0152
  453POPI    C3 7141  13.954  12.309  10.354  0.1586  0.0076 -0.2109
  453POPI   PO4 7142  13.379  12.123  10.237  0.1696 -0.1819 -0.0721
  453POPI   GL1 7143  13.025  12.233  10.050 -0.1500 -0.0640  0.0439
  453POPI   GL2 7144  12.691  12.023  10.048  0.2886  0.1031 -0.1509
  453POPI   C1A 7145  13.133  12.474   9.680 -0.0933 -0.2212 -0.0331
  453POPI   D2A 7146  13.390  12.872   9.635  0.1290  0.1565  0.2237
  453POPI   C3A 7147  13.402  12.953   9.207 -0.0526 -0.1028 -0.2026
  453POPI   C4A 7148  13.316  13.070   8.793 -0.3407 -0.0353  0.1157
  453POPI   C1B 7149  12.824  12.091   9.597  0.1804  0.3885  0.4227
  453POPI   C2B 7150  12.741  12.146   9.167  0.0036 -0.1403  0.0732
  453POPI   C3B 7151  12.859  12.079   8.812 -0.1217  0.0715 -0.0280
  453POPI   C4B 7152  13.128  11.905   8.423 -0.2275 -0.2034 -0.0510
  454POPI    C1 7153   8.202   7.612  10.816 -0.0044  0.2129 -0.1512
  454POPI    C2 7154   7.857   7.636  11.017  0.0634 -0.1625  0.0175
  454POPI    C3 7155   8.077   7.965  10.958 -0.2173  0.0424  0.0934
  454POPI   PO4 7156   8.126   7.402  10.634  0.0545  0.1439 -0.0925
  454POPI   GL1 7157   7.991   7.391  10.225  0.1919 -0.3774 -0.0891
  454POPI   GL2 7158   8.262   7.383   9.977  0.0443 -0.1385 -0.1160
  454POPI   C1A 7159   7.826   7.282   9.736  0.0592 -0.1398 -0.0785
  454POPI   D2A 7160   7.900   7.260   9.300 -0.1075  0.4139  0.5220
  454POPI   C3A 7161   7.773   7.489   8.910  0.1566  0.0300  0.1182
  454POPI   C4A 7162   7.710   7.584   8.412 -0.0772  0.0626 -0.1806
  454POPI   C1B 7163   8.651   7.598   9.842 -0.0271  0.3010  0.2818
  454POPI   C2B 7164   8.768   7.656   9.363 -0.1804  0.1868 -0.3753
  454POPI   C3B 7165   8.770   7.713   8.967 -0.0398  0.0958 -0.0606
  454POPI   C4B 7166   8.769   7.637   8.566  0.1006 -0.0305 -0.0178
  455POPI    C1 7167   0.804  14.331  10.443 -0.0098 -0.0114 -0.0945
  455POPI    C2 7168   0.461  14.289  10.645 -0.0195 -0.4130 -0.1871
  455POPI    C3 7169   0.802  14.147  10.798  0.0499 -0.3120 -0.2469
  455POPI   PO4 7170   0.748  14.558  10.241  0.2134 -0.1798 -0.1040
  455POPI   GL1 7171   0.561  14.500   9.860 -0.3382  0.0525  0.2012
  455POPI   GL2 7172   0.384  14.693   9.748  0.2910  0.1196  0.0408
  455POPI   C1A 7173   0.755  14.356   9.600  0.1571 -0.1426 -0.0681
  455POPI   D2A 7174   0.809  14.445   9.179 -0.2154  0.0048  0.0296
  455POPI   C3A 7175   0.543  14.585   8.934  0.2491  0.3245 -0.1694
  455POPI   C4A 7176   0.334  14.809   8.640  0.1995 -0.0790 -0.0992
  455POPI   C1B 7177   0.379  14.729   9.369  0.0635 -0.0596 -0.0404
  455POPI   C2B 7178   0.069  14.713   9.033  0.2837 -0.3463  0.2622
  455POPI   C3B 7179  -0.033  14.535   8.621 -0.0347 -0.2548  0.2743
  455POPI   C4B 7180  -0.141  14.654   8.219  0.1412  0.1284 -0.0189
  456POPI    C1 7181   0.810  11.276  10.353  0.0656 -0.1875  0.0756
  456POPI    C2 7182   0.471  11.486  10.386 -0.0199 -0.2937 -0.1123
  456POPI    C3 7183   0.718  11.454  10.699 -0.1101 -0.0921 -0.0189
  456POPI   PO4 7184   0.770  11.014  10.221  0.0570 -0.1288 -0.1019
  456POPI   GL1 7185   0.687  10.737   9.861 -0.0898 -0.3008  0.1787
  456POPI   GL2 7186   0.340  10.711   9.752 -0.1778 -0.2244 -0.3728
  456POPI   C1A 7187   0.592  10.935   9.401 -0.0734 -0.0577 -0.0418
  456POPI   D2A 7188   0.374  10.821   8.958 -0.4609 -0.0756  0.2420
  456POPI   C3A 7189   0.237  11.089   8.554 -0.2488 -0.0385  0.0452
  456POPI   C4A 7190  -0.137  11.186   8.378  0.0772  0.2786 -0.0925
  456POPI   C1B 7191   0.002  10.705   9.383  0.1437  0.0544  0.4010
  456POPI   C2B 7192  -0.085  10.648   9.014 -0.1125 -0.0841 -0.1792
  456POPI   C3B 7193  -0.023  10.655   8.619  0.1909 -0.0413 -0.0978
  456POPI   C4B 7194   0.039  10.757   8.208  0.0119  0.1542 -0.0188
  457POPI    C1 7195   8.215   5.408  10.610 -0.1576  0.2488 -0.1080
  457POPI    C2 7196   8.315   5.377  10.996  0.0070  0.1099 -0.1608
  457POPI    C3 7197   7.930   5.406  10.891 -0.0633 -0.2257 -0.0077
  457POPI   PO4 7198   8.357   5.206  10.475  0.2086  0.0268  0.0739
  457POPI   GL1 7199   8.557   4.818  10.431 -0.3679  0.0800  0.1454
  457POPI   GL2 7200   8.520   4.498  10.402  0.1189 -0.1487 -0.2448
  457POPI   C1A 7201   8.765   4.990  10.025  0.1711 -0.0547 -0.1569
  457POPI   D2A 7202   8.822   5.076   9.493 -0.1013  0.0486 -0.2097
  457POPI   C3A 7203   8.597   5.249   9.100  0.0184  0.1183 -0.1953
  457POPI   C4A 7204   8.155   5.439   8.915 -0.1265  0.2268  0.1464
  457POPI   C1B 7205   8.734   4.505  10.102  0.2228 -0.0183  0.0283
  457POPI   C2B 7206   8.886   4.618   9.729  0.0840 -0.1316  0.0219
  457POPI   C3B 7207   9.055   4.519   9.382  0.1271 -0.0694  0.2062
  457POPI   C4B 7208   9.494   4.329   9.119  0.1844  0.0602  0.0009
  458POPI    C1 7209   0.316  16.456  10.536 -0.0732  0.1483 -0.0756
  458POPI    C2 7210   0.264  16.577  10.914 -0.0475 -0.0357 -0.0125
  458POPI    C3 7211   0.112  16.227  10.793 -0.0409  0.0147 -0.1681
  458POPI   PO4 7212   0.262  16.690  10.396  0.1108  0.1009 -0.1352
  458POPI   GL1 7213   0.269  16.799   9.988 -0.2112  0.5582  0.3755
  458POPI   GL2 7214   0.091  16.912   9.818 -0.0370  0.0663 -0.3298
  458POPI   C1A 7215   0.575  17.016   9.771 -0.0600  0.0531 -0.4180
  458POPI   D2A 7216   0.719  17.540   9.656  0.0044 -0.0222  0.0519
  458POPI   C3A 7217   0.686  17.705   9.202 -0.0491  0.0995  0.2075
  458POPI   C4A 7218   0.721  17.758   8.747 -0.2064 -0.0823 -0.0855
  458POPI   C1B 7219  -0.214  16.883   9.546 -0.0933 -0.2312 -0.0069
  458POPI   C2B 7220  -0.260  16.871   9.160  0.1992  0.2366 -0.1136
  458POPI   C3B 7221  -0.288  16.821   8.736  0.0697  0.3488  0.2483
  458POPI   C4B 7222  -0.325  16.641   8.278  0.0839 -0.0507  0.2229
  459POPI    C1 7223   7.245   6.482  10.627 -0.1238 -0.1395 -0.0668
  459POPI    C2 7224   7.354   6.447  11.011 -0.0375  0.1971 -0.0575
  459POPI    C3 7225   6.973   6.384  10.905 -0.0121 -0.1438  0.0418
  459POPI   PO4 7226   7.361   6.743  10.498 -0.3008  0.0142 -0.0899
  459POPI   GL1 7227   7.454   6.962  10.132  0.1462  0.0777 -0.0529
  459POPI   GL2 7228   7.461   7.349  10.100  0.1120 -0.3311  0.2784
  459POPI   C1A 7229   7.399   6.771   9.718 -0.0397 -0.0794  0.0363
  459POPI   D2A 7230   7.106   6.782   9.404  0.0504  0.0164 -0.2048
  459POPI   C3A 7231   7.292   6.883   9.085 -0.0069 -0.1385  0.1586
  459POPI   C4A 7232   7.683   6.869   8.982 -0.0660 -0.0352 -0.0733
  459POPI   C1B 7233   7.331   7.271   9.631  0.1799 -0.0278  0.0891
  459POPI   C2B 7234   7.379   7.376   9.221  0.1098 -0.1635  0.3163
  459POPI   C3B 7235   7.314   7.403   8.800  0.1744  0.1770  0.1552
  459POPI   C4B 7236   7.187   7.588   8.439  0.3738  0.1421 -0.0154
  460POPI    C1 7237   6.515   5.326  10.614  0.0423 -0.3821  0.2923
  460POPI    C2 7238   6.207   5.455  10.835  0.0578 -0.0475  0.1258
  460POPI    C3 7239   6.581   5.487  10.975  0.0506 -0.0430  0.1438
  460POPI   PO4 7240   6.551   5.420  10.364  0.1065  0.2342  0.0125
  460POPI   GL1 7241   6.723   5.700  10.205 -0.1465  0.0519  0.0237
  460POPI   GL2 7242   6.954   5.434  10.081  0.1353 -0.1730 -0.3744
  460POPI   C1A 7243   6.834   5.821   9.697  0.4250  0.2660 -0.0489
  460POPI   D2A 7244   7.037   5.776   9.289  0.2321 -0.0676  0.3907
  460POPI   C3A 7245   6.975   5.908   8.870 -0.3041 -0.3736  0.0447
  460POPI   C4A 7246   6.844   5.970   8.457  0.1567  0.5917  0.0466
  460POPI   C1B 7247   6.971   5.277   9.712 -0.1960  0.0895 -0.4804
  460POPI   C2B 7248   6.890   5.311   9.406  0.1178 -0.1174 -0.2561
  460POPI   C3B 7249   7.063   5.404   8.981  0.3228 -0.2018 -0.0991
  460POPI   C4B 7250   7.396   5.530   8.640 -0.0528 -0.2458  0.1787
  461POPI    C1 7251  15.286   7.430  10.598 -0.2630  0.1948 -0.1708
  461POPI    C2 7252  15.420   7.743  10.808 -0.0037  0.0745 -0.1530
  461POPI    C3 7253  15.027   7.679  10.774 -0.0515  0.1060  0.2801
  461POPI   PO4 7254  15.377   7.387  10.422 -0.2808 -0.2885  0.1600
  461POPI   GL1 7255  15.273   7.249   9.997  0.2824 -0.1164 -0.3256
  461POPI   GL2 7256  15.092   7.065   9.783  0.2514 -0.0704 -0.0941
  461POPI   C1A 7257  15.535   7.277   9.571 -0.2729 -0.1132 -0.5417
  461POPI   D2A 7258  15.608   7.399   9.181 -0.4815  0.1357  0.1896
  461POPI   C3A 7259  16.048   7.435   8.953  0.2524 -0.0728 -0.0267
  461POPI   C4A 7260  16.221   7.754   8.717 -0.0275  0.2094 -0.0153
  461POPI   C1B 7261  14.831   7.031   9.377 -0.2687  0.2452 -0.1724
  461POPI   C2B 7262  14.615   7.227   9.123  0.1538  0.1387  0.4205
  461POPI   C3B 7263  14.460   7.181   8.674 -0.3099  0.1753  0.0240
  461POPI   C4B 7264  14.093   7.302   8.410  0.1530 -0.1589 -0.0338
  462POPI    C1 7265  14.665   6.366  10.369 -0.0217 -0.0107 -0.0831
  462POPI    C2 7266  14.587   6.307  10.757 -0.4153 -0.0075 -0.1575
  462POPI    C3 7267  14.648   6.678  10.619 -0.0554 -0.0281 -0.0636
  462POPI   PO4 7268  14.876   6.182  10.306  0.0814 -0.0686 -0.1579
  462POPI   GL1 7269  15.101   5.961   9.996 -0.3994  0.0458 -0.0186
  462POPI   GL2 7270  15.381   5.772   9.813  0.2319  0.1113  0.0084
  462POPI   C1A 7271  15.049   6.005   9.532 -0.0137 -0.0598  0.0800
  462POPI   D2A 7272  14.872   6.102   9.124 -0.1494  0.0165  0.0444
  462POPI   C3A 7273  15.208   6.039   8.804 -0.1932  0.0234  0.1572
  462POPI   C4A 7274  15.454   6.184   8.404 -0.0801  0.0562  0.0940
  462POPI   C1B 7275  15.474   5.837   9.397  0.1122  0.1260  0.1285
  462POPI   C2B 7276  15.623   5.871   9.049 -0.1105  0.1359 -0.2314
  462POPI   C3B 7277  15.786   5.853   8.694 -0.2286 -0.2845  0.0925
  462POPI   C4B 7278  16.035   6.137   8.443  0.0962  0.0877 -0.0583
  463POPI    C1 7279  14.933   9.727  10.847  0.1875 -0.0347  0.0484
  463POPI    C2 7280  15.014   9.911  11.193 -0.0217  0.0373  0.0604
  463POPI    C3 7281  14.708   9.655  11.170 -0.0457  0.0782 -0.0866
  463POPI   PO4 7282  14.914   9.825  10.674  0.0688  0.0504  0.0682
  463POPI   GL1 7283  14.994   9.801  10.295  0.0462  0.0438  0.0096
  463POPI   GL2 7284  14.950   9.506  10.199 -0.0638  0.4543 -0.1446
  463POPI   C1A 7285  15.063   9.885   9.829 -0.0201  0.0872 -0.1139
  463POPI   D2A 7286  15.010   9.863   9.400  0.1466 -0.0029 -0.0432
  463POPI   C3A 7287  14.617   9.866   9.173  0.0753  0.1231  0.2245
  463POPI   C4A 7288  14.341  10.174   9.081 -0.0169 -0.1982 -0.1786
  463POPI   C1B 7289  15.009   9.309   9.838 -0.1180 -0.0691 -0.0090
  463POPI   C2B 7290  14.952   9.139   9.356 -0.0973  0.1507  0.0300
  463POPI   C3B 7291  15.140   9.013   8.896 -0.0506  0.0549  0.3033
  463POPI   C4B 7292  15.438   8.975   8.441 -0.1218 -0.0582  0.0049
  464POPI    C1 7293  11.662  17.679  10.979  0.2288 -0.1002  0.0804
  464POPI    C2 7294  11.449  17.733  11.313  0.1066 -0.0187 -0.0098
  464POPI    C3 7295  11.767  17.491  11.316  0.0973 -0.0303  0.1614
  464POPI   PO4 7296  11.474  17.669  10.738 -0.0577 -0.0064 -0.1862
  464POPI   GL1 7297  11.387  17.790  10.260  0.4640  0.2832  0.1064
  464POPI   GL2 7298  11.267  17.485  10.293  0.1436 -0.1516  0.4791
  464POPI   C1A 7299  11.326  17.709   9.768  0.3656 -0.3054  0.1403
  464POPI   D2A 7300  11.383  17.832   9.390  0.0781  0.1781 -0.1594
  464POPI   C3A 7301  11.415  17.504   9.098 -0.0912 -0.1514 -0.0972
  464POPI   C4A 7302  11.377  17.469   8.603 -0.1853  0.2670  0.3522
  464POPI   C1B 7303  10.927  17.572  10.036 -0.0234 -0.3286  0.1636
  464POPI   C2B 7304  10.813  17.557   9.676  0.1867  0.1087  0.1478
  464POPI   C3B 7305  10.780  17.660   9.314 -0.0529  0.0478  0.2255
  464POPI   C4B 7306  10.573  17.971   8.981 -0.0332 -0.0376 -0.2979
  465POPI    C1 7307   6.659   1.490  11.113 -0.0552 -0.0240  0.0450
  465POPI    C2 7308   6.944   1.296  10.909  0.0279  0.3150 -0.1706
  465POPI    C3 7309   7.036   1.492  11.245  0.0443  0.4013 -0.2253
  465POPI   PO4 7310   6.478   1.616  10.796 -0.2218 -0.0232  0.2829
  465POPI   GL1 7311   6.495   1.712  10.344  0.2030 -0.2429  0.1084
  465POPI   GL2 7312   6.248   1.407  10.238  0.0025 -0.0503  0.1688
  465POPI   C1A 7313   6.807   1.520  10.068 -0.0026  0.0389  0.1283
  465POPI   D2A 7314   6.937   1.666   9.631 -0.2118 -0.0137 -0.0708
  465POPI   C3A 7315   7.351   2.052   9.562 -0.0170  0.1347  0.2008
  465POPI   C4A 7316   7.625   2.341   9.268 -0.0682  0.0270 -0.0074
  465POPI   C1B 7317   6.364   1.484   9.857  0.0490  0.3208  0.0584
  465POPI   C2B 7318   6.526   1.375   9.540 -0.0414  0.1646  0.1249
  465POPI   C3B 7319   6.660   1.444   9.109  0.0898 -0.0943  0.1455
  465POPI   C4B 7320   6.840   1.242   8.745  0.4226 -0.3365  0.0523
  466POPI    C1 7321  10.786  13.442  10.411  0.0121  0.1298  0.0321
  466POPI    C2 7322  10.669  13.060  10.393 -0.0674  0.1491  0.1289
  466POPI    C3 7323  11.051  13.149  10.470 -0.0320  0.0886  0.0267
  466POPI   PO4 7324  10.646  13.536  10.303 -0.1793  0.1203  0.0843
  466POPI   GL1 7325  10.590  13.400   9.846  0.4335 -0.0127  0.3405
  466POPI   GL2 7326  10.329  13.631   9.925  0.0701  0.0425 -0.0674
  466POPI   C1A 7327  10.494  13.639   9.477 -0.0859 -0.1116  0.0095
  466POPI   D2A 7328  10.486  14.062   9.187  0.0944  0.1755 -0.0841
  466POPI   C3A 7329  10.197  14.188   8.917 -0.0681  0.1970 -0.0923
  466POPI   C4A 7330  10.019  14.121   8.583  0.0269 -0.1037 -0.0063
  466POPI   C1B 7331  10.023  13.687   9.610 -0.0681 -0.0331  0.2278
  466POPI   C2B 7332  10.062  13.627   9.099 -0.2128 -0.0894 -0.0327
  466POPI   C3B 7333  10.207  13.685   8.730  0.0098  0.1945 -0.4477
  466POPI   C4B 7334  10.550  13.905   8.528  0.1225 -0.1970  0.0727
  467POPI    C1 7335   7.592   8.054  10.979  0.0869 -0.1826  0.0046
  467POPI    C2 7336   7.279   8.134  11.213 -0.0921 -0.1303 -0.2483
  467POPI    C3 7337   7.608   7.971  11.369 -0.1166  0.1248  0.0822
  467POPI   PO4 7338   7.512   7.960  10.778  0.4455  0.1457  0.1248
  467POPI   GL1 7339   7.258   8.068  10.429 -0.0786 -0.0748  0.0563
  467POPI   GL2 7340   7.412   7.813  10.274 -0.0412  0.0040 -0.0640
  467POPI   C1A 7341   7.237   8.204   9.989 -0.1885 -0.1886 -0.0795
  467POPI   D2A 7342   7.379   8.207   9.557 -0.0349  0.0869 -0.0020
  467POPI   C3A 7343   7.059   8.275   9.287 -0.0549 -0.0609  0.1145
  467POPI   C4A 7344   6.968   8.453   8.844 -0.1211 -0.0713 -0.2093
  467POPI   C1B 7345   7.615   7.819   9.837  0.2746 -0.2405  0.0816
  467POPI   C2B 7346   7.600   7.723   9.447 -0.0992  0.0246 -0.2285
  467POPI   C3B 7347   7.549   7.950   9.141  0.0804  0.0469 -0.2064
  467POPI   C4B 7348   7.504   8.335   9.008  0.2400  0.1620  0.1356
  468POPI    C1 7349  16.803   2.296  10.500 -0.1080  0.2190  0.2179
  468POPI    C2 7350  16.894   1.964  10.704  0.3688  0.2238  0.0259
  468POPI    C3 7351  16.513   2.078  10.668  0.1863 -0.3587  0.0073
  468POPI   PO4 7352  16.864   2.229  10.219  0.2308 -0.0913  0.1374
  468POPI   GL1 7353  17.247   2.208   9.837  0.1552  0.0104  0.0804
  468POPI   GL2 7354  17.476   2.370   9.788  0.1663 -0.1433  0.2064
  468POPI   C1A 7355  17.139   2.230   9.429 -0.0792  0.1682 -0.1831
  468POPI   D2A 7356  17.132   2.448   9.049  0.0062  0.1961  0.0440
  468POPI   C3A 7357  17.146   2.403   8.677 -0.1898 -0.1982 -0.0925
  468POPI   C4A 7358  17.216   2.533   8.273  0.0330  0.1822 -0.2019
  468POPI   C1B 7359  17.643   2.289   9.326 -0.0666  0.0940 -0.2969
  468POPI   C2B 7360  17.634   2.337   8.878  0.0150  0.0790 -0.1197
  468POPI   C3B 7361  17.656   2.446   8.507  0.1425  0.2329 -0.3172
  468POPI   C4B 7362  17.814   2.758   8.214 -0.0529  0.0745 -0.0034
  469POPI    C1 7363  10.480   9.797  10.646  0.0536 -0.0875 -0.2856
  469POPI    C2 7364  10.771   9.689  10.898 -0.1743 -0.1728 -0.0535
  469POPI    C3 7365  10.591  10.044  10.940  0.1172  0.0241 -0.4021
  469POPI   PO4 7366  10.647   9.650  10.391 -0.3283  0.1631 -0.1759
  469POPI   GL1 7367  10.399   9.731   9.979  0.2491 -0.0080 -0.0571
  469POPI   GL2 7368  10.298   9.543   9.843  0.1917 -0.0280  0.1514
  469POPI   C1A 7369  10.542   9.945   9.582  0.1381  0.2635  0.0651
  469POPI   D2A 7370  10.960  10.126   9.567 -0.1489 -0.0960  0.1547
  469POPI   C3A 7371  11.047  10.271   9.091  0.0244 -0.0155 -0.3534
  469POPI   C4A 7372  10.705  10.466   8.823  0.0965 -0.1666 -0.0041
  469POPI   C1B 7373  10.454   9.411   9.382 -0.1893 -0.0780 -0.0177
  469POPI   C2B 7374  10.389   9.343   8.952 -0.1142 -0.1229  0.2509
  469POPI   C3B 7375  10.240   9.317   8.492  0.1887  0.0576 -0.1808
  469POPI   C4B 7376   9.946   9.310   8.095  0.0124 -0.0806  0.0239
  470POPI    C1 7377   6.228   7.310  10.440 -0.2110 -0.6639 -0.1687
  470POPI    C2 7378   6.487   7.216  10.149  0.1518 -0.2484  0.0092
  470POPI    C3 7379   6.614   7.249  10.527 -0.1656 -0.0583  0.1035
  470POPI   PO4 7380   6.118   7.484  10.281 -0.0569  0.2200 -0.2166
  470POPI   GL1 7381   5.909   7.720  10.009 -0.0144  0.1048  0.0819
  470POPI   GL2 7382   5.715   8.081   9.848 -0.3455  0.2617 -0.0478
  470POPI   C1A 7383   5.989   7.735   9.587  0.2885 -0.0548  0.3013
  470POPI   D2A 7384   6.020   7.657   9.114  0.1529  0.1420 -0.0656
  470POPI   C3A 7385   6.088   7.407   8.764  0.1260  0.0885 -0.0556
  470POPI   C4A 7386   6.416   7.094   8.818  0.6932  0.1041  0.1640
  470POPI   C1B 7387   5.634   8.072   9.444  0.2252  0.0051 -0.2004
  470POPI   C2B 7388   5.676   8.055   8.983 -0.1937 -0.1044 -0.3008
  470POPI   C3B 7389   5.683   8.022   8.522  0.0997  0.0708 -0.2489
  470POPI   C4B 7390   5.421   7.935   8.159 -0.0555 -0.2110 -0.1660
  471POPI    C1 7391   8.591   2.200  10.730  0.0024 -0.0304  0.2362
  471POPI    C2 7392   8.891   2.047  10.946  0.1522 -0.1138 -0.0265
  471POPI    C3 7393   8.666   2.341  11.097  0.2120 -0.2149  0.2666
  471POPI   PO4 7394   8.624   2.258  10.465 -0.0839  0.3892 -0.1468
  471POPI   GL1 7395   8.476   2.505  10.128  0.0487 -0.3740  0.0216
  471POPI   GL2 7396   8.255   2.739  10.110 -0.1267 -0.1071  0.0920
  471POPI   C1A 7397   8.297   2.260   9.799 -0.0532 -0.0613  0.1414
  471POPI   D2A 7398   8.355   1.901   9.685 -0.1487 -0.5361 -0.3226
  471POPI   C3A 7399   8.420   1.977   9.324  0.0522 -0.3882 -0.2196
  471POPI   C4A 7400   8.496   2.038   8.920  0.4610  0.1978 -0.1414
  471POPI   C1B 7401   8.404   2.761   9.599  0.1086 -0.0383 -0.2351
  471POPI   C2B 7402   8.494   2.424   9.231  0.0275 -0.4095  0.0299
  471POPI   C3B 7403   8.653   2.478   8.900  0.1729 -0.3584  0.2329
  471POPI   C4B 7404   8.748   2.311   8.509  0.2790  0.0652 -0.1002
  472POPI    C1 7405  13.332   7.857  10.810  0.0458  0.2937  0.1399
  472POPI    C2 7406  13.729   7.902  10.807  0.0858 -0.0276 -0.1746
  472POPI    C3 7407  13.552   7.711  11.111  0.1639  0.1585 -0.0097
  472POPI   PO4 7408  13.303   8.123  10.593  0.0682  0.1118 -0.0972
  472POPI   GL1 7409  13.254   8.358  10.249  0.1080 -0.0453 -0.0942
  472POPI   GL2 7410  13.531   8.568  10.309  0.0097  0.0372 -0.0652
  472POPI   C1A 7411  13.066   8.354   9.806  0.0129  0.0452  0.1125
  472POPI   D2A 7412  13.228   8.282   9.419  0.3248 -0.3903  0.1496
  472POPI   C3A 7413  12.829   8.160   9.130  0.0416 -0.4161  0.0110
  472POPI   C4A 7414  12.826   8.245   8.734  0.1420 -0.0509  0.1770
  472POPI   C1B 7415  13.599   8.371   9.824 -0.1635  0.1175 -0.0842
  472POPI   C2B 7416  13.489   7.979   9.723  0.1386  0.1225 -0.0735
  472POPI   C3B 7417  13.368   7.859   9.372  0.0813  0.0893  0.0372
  472POPI   C4B 7418  13.215   7.897   8.914  0.0233  0.0606  0.1389
  473DPPI    C1 7419  11.563  13.312  10.544  0.1284  0.0502 -0.1337
  473DPPI    C2 7420  11.675  13.640  10.743  0.1209 -0.0282  0.0012
  473DPPI    C3 7421  11.768  13.278  10.886 -0.2204 -0.0937  0.0674
  473DPPI   PO4 7422  11.510  13.325  10.301 -0.0856 -0.0829  0.1301
  473DPPI   GL1 7423  11.211  13.413  10.050  0.1189 -0.2419  0.0297
  473DPPI   GL2 7424  11.427  13.550   9.849 -0.0727 -0.0900 -0.2396
  473DPPI   C1A 7425  10.962  13.517   9.591 -0.0654 -0.0891  0.0518
  473DPPI   C2A 7426  10.934  13.832   9.246  0.2561  0.1032 -0.1464
  473DPPI   C3A 7427  10.931  13.952   8.844  0.2394  0.0662  0.1524
  473DPPI   C4A 7428  11.196  14.029   8.512 -0.0758 -0.0279 -0.0627
  473DPPI   C1B 7429  11.548  13.527   9.440  0.0878  0.0834 -0.0379
  473DPPI   C2B 7430  11.640  13.325   9.151  0.1436  0.0911 -0.0222
  473DPPI   C3B 7431  11.470  13.086   8.813  0.1106  0.0357 -0.4070
  473DPPI   C4B 7432  11.559  13.094   8.623  0.1233  0.2106 -0.0665
  474DPPI    C1 7433   8.390  12.330  10.289 -0.0868  0.0225 -0.1597
  474DPPI    C2 7434   8.216  12.310  10.649  0.0203  0.1590 -0.0996
  474DPPI    C3 7435   8.014  12.198  10.323 -0.0391 -0.0720  0.0147
  474DPPI   PO4 7436   8.600  12.229  10.322  0.1152  0.2080 -0.1999
  474DPPI   GL1 7437   8.781  12.032   9.975  0.0608  0.1574  0.0015
  474DPPI   GL2 7438   8.465  12.067   9.859 -0.2027 -0.0329  0.1346
  474DPPI   C1A 7439   8.946  12.191   9.571  0.0777 -0.0609 -0.0530
  474DPPI   C2A 7440   8.983  12.124   9.270 -0.2947  0.1009 -0.2630
  474DPPI   C3A 7441   9.006  12.018   8.805 -0.0119 -0.1132  0.0867
  474DPPI   C4A 7442   9.135  12.028   8.299 -0.0000 -0.3198  0.1611
  474DPPI   C1B 7443   8.395  12.092   9.504 -0.1693  0.0977 -0.3653
  474DPPI   C2B 7444   8.503  12.130   9.080  0.0999  0.0979  0.3466
  474DPPI   C3B 7445   8.455  12.164   8.703 -0.2954 -0.2883  0.0929
  474DPPI   C4B 7446   8.539  12.307   8.333 -0.0704  0.3720 -0.0504
  475DPPI    C1 7447   7.443  13.678  10.363 -0.0050 -0.0669 -0.1233
  475DPPI    C2 7448   7.514  13.374  10.612  0.1509  0.0015 -0.0827
  475DPPI    C3 7449   7.563  13.750  10.737  0.0456  0.0414 -0.1598
  475DPPI   PO4 7450   7.645  13.562  10.096  0.2620 -0.0619  0.1181
  475DPPI   GL1 7451   7.614  13.698   9.747 -0.1975  0.3284  0.0181
  475DPPI   GL2 7452   7.909  13.777   9.644 -0.1808 -0.2237 -0.2325
  475DPPI   C1A 7453   7.519  13.734   9.285 -0.0793 -0.0406 -0.3994
  475DPPI   C2A 7454   7.557  13.661   8.807  0.1124 -0.0298  0.0691
  475DPPI   C3A 7455   7.513  13.508   8.473  0.0472  0.0126 -0.1066
  475DPPI   C4A 7456   7.457  13.377   7.930  0.5158 -0.4056 -0.2927
  475DPPI   C1B 7457   7.948  13.788   9.116 -0.2002  0.0066  0.0212
  475DPPI   C2B 7458   8.009  13.696   8.695  0.0904  0.3593  0.0328
  475DPPI   C3B 7459   8.145  13.670   8.277  0.2195 -0.0822  0.1550
  475DPPI   C4B 7460   8.313  14.005   7.996 -0.0353 -0.2075  0.0788
  476DPPI    C1 7461   8.205  16.862  10.548  0.0413 -0.2728  0.0303
  476DPPI    C2 7462   8.309  17.109  10.844 -0.0994 -0.1018 -0.0611
  476DPPI    C3 7463   8.319  16.714  10.901  0.2309 -0.0807  0.0521
  476DPPI   PO4 7464   8.377  17.024  10.286 -0.1123 -0.0197 -0.1474
  476DPPI   GL1 7465   8.568  17.011   9.942 -0.0581 -0.0618 -0.0806
  476DPPI   GL2 7466   8.590  16.719   9.835 -0.0371 -0.0796 -0.1839
  476DPPI   C1A 7467   8.818  17.289   9.732  0.1636 -0.0113 -0.0392
  476DPPI   C2A 7468   8.881  17.371   9.327  0.0123  0.0577 -0.0216
  476DPPI   C3A 7469   8.840  17.441   8.952 -0.0706  0.0351 -0.0002
  476DPPI   C4A 7470   8.843  17.546   8.484  0.3357 -0.0411  0.2293
  476DPPI   C1B 7471   8.605  16.937   9.401 -0.0955  0.2543  0.2373
  476DPPI   C2B 7472   8.533  17.024   9.009  0.0003 -0.1653 -0.3797
  476DPPI   C3B 7473   8.536  17.009   8.599 -0.0211 -0.0464  0.1077
  476DPPI   C4B 7474   8.342  16.933   8.211 -0.1196  0.0259 -0.0526
  477DPPI    C1 7475   4.983   9.982  10.646  0.0597  0.1185  0.0459
  477DPPI    C2 7476   4.764   9.679  10.788  0.1969  0.0068  0.0218
  477DPPI    C3 7477   4.926   9.944  11.040 -0.1740  0.2380  0.0255
  477DPPI   PO4 7478   5.077   9.929  10.417  0.0331 -0.0426 -0.3461
  477DPPI   GL1 7479   5.097  10.090  10.072  0.2513  0.0426  0.1479
  477DPPI   GL2 7480   4.869   9.899   9.948  0.2393 -0.3641  0.1581
  477DPPI   C1A 7481   4.981  10.307   9.663  0.0728 -0.1771  0.2150
  477DPPI   C2A 7482   5.019  10.149   9.243  0.2143 -0.2471  0.0717
  477DPPI   C3A 7483   5.002  10.108   8.862 -0.2801 -0.1746 -0.1289
  477DPPI   C4A 7484   4.927  10.060   8.475  0.0389  0.0770 -0.2708
  477DPPI   C1B 7485   5.015   9.802   9.628 -0.0738  0.1274 -0.1153
  477DPPI   C2B 7486   5.137   9.657   9.304  0.1289 -0.1456 -0.0861
  477DPPI   C3B 7487   5.115   9.639   8.893 -0.1026 -0.3818 -0.1201
  477DPPI   C4B 7488   5.151   9.539   8.517  0.2686 -0.0304 -0.1295
  478DPPI    C1 7489  14.137   3.600  10.953 -0.0763 -0.0258 -0.1248
  478DPPI    C2 7490  13.858   3.758  11.192 -0.0123 -0.0901 -0.0068
  478DPPI    C3 7491  14.192   3.604  11.349 -0.1681 -0.5397 -0.0997
  478DPPI   PO4 7492  13.958   3.402  10.810 -0.0154  0.0688  0.2152
  478DPPI   GL1 7493  13.854   3.358  10.398 -0.1125 -0.1565  0.2090
  478DPPI   GL2 7494  13.533   3.440  10.189  0.0596 -0.0110 -0.0327
  478DPPI   C1A 7495  13.930   3.163   9.981  0.1624  0.1381  0.0816
  478DPPI   C2A 7496  13.846   3.076   9.539 -0.2642 -0.0820 -0.1017
  478DPPI   C3A 7497  13.629   3.103   9.052 -0.0866  0.1101  0.0024
  478DPPI   C4A 7498  13.700   3.118   8.603 -0.5305 -0.3784 -0.2721
  478DPPI   C1B 7499  13.623   3.541   9.794  0.0438  0.0008  0.1376
  478DPPI   C2B 7500  13.659   3.528   9.419 -0.1930 -0.1531  0.1304
  478DPPI   C3B 7501  13.781   3.566   8.875  0.0225 -0.1245 -0.1156
  478DPPI   C4B 7502  13.875   3.653   8.485 -0.0946  0.1961  0.3119
  479DPPI    C1 7503  13.761  11.917  10.569  0.0056  0.0441  0.1465
  479DPPI    C2 7504  13.419  11.717  10.619  0.0398 -0.0142  0.1480
  479DPPI    C3 7505  13.457  12.088  10.764 -0.0192 -0.0113  0.1564
  479DPPI   PO4 7506  13.872  11.809  10.430 -0.1410 -0.0553 -0.1042
  479DPPI   GL1 7507  13.960  11.918  10.066  0.1161 -0.0876 -0.1776
  479DPPI   GL2 7508  13.803  12.041   9.838  0.0692  0.1080 -0.1593
  479DPPI   C1A 7509  14.209  11.591   9.772  0.0387 -0.0993  0.0385
  479DPPI   C2A 7510  14.213  11.549   9.312  0.0628  0.2138  0.0680
  479DPPI   C3A 7511  14.297  11.466   8.898 -0.1138  0.0287 -0.1366
  479DPPI   C4A 7512  14.330  11.520   8.453  0.2034  0.0429 -0.0073
  479DPPI   C1B 7513  13.827  11.910   9.442 -0.5708 -0.2172  0.3575
  479DPPI   C2B 7514  13.950  11.862   8.985 -0.3270  0.1668 -0.0963
  479DPPI   C3B 7515  14.057  11.878   8.546  0.1009 -0.0920  0.0896
  479DPPI   C4B 7516  14.108  12.161   8.191 -0.1229  0.1065  0.0579
  480DPPI    C1 7517   9.241   2.396  11.001  0.0425 -0.0856 -0.1495
  480DPPI    C2 7518   9.114   2.277  11.362 -0.2958  0.2442 -0.1537
  480DPPI    C3 7519   9.447   2.497  11.329 -0.0562 -0.1008 -0.0823
  480DPPI   PO4 7520   9.035   2.533  10.817 -0.1238 -0.1389 -0.1871
  480DPPI   GL1 7521   8.982   2.736  10.342  0.0667 -0.2313  0.2704
  480DPPI   GL2 7522   8.992   2.441  10.126  0.0783 -0.1047  0.0694
  480DPPI   C1A 7523   9.224   2.957  10.011  0.1019 -0.0450 -0.3736
  480DPPI   C2A 7524   9.505   3.203   9.713  0.1961  0.2233 -0.1472
  480DPPI   C3A 7525   9.607   3.305   9.341  0.0841 -0.1527 -0.0534
  480DPPI   C4A 7526   9.942   3.128   9.110 -0.1397 -0.1369 -0.3229
  480DPPI   C1B 7527   8.866   2.677   9.710  0.0690  0.0580 -0.0657
  480DPPI   C2B 7528   8.777   2.826   9.318 -0.0307 -0.1208  0.2235
  480DPPI   C3B 7529   8.856   2.986   8.918 -0.2904 -0.0400  0.2484
  480DPPI   C4B 7530   8.955   3.182   8.595 -0.0387  0.1317  0.0078
  481DPPI    C1 7531  10.991   5.209  10.511 -0.0392  0.1253  0.0389
  481DPPI    C2 7532  11.172   5.325  10.848  0.1437 -0.0164 -0.0089
  481DPPI    C3 7533  10.957   4.988  10.843 -0.1094  0.1415  0.0427
  481DPPI   PO4 7534  11.154   5.144  10.339 -0.0820  0.0986 -0.1211
  481DPPI   GL1 7535  11.211   5.257   9.941  0.0890  0.2752  0.1755
  481DPPI   GL2 7536  11.282   5.554   9.990 -0.1472 -0.1980  0.1291
  481DPPI   C1A 7537  11.210   5.173   9.649  0.1592  0.2427  0.1009
  481DPPI   C2A 7538  11.295   5.164   9.293  0.0683 -0.1413  0.0183
  481DPPI   C3A 7539  11.424   5.008   8.894 -0.0571 -0.2966  0.0391
  481DPPI   C4A 7540  11.472   5.222   8.487  0.0442  0.3649  0.0364
  481DPPI   C1B 7541  11.433   5.630   9.551 -0.1250  0.0332 -0.0448
  481DPPI   C2B 7542  11.473   5.596   9.133 -0.0439 -0.4498  0.3107
  481DPPI   C3B 7543  11.263   5.465   8.839 -0.0181 -0.2747 -0.0842
  481DPPI   C4B 7544  10.987   5.531   8.507 -0.3983 -0.2858 -0.0716
  482DPPI    C1 7545   4.135   6.064  10.023 -0.0493  0.0178 -0.1654
  482DPPI    C2 7546   3.832   6.138  10.273 -0.0079  0.0197 -0.1157
  482DPPI    C3 7547   3.858   5.784  10.089  0.0305 -0.0276 -0.0197
  482DPPI   PO4 7548   4.322   6.144  10.134  0.0236 -0.0277  0.2204
  482DPPI   GL1 7549   4.637   6.077   9.872  0.1942  0.1159  0.1217
  482DPPI   GL2 7550   4.821   6.241   9.981 -0.2845  0.1152  0.0684
  482DPPI   C1A 7551   4.545   6.021   9.451  0.3983  0.0147  0.2298
  482DPPI   C2A 7552   4.581   5.906   8.984  0.3083  0.0652 -0.0631
  482DPPI   C3A 7553   4.636   5.785   8.656  0.1765  0.0655  0.0836
  482DPPI   C4A 7554   4.473   5.686   8.337  0.1543  0.0718 -0.1445
  482DPPI   C1B 7555   5.080   6.169   9.631 -0.0419  0.0720  0.0835
  482DPPI   C2B 7556   5.023   6.071   9.252  0.2557  0.1874  0.0139
  482DPPI   C3B 7557   5.079   5.878   8.874 -0.0107 -0.0170 -0.2151
  482DPPI   C4B 7558   5.144   5.812   8.493 -0.2610  0.2802 -0.0105
  483DPPI    C1 7559  11.596  14.118  10.353  0.3158 -0.4086 -0.2516
  483DPPI    C2 7560  11.317  13.833  10.319  0.0461 -0.1891  0.0574
  483DPPI    C3 7561  11.388  14.002  10.675  0.4819 -0.1444 -0.0450
  483DPPI   PO4 7562  11.460  14.309  10.197 -0.0987 -0.1817  0.1876
  483DPPI   GL1 7563  11.235  14.259   9.850  0.0638  0.1215 -0.1587
  483DPPI   GL2 7564  11.565  14.511   9.769 -0.1611 -0.3923 -0.0356
  483DPPI   C1A 7565  11.336  13.938   9.514 -0.1084  0.0429  0.0970
  483DPPI   C2A 7566  11.418  13.798   9.028  0.1936 -0.1198  0.0683
  483DPPI   C3A 7567  11.594  13.669   8.557  0.1498  0.1431 -0.4277
  483DPPI   C4A 7568  11.378  13.728   8.146 -0.0048 -0.1350 -0.0716
  483DPPI   C1B 7569  11.636  14.388   9.363  0.0095 -0.5712 -0.0672
  483DPPI   C2B 7570  11.708  14.244   8.894 -0.0185  0.1561 -0.1057
  483DPPI   C3B 7571  11.664  14.214   8.455 -0.3146 -0.1104 -0.1152
  483DPPI   C4B 7572  12.007  14.168   8.039 -0.1503  0.2805  0.1529
  484DPPI    C1 7573   7.609  17.647  10.317  0.0245 -0.0021  0.1804
  484DPPI    C2 7574   7.254  17.464  10.300  0.0742 -0.1019  0.2093
  484DPPI    C3 7575   7.525  17.349  10.571  0.1760 -0.1109  0.1041
  484DPPI   PO4 7576   7.784  17.646  10.124 -0.1689 -0.0760 -0.0119
  484DPPI   GL1 7577   7.912  17.954   9.929 -0.0003 -0.0920 -0.0159
  484DPPI   GL2 7578   8.222  17.947   9.913 -0.1264 -0.0390  0.0263
  484DPPI   C1A 7579   7.630  18.133   9.572 -0.0097 -0.1193 -0.0126
  484DPPI   C2A 7580   7.718  18.182   9.210  0.0885  0.0399 -0.2194
  484DPPI   C3A 7581   7.725  18.329   8.812 -0.2284 -0.1277 -0.0284
  484DPPI   C4A 7582   7.628  18.234   8.441 -0.0128 -0.2888  0.2190
  484DPPI   C1B 7583   8.109  18.129   9.532  0.0882 -0.0708  0.2329
  484DPPI   C2B 7584   8.203  18.233   9.122  0.0598 -0.0052 -0.0378
  484DPPI   C3B 7585   8.192  18.275   8.692 -0.0866 -0.1989 -0.1239
  484DPPI   C4B 7586   8.122  18.180   8.345  0.3344 -0.0666 -0.0524
  485DPPI    C1 7587  16.661  17.177  10.726  0.0029  0.2661 -0.0625
  485DPPI    C2 7588  16.379  16.923  10.599  0.1070  0.1001  0.0324
  485DPPI    C3 7589  16.275  17.271  10.768 -0.0401  0.0448  0.0565
  485DPPI   PO4 7590  16.823  17.151  10.423 -0.2772  0.0007 -0.1585
  485DPPI   GL1 7591  16.649  17.032  10.088 -0.2329  0.0127 -0.2209
  485DPPI   GL2 7592  16.521  17.231   9.785  0.0439  0.0147  0.0435
  485DPPI   C1A 7593  16.914  16.908   9.812 -0.1952 -0.1551  0.0581
  485DPPI   C2A 7594  16.977  16.971   9.357  0.1486 -0.0432 -0.0534
  485DPPI   C3A 7595  16.941  17.083   8.972 -0.2235  0.3049 -0.1618
  485DPPI   C4A 7596  16.789  17.200   8.574  0.1197  0.0889  0.2496
  485DPPI   C1B 7597  16.502  17.248   9.369  0.2481 -0.1392 -0.0318
  485DPPI   C2B 7598  16.393  17.261   8.878 -0.1948  0.1887  0.1545
  485DPPI   C3B 7599  16.297  17.139   8.487 -0.0984  0.0475 -0.0736
  485DPPI   C4B 7600  16.515  16.911   8.116  0.0669  0.2257  0.1696
  486DPPI    C1 7601   1.536   2.977  10.511  0.1913  0.1645 -0.1643
  486DPPI    C2 7602   1.824   2.786  10.713  0.0897  0.1553 -0.0263
  486DPPI    C3 7603   1.791   3.184  10.740  0.0999  0.1583 -0.0561
  486DPPI   PO4 7604   1.518   2.892  10.198  0.0833 -0.3326 -0.1642
  486DPPI   GL1 7605   1.707   2.706   9.868  0.0386  0.1574 -0.0702
  486DPPI   GL2 7606   1.801   2.503   9.670 -0.2018  0.0560 -0.0305
  486DPPI   C1A 7607   1.767   3.031   9.574  0.0616 -0.2696 -0.0354
  486DPPI   C2A 7608   1.466   3.079   9.198 -0.2183 -0.1011 -0.0593
  486DPPI   C3A 7609   1.344   3.077   8.746  0.2650 -0.0387  0.3200
  486DPPI   C4A 7610   1.550   3.010   8.307 -0.0600  0.0920 -0.0575
  486DPPI   C1B 7611   1.786   2.734   9.183 -0.1857 -0.0614  0.1999
  486DPPI   C2B 7612   1.702   2.727   8.701  0.0946  0.2063 -0.0446
  486DPPI   C3B 7613   1.869   2.609   8.382  0.1635  0.1881 -0.0139
  486DPPI   C4B 7614   1.763   2.467   8.038 -0.3495  0.0086  0.3283
  487DPPI    C1 7615   8.450  13.117  10.438  0.0771  0.0884  0.0086
  487DPPI    C2 7616   8.275  12.803  10.261 -0.2854  0.3056 -0.0289
  487DPPI    C3 7617   8.384  12.781  10.645 -0.3106  0.1355 -0.0309
  487DPPI   PO4 7618   8.543  13.196  10.213 -0.3475  0.1487  0.0467
  487DPPI   GL1 7619   8.862  13.172  10.003 -0.0827 -0.1016 -0.0369
  487DPPI   GL2 7620   8.962  12.931   9.985 -0.1835 -0.0749  0.2097
  487DPPI   C1A 7621   8.708  13.217   9.567 -0.1979  0.0818 -0.0102
  487DPPI   C2A 7622   8.805  13.191   9.248 -0.0571  0.2433 -0.3343
  487DPPI   C3A 7623   8.927  13.238   8.901  0.0793 -0.1755  0.1906
  487DPPI   C4A 7624   8.962  13.278   8.475  0.4513 -0.0925  0.0141
  487DPPI   C1B 7625   9.182  13.023   9.529 -0.3496  0.0074 -0.2939
  487DPPI   C2B 7626   9.316  12.984   9.112  0.2378  0.1036 -0.1368
  487DPPI   C3B 7627   9.193  12.901   8.683 -0.0767 -0.2148 -0.0961
  487DPPI   C4B 7628   9.311  12.775   8.307  0.2448 -0.0825  0.3260
  488DPPI    C1 7629   9.831   6.516  10.396  0.1460 -0.2977  0.0670
  488DPPI    C2 7630  10.115   6.595  10.666  0.1376 -0.3415  0.0888
  488DPPI    C3 7631   9.779   6.411  10.779 -0.0151 -0.0526  0.1151
  488DPPI   PO4 7632   9.959   6.394  10.208  0.1018  0.3020 -0.0667
  488DPPI   GL1 7633  10.075   6.133  10.051 -0.1992 -0.2709 -0.2841
  488DPPI   GL2 7634  10.332   5.971  10.098 -0.2079  0.3591  0.1351
  488DPPI   C1A 7635  10.018   6.248   9.554 -0.0476 -0.1319 -0.2650
  488DPPI   C2A 7636   9.668   6.375   9.607  0.2548 -0.0031 -0.3881
  488DPPI   C3A 7637   9.158   6.471   9.678  0.2234  0.0616 -0.1015
  488DPPI   C4A 7638   8.829   6.694   9.761 -0.0080  0.1407  0.1896
  488DPPI   C1B 7639  10.411   5.978   9.658  0.1141 -0.1407 -0.1818
  488DPPI   C2B 7640  10.306   6.025   9.212  0.1692 -0.2575  0.2146
  488DPPI   C3B 7641  10.487   6.060   8.818 -0.3110  0.1129  0.3654
  488DPPI   C4B 7642  10.633   5.928   8.494  0.0302 -0.4259 -0.0780
  489DPPI    C1 7643  17.869   4.540  10.347  0.1637 -0.0696  0.0649
  489DPPI    C2 7644  17.717   4.756  10.647 -0.0494  0.0475 -0.1242
  489DPPI    C3 7645  17.525   4.429  10.519 -0.0701  0.1155 -0.2694
  489DPPI   PO4 7646  17.896   4.765  10.182 -0.1622  0.2228 -0.1566
  489DPPI   GL1 7647  18.079   4.797   9.809 -0.0790 -0.1482  0.1046
  489DPPI   GL2 7648  18.369   4.976   9.757  0.2139 -0.0959  0.3038
  489DPPI   C1A 7649  17.875   4.860   9.412 -0.0868  0.0566 -0.0409
  489DPPI   C2A 7650  17.792   4.876   8.926  0.3681 -0.1535 -0.0339
  489DPPI   C3A 7651  17.763   5.078   8.600  0.0927 -0.0436 -0.2983
  489DPPI   C4A 7652  17.781   5.255   8.289 -0.1748 -0.0827  0.0737
  489DPPI   C1B 7653  18.482   5.204   9.452 -0.0482 -0.0694  0.0492
  489DPPI   C2B 7654  18.579   5.348   9.055  0.3626  0.1505 -0.3058
  489DPPI   C3B 7655  18.674   5.400   8.661  0.3743  0.0061  0.1266
  489DPPI   C4B 7656  18.752   5.391   8.347  0.1443 -0.3353 -0.2606
  490DPPI    C1 7657   9.435  13.191  10.492 -0.0298  0.1504  0.0564
  490DPPI    C2 7658   9.608  13.538  10.391  0.1735  0.0074 -0.0935
  490DPPI    C3 7659   9.734  13.338  10.714 -0.0991  0.1853  0.1273
  490DPPI   PO4 7660   9.348  13.146  10.234 -0.0704  0.1639  0.0303
  490DPPI   GL1 7661   9.553  13.217   9.783  0.1254 -0.1314  0.1860
  490DPPI   GL2 7662   9.634  13.589   9.880  0.0632 -0.0171 -0.2066
  490DPPI   C1A 7663   9.699  13.314   9.350 -0.0684  0.0417  0.1655
  490DPPI   C2A 7664   9.600  13.371   8.888  0.1317 -0.1930  0.0514
  490DPPI   C3A 7665   9.527  13.225   8.497 -0.0462  0.0274  0.2397
  490DPPI   C4A 7666   9.413  13.224   8.053  0.1333 -0.0936  0.0778
  490DPPI   C1B 7667   9.237  13.515   9.567  0.2163  0.1420  0.1795
  490DPPI   C2B 7668   9.226  13.551   9.141  0.3786 -0.0429  0.2449
  490DPPI   C3B 7669   9.238  13.604   8.688 -0.1985  0.0725  0.0929
  490DPPI   C4B 7670   9.261  13.642   8.272  0.0547 -0.0811  0.2025
  491DPPI    C1 7671   0.632  12.423  10.396 -0.1830  0.0294 -0.0167
  491DPPI    C2 7672   0.782  12.663  10.679  0.1862 -0.0708 -0.1217
  491DPPI    C3 7673   0.653  12.296  10.775 -0.3962  0.1660  0.0422
  491DPPI   PO4 7674   0.422  12.499  10.270 -0.0514  0.0327 -0.1493
  491DPPI   GL1 7675   0.288  12.855   9.953  0.0473 -0.0172 -0.0490
  491DPPI   GL2 7676   0.380  12.873   9.677  0.1186  0.1245  0.1420
  491DPPI   C1A 7677  -0.017  12.618   9.728 -0.1008  0.0362  0.0767
  491DPPI   C2A 7678  -0.041  12.697   9.273  0.0355 -0.0732 -0.1685
  491DPPI   C3A 7679  -0.066  12.532   8.842  0.1262  0.0699  0.1709
  491DPPI   C4A 7680   0.001  12.770   8.463  0.1365  0.4173 -0.3589
  491DPPI   C1B 7681   0.430  13.002   9.345 -0.1484 -0.3339  0.0334
  491DPPI   C2B 7682   0.382  13.136   8.913 -0.2642  0.0482 -0.0452
  491DPPI   C3B 7683   0.276  13.384   8.565  0.0786 -0.1762  0.0669
  491DPPI   C4B 7684   0.262  13.579   8.135 -0.2035  0.0712 -0.0944
  492DPPI    C1 7685   5.850   3.976  10.580 -0.0400 -0.0512 -0.4134
  492DPPI    C2 7686   5.459   3.915  10.523 -0.0851  0.1243 -0.2993
  492DPPI    C3 7687   5.597   4.286  10.584  0.0305  0.0103  0.1707
  492DPPI   PO4 7688   5.971   3.861  10.388 -0.1407  0.1557  0.0285
  492DPPI   GL1 7689   6.273   4.056  10.036  0.1759 -0.0253 -0.1962
  492DPPI   GL2 7690   6.559   4.017   9.957 -0.0668  0.0750 -0.0192
  492DPPI   C1A 7691   6.220   3.826   9.627 -0.0445  0.1257 -0.0155
  492DPPI   C2A 7692   6.426   3.733   9.270  0.2276 -0.0074  0.1830
  492DPPI   C3A 7693   6.296   3.667   8.789 -0.1194 -0.2493 -0.1437
  492DPPI   C4A 7694   6.186   3.460   8.444 -0.1293 -0.0872  0.0331
  492DPPI   C1B 7695   6.740   3.839   9.625 -0.2634  0.1898  0.0030
  492DPPI   C2B 7696   6.898   4.048   9.256 -0.0876 -0.2022 -0.0052
  492DPPI   C3B 7697   6.993   4.171   8.878  0.2094  0.1855  0.2771
  492DPPI   C4B 7698   7.068   4.087   8.498 -0.3133 -0.0281  0.1541
  493DPPI    C1 7699   8.210   1.080  10.705  0.1081 -0.2647 -0.0434
  493DPPI    C2 7700   8.552   1.287  10.725  0.1171 -0.2382 -0.4057
  493DPPI    C3 7701   8.458   1.027  11.015  0.1525  0.1947  0.0066
  493DPPI   PO4 7702   8.287   0.915  10.447  0.1241 -0.0843 -0.0445
  493DPPI   GL1 7703   8.383   1.093  10.012 -0.2840  0.0548 -0.0226
  493DPPI   GL2 7704   8.698   1.127  10.216 -0.1555  0.2857 -0.0738
  493DPPI   C1A 7705   8.492   1.092   9.587 -0.0059  0.0341  0.2087
  493DPPI   C2A 7706   8.639   1.144   9.177  0.3103  0.2970 -0.1907
  493DPPI   C3A 7707   8.702   1.011   8.821  0.0612  0.2114  0.0316
  493DPPI   C4A 7708   8.413   0.943   8.497  0.0383  0.2694  0.2020
  493DPPI   C1B 7709   8.961   1.188   9.809 -0.0937 -0.2833  0.0792
  493DPPI   C2B 7710   9.125   1.286   9.443  0.0705  0.2474 -0.0839
  493DPPI   C3B 7711   9.120   1.143   9.082 -0.1896 -0.0697 -0.0443
  493DPPI   C4B 7712   9.245   1.050   8.689  0.1918  0.2101  0.0288
  494DPPI    C1 7713  15.325  10.787  10.370  0.0835  0.1433  0.0559
  494DPPI    C2 7714  15.484  10.554  10.653  0.2595 -0.0325 -0.1839
  494DPPI    C3 7715  15.500  10.952  10.689  0.0480 -0.0531  0.1782
  494DPPI   PO4 7716  15.430  10.680  10.137  0.1181 -0.0881  0.3180
  494DPPI   GL1 7717  15.338  10.698   9.783 -0.4594  0.4778 -0.0990
  494DPPI   GL2 7718  15.326  10.333   9.791  0.0889  0.1165  0.0048
  494DPPI   C1A 7719  15.531  10.688   9.466 -0.2723  0.1947  0.1173
  494DPPI   C2A 7720  15.676  10.866   9.103  0.1526  0.1951  0.1124
  494DPPI   C3A 7721  15.602  10.748   8.728 -0.2478  0.0225 -0.1883
  494DPPI   C4A 7722  15.466  10.812   8.329 -0.3506  0.0669  0.2254
  494DPPI   C1B 7723  15.240  10.283   9.313 -0.1564  0.1797 -0.2714
  494DPPI   C2B 7724  15.090  10.097   8.944 -0.1355  0.2815 -0.2330
  494DPPI   C3B 7725  15.131  10.177   8.551 -0.2518 -0.1137  0.0568
  494DPPI   C4B 7726  15.299  10.362   8.202 -0.1169  0.2002 -0.1265
  495DPPI    C1 7727  11.552  10.761  10.630 -0.0170 -0.1401 -0.2138
  495DPPI    C2 7728  11.575  10.464  10.897  0.2710 -0.0208 -0.1025
  495DPPI    C3 7729  11.271  10.724  10.913  0.1347 -0.1803 -0.0672
  495DPPI   PO4 7730  11.847  10.791  10.481 -0.0002  0.0606  0.3091
  495DPPI   GL1 7731  11.926  10.702  10.117 -0.0863 -0.0439  0.3000
  495DPPI   GL2 7732  11.673  10.808   9.852  0.3003  0.0824  0.0578
  495DPPI   C1A 7733  12.090  10.486   9.702  0.0168 -0.1237 -0.0819
  495DPPI   C2A 7734  12.062  10.465   9.304 -0.2356  0.2223 -0.2186
  495DPPI   C3A 7735  12.174  10.517   8.869  0.0573  0.1885  0.1138
  495DPPI   C4A 7736  12.160  10.408   8.468  0.2170  0.2944 -0.0185
  495DPPI   C1B 7737  11.644  10.798   9.518  0.1730 -0.0719  0.0872
  495DPPI   C2B 7738  11.749  10.813   9.152  0.3210  0.0991  0.3452
  495DPPI   C3B 7739  11.661  11.146   8.845  0.0662 -0.1514  0.0002
  495DPPI   C4B 7740  11.818  11.348   8.511 -0.0669  0.0913 -0.0300
  496DPPI    C1 7741   6.002   0.983  10.372  0.0916  0.2484 -0.1183
  496DPPI    C2 7742   6.130   0.802  10.705  0.0902  0.1149 -0.1900
  496DPPI    C3 7743   5.742   0.888  10.660  0.0835  0.0916 -0.1766
  496DPPI   PO4 7744   6.206   0.838  10.221 -0.3458  0.4605  0.0637
  496DPPI   GL1 7745   6.227   0.990   9.871 -0.2772 -0.0486  0.0365
  496DPPI   GL2 7746   5.943   0.772   9.828 -0.0833 -0.2136  0.3593
  496DPPI   C1A 7747   6.534   0.914   9.641  0.1781  0.2943 -0.1457
  496DPPI   C2A 7748   6.539   0.950   9.271  0.0174  0.4000  0.0953
  496DPPI   C3A 7749   6.409   0.767   8.930 -0.3691 -0.2902 -0.1784
  496DPPI   C4A 7750   6.408   0.557   8.611  0.4433 -0.1945  0.1046
  496DPPI   C1B 7751   6.154   0.675   9.465  0.1406  0.1595  0.0501
  496DPPI   C2B 7752   5.956   0.776   9.106  0.0944 -0.0489  0.0387
  496DPPI   C3B 7753   5.972   0.461   8.764  0.1173  0.1865  0.0679
  496DPPI   C4B 7754   6.118   0.296   8.364 -0.1235 -0.2962 -0.2234
  497DPPI    C1 7755   4.940  14.109  10.005  0.0355  0.1274 -0.0549
  497DPPI    C2 7756   4.612  14.314   9.904 -0.1653 -0.0868  0.1519
  497DPPI    C3 7757   4.766  14.352  10.271  0.0958  0.0805  0.0279
  497DPPI   PO4 7758   5.071  14.185   9.787 -0.1540 -0.0768 -0.2514
  497DPPI   GL1 7759   4.908  14.303   9.468  0.0227 -0.0623 -0.1184
  497DPPI   GL2 7760   4.896  14.618   9.334  0.1228  0.1265  0.0330
  497DPPI   C1A 7761   4.901  14.016   9.057  0.0807 -0.0996 -0.0370
  497DPPI   C2A 7762   4.843  14.071   8.714  0.0161  0.0591 -0.0383
  497DPPI   C3A 7763   4.946  14.105   8.261  0.1917  0.1024 -0.0971
  497DPPI   C4A 7764   4.759  14.298   7.842  0.0318  0.1976 -0.1827
  497DPPI   C1B 7765   5.027  14.810   8.937  0.0606 -0.1880  0.0073
  497DPPI   C2B 7766   5.159  14.969   8.526 -0.1202  0.0312 -0.1132
  497DPPI   C3B 7767   5.186  14.946   8.091 -0.0481 -0.1966 -0.2583
  497DPPI   C4B 7768   5.023  15.156   7.736 -0.2306  0.0520 -0.2007
  498DPPI    C1 7769   1.351  14.424  10.577 -0.0770  0.0253  0.0688
  498DPPI    C2 7770   1.399  14.718  10.844 -0.0707  0.0691  0.0196
  498DPPI    C3 7771   1.172  14.401  10.935 -0.1201  0.1139  0.0533
  498DPPI   PO4 7772   1.526  14.599  10.368 -0.1526 -0.2667 -0.0765
  498DPPI   GL1 7773   1.590  14.840  10.088 -0.1519 -0.2155 -0.1550
  498DPPI   GL2 7774   1.378  15.043   9.949  0.3180 -0.1822 -0.1326
  498DPPI   C1A 7775   1.770  14.867   9.638 -0.0154 -0.0043  0.1730
  498DPPI   C2A 7776   1.737  14.861   9.202  0.1383  0.2520  0.0026
  498DPPI   C3A 7777   1.678  15.017   8.803 -0.2305 -0.2049  0.1865
  498DPPI   C4A 7778   1.396  14.964   8.461  0.1526 -0.0875 -0.2197
  498DPPI   C1B 7779   1.196  15.187   9.624  0.3186 -0.1445  0.0547
  498DPPI   C2B 7780   1.203  15.367   9.146  0.2520 -0.0545 -0.1902
  498DPPI   C3B 7781   1.227  15.415   8.711  0.2281  0.0765  0.3144
  498DPPI   C4B 7782   1.281  15.547   8.283 -0.0614  0.1100 -0.2200
  499DPPI    C1 7783   3.586  11.819  10.326  0.1300 -0.0401 -0.0109
  499DPPI    C2 7784   3.340  11.505  10.360  0.0708  0.0320  0.2467
  499DPPI    C3 7785   3.428  11.726  10.682  0.1477  0.2534  0.0759
  499DPPI   PO4 7786   3.548  11.967  10.116 -0.4996 -0.0503 -0.4172
  499DPPI   GL1 7787   3.840  11.912   9.767 -0.1727  0.3197 -0.3483
  499DPPI   GL2 7788   3.764  11.521   9.933  0.1169 -0.0205  0.0342
  499DPPI   C1A 7789   3.761  11.838   9.322  0.5840  0.0557 -0.0706
  499DPPI   C2A 7790   3.658  11.981   8.952  0.1851  0.1210  0.1889
  499DPPI   C3A 7791   3.629  12.121   8.597 -0.0317  0.1065  0.0723
  499DPPI   C4A 7792   3.948  12.056   8.400 -0.0350 -0.1065 -0.5200
  499DPPI   C1B 7793   3.557  11.445   9.545  0.0929 -0.0770 -0.2787
  499DPPI   C2B 7794   3.614  11.394   9.094 -0.3984  0.0192  0.2728
  499DPPI   C3B 7795   3.780  11.594   8.663  0.0025 -0.0961 -0.2067
  499DPPI   C4B 7796   3.619  11.677   8.246 -0.1093 -0.2212  0.1854
  500DPPI    C1 7797   2.759  13.621  10.237  0.1309  0.0916 -0.0412
  500DPPI    C2 7798   2.490  13.329  10.193  0.1000  0.1217 -0.0517
  500DPPI    C3 7799   2.747  13.319  10.499  0.0009  0.1611  0.0335
  500DPPI   PO4 7800   2.865  13.661  10.047  0.1294  0.3296 -0.1800
  500DPPI   GL1 7801   2.783  13.641   9.675 -0.2624 -0.0469 -0.3295
  500DPPI   GL2 7802   2.446  13.440   9.661 -0.0686 -0.1381  0.2043
  500DPPI   C1A 7803   2.662  13.754   9.269  0.0764 -0.1260 -0.0494
  500DPPI   C2A 7804   2.680  13.787   8.914  0.3862  0.1504  0.0373
  500DPPI   C3A 7805   2.410  13.801   8.543 -0.1011  0.1139 -0.1933
  500DPPI   C4A 7806   2.536  13.911   8.043 -0.0609  0.0028 -0.2532
  500DPPI   C1B 7807   2.207  13.556   9.342 -0.0570  0.0485  0.2350
  500DPPI   C2B 7808   2.088  13.562   8.890 -0.0060 -0.0029  0.1596
  500DPPI   C3B 7809   1.845  13.555   8.584 -0.2073  0.2393 -0.2288
  500DPPI   C4B 7810   1.654  13.722   8.191 -0.0254  0.2536  0.2092
  501DPPI    C1 7811   0.877   0.213  10.347  0.1629  0.1490 -0.1725
  501DPPI    C2 7812   1.102   0.423  10.603  0.0624  0.0436  0.0047
  501DPPI    C3 7813   0.787   0.216  10.737 -0.0003 -0.0014 -0.2074
  501DPPI   PO4 7814   0.824   0.370  10.185  0.0009 -0.3397  0.0275
  501DPPI   GL1 7815   0.953   0.473   9.717 -0.0441 -0.1630 -0.2201
  501DPPI   GL2 7816   1.186   0.632   9.614  0.1215 -0.0845  0.1196
  501DPPI   C1A 7817   0.623   0.649   9.386 -0.0872  0.3330 -0.0222
  501DPPI   C2A 7818   0.760   0.777   8.904 -0.2274  0.1092  0.1141
  501DPPI   C3A 7819   0.786   0.948   8.463  0.1551 -0.1550  0.0735
  501DPPI   C4A 7820   0.697   0.826   8.097 -0.0938 -0.1368  0.0451
  501DPPI   C1B 7821   1.143   0.674   9.206 -0.0836 -0.0021  0.1393
  501DPPI   C2B 7822   1.322   0.646   8.787 -0.1344  0.1892 -0.3386
  501DPPI   C3B 7823   1.244   0.655   8.416 -0.1216  0.0665 -0.4013
  501DPPI   C4B 7824   1.332   0.860   8.158 -0.0478 -0.0381 -0.0261
  502DPPI    C1 7825   1.759  11.655  10.488 -0.1511 -0.0429  0.1127
  502DPPI    C2 7826   2.009  11.407  10.298  0.2088  0.2937  0.1334
  502DPPI    C3 7827   1.964  11.380  10.695  0.0873  0.1298  0.1098
  502DPPI   PO4 7828   1.514  11.611  10.328  0.0199  0.1158  0.1979
  502DPPI   GL1 7829   1.381  11.517   9.950  0.1729  0.0616 -0.1138
  502DPPI   GL2 7830   1.142  11.297   9.981 -0.2885 -0.0120 -0.2012
  502DPPI   C1A 7831   1.511  11.402   9.479 -0.0625  0.1905  0.1505
  502DPPI   C2A 7832   1.615  11.388   9.051  0.2272  0.3359  0.3439
  502DPPI   C3A 7833   1.772  11.329   8.542  0.0827  0.1306 -0.2386
  502DPPI   C4A 7834   1.609  11.518   8.178  0.1559 -0.5148 -0.3798
  502DPPI   C1B 7835   1.074  11.166   9.548 -0.3068 -0.0189 -0.0963
  502DPPI   C2B 7836   1.194  11.151   9.186 -0.0084 -0.1057 -0.0593
  502DPPI   C3B 7837   1.206  11.293   8.810 -0.0624 -0.1029  0.0190
  502DPPI   C4B 7838   1.262  11.258   8.383 -0.0571  0.1907  0.0034
  503DPPI    C1 7839  14.183   4.359  10.610  0.0137  0.0532  0.1799
  503DPPI    C2 7840  14.070   4.733  10.525 -0.1865 -0.0435  0.0118
  503DPPI    C3 7841  14.250   4.652  10.873  0.0188  0.2391 -0.0260
  503DPPI   PO4 7842  14.338   4.262  10.376  0.1541  0.1075 -0.2277
  503DPPI   GL1 7843  14.263   4.020  10.038 -0.4075 -0.1338  0.1147
  503DPPI   GL2 7844  14.040   3.732  10.089  0.2868 -0.0318 -0.1623
  503DPPI   C1A 7845  14.242   4.053   9.614  0.1137  0.4033  0.0154
  503DPPI   C2A 7846  14.451   3.919   9.225  0.4447 -0.2211 -0.3026
  503DPPI   C3A 7847  14.748   3.710   8.888  0.0498  0.1672 -0.0637
  503DPPI   C4A 7848  14.876   3.589   8.452  0.0421 -0.2060  0.2701
  503DPPI   C1B 7849  14.074   3.588   9.674 -0.0185  0.0565  0.0156
  503DPPI   C2B 7850  14.158   3.445   9.263 -0.0833 -0.1455  0.1167
  503DPPI   C3B 7851  14.293   3.498   8.824 -0.0558  0.0978  0.0330
  503DPPI   C4B 7852  14.378   3.506   8.367 -0.0409 -0.4749 -0.1706
  504DPPI    C1 7853  13.018   6.144  10.609  0.1258 -0.0757  0.2001
  504DPPI    C2 7854  12.889   5.814  10.794  0.0505 -0.2391 -0.1354
  504DPPI    C3 7855  13.260   5.829  10.645  0.1693 -0.0457  0.1704
  504DPPI   PO4 7856  12.809   6.216  10.485 -0.0604  0.0849  0.0477
  504DPPI   GL1 7857  12.722   6.253   9.966 -0.0378  0.0499 -0.3980
  504DPPI   GL2 7858  12.535   6.367   9.800  0.1370  0.0267  0.0161
  504DPPI   C1A 7859  12.745   6.175   9.387  0.0835  0.0414 -0.1983
  504DPPI   C2A 7860  12.590   6.138   9.003 -0.5998 -0.1041 -0.2125
  504DPPI   C3A 7861  12.482   6.380   8.632 -0.0396 -0.2647 -0.1855
  504DPPI   C4A 7862  12.851   6.408   8.382 -0.0713 -0.2776 -0.0242
  504DPPI   C1B 7863  12.616   6.625   9.520  0.0258 -0.1486  0.0049
  504DPPI   C2B 7864  12.491   6.630   9.121 -0.0298  0.0117 -0.1709
  504DPPI   C3B 7865  12.330   6.806   8.783 -0.0146  0.1043 -0.1406
  504DPPI   C4B 7866  12.506   7.226   8.597  0.2473 -0.2285 -0.0785
  505DPPI    C1 7867   5.878  17.162  10.118  0.2621 -0.0651 -0.0169
  505DPPI    C2 7868   5.811  17.464  10.371  0.0245 -0.2366  0.1298
  505DPPI    C3 7869   6.144  17.244  10.405  0.2965  0.1262 -0.1017
  505DPPI   PO4 7870   5.559  17.006  10.097 -0.1374 -0.2284  0.3246
  505DPPI   GL1 7871   5.492  17.069   9.698 -0.2342 -0.0423  0.1724
  505DPPI   GL2 7872   5.376  17.382   9.605 -0.2552  0.0115  0.1251
  505DPPI   C1A 7873   5.843  17.349   9.556  0.0408 -0.2786  0.0614
  505DPPI   C2A 7874   5.954  17.478   9.139 -0.1715 -0.0661 -0.0589
  505DPPI   C3A 7875   6.119  17.479   8.768 -0.0411  0.1766  0.0278
  505DPPI   C4A 7876   6.280  17.492   8.324  0.0604 -0.1354  0.2209
  505DPPI   C1B 7877   5.460  17.255   9.210 -0.2279 -0.0592  0.1575
  505DPPI   C2B 7878   5.563  17.248   8.778  0.0444 -0.1640 -0.0701
  505DPPI   C3B 7879   5.872  17.192   8.395  0.0040 -0.0090  0.0785
  505DPPI   C4B 7880   5.787  17.293   7.948  0.2257  0.0913 -0.0329
  506DPPI    C1 7881  11.596   4.579  11.084 -0.0370  0.0899  0.3268
  506DPPI    C2 7882  11.953   4.544  11.260 -0.1150 -0.0572  0.4586
  506DPPI    C3 7883  11.760   4.894  11.269  0.1549  0.1062  0.1324
  506DPPI   PO4 7884  11.631   4.486  10.825 -0.1339 -0.2799 -0.1751
  506DPPI   GL1 7885  11.773   4.423  10.413  0.0118 -0.0089 -0.1197
  506DPPI   GL2 7886  11.767   4.072  10.397 -0.1370  0.0142  0.3918
  506DPPI   C1A 7887  11.764   4.439   9.920  0.2861  0.0753  0.2117
  506DPPI   C2A 7888  11.889   4.399   9.502 -0.2679  0.0236 -0.1163
  506DPPI   C3A 7889  12.122   4.225   9.131 -0.0102  0.1603 -0.0771
  506DPPI   C4A 7890  12.209   4.225   8.671 -0.0496 -0.1398 -0.0059
  506DPPI   C1B 7891  11.642   3.955   9.966  0.2127 -0.2567 -0.3806
  506DPPI   C2B 7892  11.622   3.837   9.533 -0.0516  0.2689 -0.1658
  506DPPI   C3B 7893  11.772   3.857   9.109 -0.1401 -0.0046 -0.0547
  506DPPI   C4B 7894  11.827   3.678   8.802  0.1287 -0.0479 -0.1100
  507DPPI    C1 7895  11.443   3.994  10.822  0.0040  0.1188 -0.0516
  507DPPI    C2 7896  11.157   4.051  11.095  0.1113 -0.0046  0.0880
  507DPPI    C3 7897  11.542   4.085  11.199  0.1505  0.0411 -0.0704
  507DPPI   PO4 7898  11.313   4.184  10.528  0.4191  0.0028  0.2294
  507DPPI   GL1 7899  11.316   4.304  10.150  0.0754 -0.2237  0.0611
  507DPPI   GL2 7900  11.399   4.696  10.221 -0.0954 -0.1965  0.0096
  507DPPI   C1A 7901  11.339   4.307   9.719 -0.0214  0.1030  0.1648
  507DPPI   C2A 7902  11.389   4.321   9.363 -0.2200 -0.2007  0.0549
  507DPPI   C3A 7903  11.414   4.272   8.943 -0.1546  0.1842  0.1566
  507DPPI   C4A 7904  11.674   4.141   8.582  0.0438  0.1375 -0.2918
  507DPPI   C1B 7905  11.521   4.867   9.776 -0.1612 -0.0477 -0.0868
  507DPPI   C2B 7906  11.568   4.775   9.394 -0.2302 -0.0467 -0.0314
  507DPPI   C3B 7907  11.760   4.600   8.881  0.2347  0.1174 -0.0805
  507DPPI   C4B 7908  11.921   4.633   8.446  0.0041 -0.2076  0.1699
  508DPPI    C1 7909  11.493   9.795  10.395  0.0711  0.1818 -0.1884
  508DPPI    C2 7910  11.155   9.815  10.607 -0.0265  0.1957 -0.3436
  508DPPI    C3 7911  11.483  10.003  10.736 -0.0704  0.1606 -0.1790
  508DPPI   PO4 7912  11.490   9.810  10.181 -0.0473 -0.1084 -0.0331
  508DPPI   GL1 7913  11.337   9.715   9.778  0.0588 -0.0551 -0.0941
  508DPPI   GL2 7914  11.458   9.444   9.875  0.1427 -0.0581  0.0238
  508DPPI   C1A 7915  11.708   9.724   9.431  0.0578 -0.0970  0.0522
  508DPPI   C2A 7916  11.778   9.465   9.148 -0.0856  0.1467 -0.0826
  508DPPI   C3A 7917  11.832   9.497   8.753 -0.0866  0.1783 -0.0958
  508DPPI   C4A 7918  11.887   9.721   8.391  0.0577  0.2969  0.0964
  508DPPI   C1B 7919  11.323   9.311   9.493 -0.1000  0.0373 -0.0887
  508DPPI   C2B 7920  11.337   9.374   9.014  0.0137  0.1950 -0.2543
  508DPPI   C3B 7921  11.434   9.237   8.611 -0.2042 -0.2407 -0.0210
  508DPPI   C4B 7922  11.605   9.231   8.230  0.1051  0.1353 -0.0871
  509DPPI    C1 7923  12.644  11.364  10.729 -0.0607 -0.2747  0.1315
  509DPPI    C2 7924  12.780  11.703  10.892 -0.1188 -0.0570 -0.2620
  509DPPI    C3 7925  12.470  11.513  11.057 -0.0250  0.0280  0.0168
  509DPPI   PO4 7926  12.579  11.399  10.509  0.1650 -0.1994 -0.0472
  509DPPI   GL1 7927  12.631  11.309  10.071  0.2245 -0.3261  0.1639
  509DPPI   GL2 7928  12.900  11.569   9.912 -0.0206 -0.2202 -0.1527
  509DPPI   C1A 7929  12.562  11.227   9.573  0.0146 -0.2263 -0.2013
  509DPPI   C2A 7930  12.631  11.154   9.230 -0.2066  0.1529 -0.0626
  509DPPI   C3A 7931  12.645  11.112   8.838 -0.1076 -0.0988  0.1628
  509DPPI   C4A 7932  12.614  11.182   8.314  0.4052 -0.1558 -0.1623
  509DPPI   C1B 7933  13.108  11.332   9.644  0.2761 -0.1492  0.3932
  509DPPI   C2B 7934  13.148  11.205   9.147  0.1834  0.0797  0.0194
  509DPPI   C3B 7935  13.152  11.291   8.658 -0.1130 -0.0331 -0.1151
  509DPPI   C4B 7936  13.116  11.347   8.197 -0.0887  0.1685  0.3002
  510DPPI    C1 7937  12.809   4.518  10.787 -0.0175 -0.0025 -0.0523
  510DPPI    C2 7938  12.866   4.579  11.178 -0.0428 -0.0185 -0.0461
  510DPPI    C3 7939  12.907   4.212  11.025 -0.1003 -0.0248 -0.0465
  510DPPI   PO4 7940  12.652   4.627  10.731 -0.2056 -0.2196  0.2040
  510DPPI   GL1 7941  12.702   4.620  10.265  0.0189  0.2858 -0.0869
  510DPPI   GL2 7942  12.746   4.854  10.205  0.3002 -0.1757  0.1800
  510DPPI   C1A 7943  12.866   4.447   9.852 -0.2177 -0.0366 -0.0974
  510DPPI   C2A 7944  12.920   4.414   9.508  0.0330  0.0403  0.4788
  510DPPI   C3A 7945  13.181   4.341   9.213 -0.2908 -0.1527 -0.1866
  510DPPI   C4A 7946  13.118   4.300   8.831 -0.2512 -0.1663  0.2738
  510DPPI   C1B 7947  12.585   4.849   9.781 -0.1838 -0.1109  0.0464
  510DPPI   C2B 7948  12.565   4.721   9.431  0.2690  0.0737  0.1454
  510DPPI   C3B 7949  12.850   4.661   9.011 -0.0455 -0.0046 -0.0999
  510DPPI   C4B 7950  12.928   4.798   8.669  0.1992 -0.0506 -0.3234
  511DPPI    C1 7951  15.587  15.030  10.639  0.2694  0.1852  0.1113
  511DPPI    C2 7952  15.751  14.697  10.786 -0.1341  0.0160  0.1912
  511DPPI    C3 7953  15.673  15.005  11.029  0.1658  0.1417  0.1318
  511DPPI   PO4 7954  15.446  14.945  10.380  0.1419  0.0045 -0.2162
  511DPPI   GL1 7955  15.309  14.880  10.003 -0.1155  0.2348  0.1177
  511DPPI   GL2 7956  15.117  14.675   9.797  0.0399  0.3318 -0.1464
  511DPPI   C1A 7957  15.547  14.563   9.651  0.0530 -0.0024  0.0905
  511DPPI   C2A 7958  15.518  14.500   9.207 -0.1063  0.1791 -0.0617
  511DPPI   C3A 7959  15.521  14.560   8.791  0.0871  0.2229 -0.1470
  511DPPI   C4A 7960  15.713  14.635   8.384  0.1478 -0.1164  0.1052
  511DPPI   C1B 7961  15.207  14.828   9.353 -0.2145  0.0711  0.0143
  511DPPI   C2B 7962  15.301  14.988   8.914 -0.0460 -0.0198 -0.1825
  511DPPI   C3B 7963  15.387  15.062   8.561  0.1845  0.0987 -0.1778
  511DPPI   C4B 7964  15.423  14.963   8.121  0.1951  0.0441  0.3515
  512DPPI    C1 7965  11.980  16.311  10.701 -0.0435  0.1829  0.0748
  512DPPI    C2 7966  12.364  16.386  10.783  0.0215  0.0541 -0.1060
  512DPPI    C3 7967  12.159  16.126  11.007  0.0178  0.1779  0.0360
  512DPPI   PO4 7968  11.976  16.339  10.399 -0.3236 -0.0770 -0.0643
  512DPPI   GL1 7969  12.006  16.024  10.119 -0.3030 -0.0770  0.1647
  512DPPI   GL2 7970  12.330  16.113  10.039 -0.2328  0.3001 -0.1723
  512DPPI   C1A 7971  11.859  15.953   9.715 -0.1591 -0.1060  0.2143
  512DPPI   C2A 7972  11.739  15.521   9.529 -0.1050 -0.0368  0.2089
  512DPPI   C3A 7973  11.995  15.450   9.174 -0.0406 -0.1462  0.3874
  512DPPI   C4A 7974  12.101  15.471   8.788 -0.2182  0.0716  0.0267
  512DPPI   C1B 7975  12.289  16.308   9.639  0.1763 -0.2651 -0.2398
  512DPPI   C2B 7976  12.232  16.425   9.221 -0.0746 -0.0811  0.2042
  512DPPI   C3B 7977  12.217  16.476   8.833 -0.0681 -0.0677 -0.1417
  512DPPI   C4B 7978  11.978  16.311   8.499  0.1954  0.2750  0.0213
  513PYPI    C1 7979   4.509  11.173  10.378 -0.1154 -0.1772  0.0770
  513PYPI    C2 7980   4.792  10.908  10.477 -0.1595 -0.1493  0.2805
  513PYPI    C3 7981   4.439  10.905  10.666 -0.1246  0.1170  0.3547
  513PYPI   PO4 7982   4.532  11.185  10.151  0.2347  0.0478  0.0570
  513PYPI   GL1 7983   4.675  11.502   9.874  0.1213 -0.0781  0.2213
  513PYPI   GL2 7984   5.006  11.607   9.812 -0.0674 -0.0633 -0.0773
  513PYPI   C1A 7985   4.555  11.590   9.453 -0.0864 -0.0345  0.1645
  513PYPI   C2A 7986   4.665  11.429   9.061 -0.0819 -0.3742 -0.0008
  513PYPI   D3A 7987   4.817  11.299   8.595 -0.2720  0.2636 -0.0778
  513PYPI   C4A 7988   4.626  11.487   8.267  0.0787 -0.0317 -0.1201
  513PYPI   C1B 7989   5.098  11.555   9.373  0.0594 -0.0586  0.1366
  513PYPI   C2B 7990   5.285  11.374   8.936  0.2337  0.4840 -0.3620
  513PYPI   C3B 7991   5.300  11.274   8.530 -0.3479 -0.3299 -0.0761
  513PYPI   C4B 7992   5.249  11.285   8.093 -0.2419  0.0497 -0.0926
  514PYPI    C1 7993   2.682  16.105  10.243  0.2497 -0.1239  0.0404
  514PYPI    C2 7994   2.666  16.381  10.532  0.1463 -0.1328  0.0436
  514PYPI    C3 7995   2.624  15.994  10.623 -0.1958 -0.1132 -0.0188
  514PYPI   PO4 7996   2.906  16.142  10.155  0.3290  0.0257  0.1663
  514PYPI   GL1 7997   3.032  16.309   9.892 -0.0113  0.2141 -0.4178
  514PYPI   GL2 7998   2.990  16.585   9.891 -0.0151  0.1468  0.0687
  514PYPI   C1A 7999   2.915  16.217   9.510  0.3268  0.0394  0.2759
  514PYPI   C2A 8000   2.861  16.362   9.073 -0.0778 -0.1386  0.1488
  514PYPI   D3A 8001   2.849  16.553   8.630 -0.3409 -0.0002 -0.1617
  514PYPI   C4A 8002   2.751  16.431   8.179  0.1452  0.0425 -0.0906
  514PYPI   C1B 8003   2.998  16.898   9.605 -0.1408 -0.1804 -0.0563
  514PYPI   C2B 8004   2.999  16.861   9.154 -0.0250 -0.2098  0.1324
  514PYPI   C3B 8005   2.963  17.047   8.801  0.0485 -0.0557  0.0968
  514PYPI   C4B 8006   2.747  17.261   8.448  0.1476 -0.1878  0.0067
  515PYPI    C1 8007   4.167   7.333  10.348  0.0229  0.2209  0.0653
  515PYPI    C2 8008   3.901   7.243  10.633 -0.0787 -0.1220 -0.1326
  515PYPI    C3 8009   4.187   6.980  10.535  0.0768  0.0738 -0.2121
  515PYPI   PO4 8010   4.094   7.394  10.184  0.1461 -0.3359 -0.0408
  515PYPI   GL1 8011   4.128   7.050   9.894 -0.0352  0.1453  0.2035
  515PYPI   GL2 8012   3.908   7.317   9.763  0.2563 -0.0077 -0.0841
  515PYPI   C1A 8013   4.336   7.005   9.591 -0.3540 -0.0071 -0.1504
  515PYPI   C2A 8014   4.451   6.974   9.170  0.2656  0.2987 -0.0054
  515PYPI   D3A 8015   4.595   6.827   8.747 -0.3081  0.1526 -0.0036
  515PYPI   C4A 8016   5.021   6.843   8.629 -0.0268 -0.1464 -0.0543
  515PYPI   C1B 8017   4.069   7.338   9.359 -0.0995 -0.0690  0.0340
  515PYPI   C2B 8018   3.921   7.368   8.824 -0.0608 -0.2392 -0.1077
  515PYPI   C3B 8019   4.072   7.466   8.418  0.2195 -0.1274  0.1759
  515PYPI   C4B 8020   4.147   7.418   8.054 -0.1901  0.0585  0.3168
  516PYPI    C1 8021  16.098  10.455  10.570  0.0773 -0.0489 -0.1415
  516PYPI    C2 8022  15.941  10.087  10.570  0.1357 -0.0737 -0.1471
  516PYPI    C3 8023  16.091  10.241  10.908  0.0065 -0.0103 -0.1182
  516PYPI   PO4 8024  15.964  10.589  10.418 -0.1508  0.0202  0.3649
  516PYPI   GL1 8025  16.041  10.612  10.000 -0.0750 -0.1087  0.1620
  516PYPI   GL2 8026  15.875  10.889   9.823  0.0353 -0.0720  0.0784
  516PYPI   C1A 8027  16.056  10.490   9.544 -0.2410 -0.2353 -0.1092
  516PYPI   C2A 8028  16.143  10.631   9.127  0.1046 -0.1946  0.1669
  516PYPI   D3A 8029  16.164  10.788   8.707  0.0409 -0.1361 -0.0188
  516PYPI   C4A 8030  15.971  11.144   8.487  0.1213 -0.1546  0.1360
  516PYPI   C1B 8031  15.995  10.989   9.454 -0.1192  0.1077 -0.1513
  516PYPI   C2B 8032  16.157  11.154   9.131 -0.0265 -0.0096  0.0029
  516PYPI   C3B 8033  16.474  11.241   8.717  0.1381 -0.0812 -0.0008
  516PYPI   C4B 8034  16.569  11.174   8.312  0.0274 -0.2458  0.0783
  517PYPI    C1 8035  13.860   4.211  10.993  0.1833  0.3810 -0.2623
  517PYPI    C2 8036  13.669   4.340  11.320  0.0943 -0.0185 -0.1513
  517PYPI    C3 8037  14.067   4.377  11.293  0.1294 -0.1826  0.1016
  517PYPI   PO4 8038  13.676   4.273  10.730  0.0783 -0.0581  0.2328
  517PYPI   GL1 8039  13.637   4.116  10.285 -0.2394 -0.0294 -0.3238
  517PYPI   GL2 8040  13.855   4.362  10.241  0.1959  0.0023  0.2452
  517PYPI   C1A 8041  13.806   4.036   9.822 -0.1001 -0.2694  0.1796
  517PYPI   C2A 8042  13.858   3.977   9.370  0.1810  0.1853 -0.0675
  517PYPI   D3A 8043  14.107   3.988   8.917 -0.1346 -0.0339 -0.1411
  517PYPI   C4A 8044  14.104   4.127   8.486 -0.1400 -0.3051 -0.0664
  517PYPI   C1B 8045  14.019   4.483   9.826 -0.3967 -0.1385  0.0805
  517PYPI   C2B 8046  14.031   4.603   9.437  0.3774  0.1447  0.0879
  517PYPI   C3B 8047  14.067   4.539   8.888  0.0553 -0.1191 -0.2058
  517PYPI   C4B 8048  14.253   4.573   8.485  0.0765  0.2697 -0.0352
  518PYPI    C1 8049  16.670   7.975  10.244  0.0731 -0.2120  0.0085
  518PYPI    C2 8050  16.625   7.758  10.577 -0.2543 -0.1396  0.0143
  518PYPI    C3 8051  16.572   8.155  10.588  0.3143 -0.0552 -0.0023
  518PYPI   PO4 8052  16.851   7.847  10.084 -0.1026  0.1036  0.0156
  518PYPI   GL1 8053  17.200   7.874   9.748 -0.0818 -0.0286  0.0158
  518PYPI   GL2 8054  17.487   7.905   9.880  0.1368  0.0980  0.0344
  518PYPI   C1A 8055  17.112   7.765   9.322  0.1104 -0.2860 -0.3227
  518PYPI   C2A 8056  17.209   7.621   8.860  0.3945 -0.1355 -0.1878
  518PYPI   D3A 8057  17.497   7.770   8.460  0.0769  0.3548  0.0142
  518PYPI   C4A 8058  17.566   8.055   8.129  0.1060 -0.0879 -0.1432
  518PYPI   C1B 8059  17.577   7.889   9.444  0.1935 -0.2363  0.1206
  518PYPI   C2B 8060  17.449   8.025   9.008 -0.0843 -0.0108  0.0833
  518PYPI   C3B 8061  17.479   8.264   8.601  0.1114  0.2213 -0.2977
  518PYPI   C4B 8062  17.302   8.490   8.190  0.0029 -0.1390 -0.0711
  519PYPI    C1 8063   9.200  16.172  10.515 -0.0168  0.1126  0.0061
  519PYPI    C2 8064   9.508  16.144  10.770  0.0111  0.0480 -0.0343
  519PYPI    C3 8065   9.137  16.060  10.894  0.0137  0.0954  0.0061
  519PYPI   PO4 8066   9.249  16.494  10.385  0.2723 -0.0911  0.0583
  519PYPI   GL1 8067   9.287  16.671  10.103  0.2378  0.0417 -0.1061
  519PYPI   GL2 8068   9.087  16.839   9.878 -0.2769 -0.1197  0.2699
  519PYPI   C1A 8069   9.533  16.746   9.749 -0.0023 -0.1114 -0.2002
  519PYPI   C2A 8070   9.704  16.694   9.429  0.1572 -0.1241  0.0269
  519PYPI   D3A 8071   9.670  16.639   9.016  0.2330 -0.0084  0.2000
  519PYPI   C4A 8072   9.290  16.650   8.823 -0.1367  0.4008 -0.2558
  519PYPI   C1B 8073   9.110  16.906   9.494 -0.2529 -0.0302 -0.1394
  519PYPI   C2B 8074   9.028  16.996   9.060  0.0052 -0.1610 -0.2518
  519PYPI   C3B 8075   9.045  17.076   8.639  0.2497 -0.1636  0.0581
  519PYPI   C4B 8076   9.185  17.187   8.263 -0.0318 -0.1334 -0.0954
  520PYPI    C1 8077  17.279  16.651  10.479 -0.0187 -0.0597  0.0960
  520PYPI    C2 8078  16.940  16.687  10.270  0.0584  0.0024 -0.0188
  520PYPI    C3 8079  16.944  16.775  10.660 -0.0817 -0.0985  0.0063
  520PYPI   PO4 8080  17.451  16.608  10.218 -0.1611 -0.0006  0.1662
  520PYPI   GL1 8081  17.511  16.663   9.830 -0.0300 -0.0035  0.0384
  520PYPI   GL2 8082  17.522  16.313   9.835 -0.0840  0.0042  0.0886
  520PYPI   C1A 8083  17.413  16.757   9.435  0.0159 -0.0035  0.0447
  520PYPI   C2A 8084  17.320  16.735   8.985  0.0277 -0.3067 -0.2423
  520PYPI   D3A 8085  17.189  16.565   8.618 -0.1659 -0.0919 -0.0606
  520PYPI   C4A 8086  17.140  16.872   8.408 -0.1698  0.0932 -0.0608
  520PYPI   C1B 8087  17.671  16.287   9.512 -0.0284 -0.0945  0.1946
  520PYPI   C2B 8088  17.633  16.381   9.053 -0.0636 -0.1823 -0.0098
  520PYPI   C3B 8089  17.680  16.259   8.605  0.3960  0.1621  0.2205
  520PYPI   C4B 8090  17.694  16.158   8.126 -0.1037  0.0874 -0.1624
  521PYPI    C1 8091   5.913   1.625  10.929  0.0594 -0.1495  0.1786
  521PYPI    C2 8092   6.088   1.283  10.819  0.3907  0.0790 -0.0245
  521PYPI    C3 8093   6.098   1.399  11.202 -0.1636 -0.3796  0.1431
  521PYPI   PO4 8094   5.978   1.775  10.692  0.2260 -0.2319  0.0019
  521PYPI   GL1 8095   5.919   1.825  10.239 -0.0297  0.3448 -0.1202
  521PYPI   GL2 8096   6.154   2.064  10.252 -0.0135  0.2316 -0.1722
  521PYPI   C1A 8097   5.996   1.834   9.808 -0.2214  0.2100  0.1513
  521PYPI   C2A 8098   5.912   1.964   9.349 -0.1086 -0.3005  0.0096
  521PYPI   D3A 8099   5.884   1.899   8.792  0.1568  0.0158  0.0182
  521PYPI   C4A 8100   5.821   1.418   8.600  0.0406  0.0891 -0.0809
  521PYPI   C1B 8101   6.217   2.272   9.833 -0.0072 -0.1690  0.4579
  521PYPI   C2B 8102   6.387   2.357   9.453  0.0814 -0.1609 -0.4701
  521PYPI   C3B 8103   6.596   2.357   9.097 -0.1615 -0.1613 -0.0589
  521PYPI   C4B 8104   6.407   2.419   8.661 -0.0012 -0.3741  0.2564
  522PYPI    C1 8105   2.565   4.057  10.353  0.1525 -0.0826 -0.0036
  522PYPI    C2 8106   2.391   3.697  10.369  0.1123 -0.0698 -0.1375
  522PYPI    C3 8107   2.512   3.876  10.706 -0.3203  0.0117 -0.0191
  522PYPI   PO4 8108   2.773   4.082  10.195 -0.0690 -0.0510  0.0069
  522PYPI   GL1 8109   2.734   4.361   9.812  0.2138  0.0272 -0.1887
  522PYPI   GL2 8110   3.006   4.539   9.842 -0.2220 -0.0515 -0.1249
  522PYPI   C1A 8111   2.670   4.577   9.442 -0.2096 -0.0360 -0.0126
  522PYPI   C2A 8112   2.733   4.544   9.047 -0.1499 -0.1678  0.0539
  522PYPI   D3A 8113   2.776   4.598   8.616  0.0382 -0.1324 -0.0613
  522PYPI   C4A 8114   3.004   4.286   8.461  0.1879 -0.3176 -0.0221
  522PYPI   C1B 8115   3.182   4.665   9.479 -0.0260  0.0037 -0.1878
  522PYPI   C2B 8116   3.205   4.584   9.068 -0.0569 -0.0006  0.1269
  522PYPI   C3B 8117   3.291   4.628   8.718  0.2007  0.1569  0.0562
  522PYPI   C4B 8118   3.239   4.705   8.247 -0.2228  0.0314 -0.0413
  523PYPI    C1 8119   3.107   6.881  10.442 -0.2295  0.0686  0.1409
  523PYPI    C2 8120   3.471   6.936  10.599 -0.0996  0.1829 -0.1929
  523PYPI    C3 8121   3.211   6.692  10.779  0.2067 -0.0449 -0.0500
  523PYPI   PO4 8122   3.188   7.033  10.158 -0.0518 -0.1849  0.2125
  523PYPI   GL1 8123   3.382   6.763   9.802 -0.1540 -0.0630  0.0590
  523PYPI   GL2 8124   3.695   6.853   9.649 -0.0471  0.0177  0.0555
  523PYPI   C1A 8125   3.257   6.832   9.377  0.0510 -0.1537 -0.0467
  523PYPI   C2A 8126   3.390   6.838   9.032 -0.1449  0.0972 -0.1554
  523PYPI   D3A 8127   3.495   7.059   8.622  0.2142  0.1900 -0.0026
  523PYPI   C4A 8128   3.534   6.799   8.184  0.3280 -0.2220 -0.1589
  523PYPI   C1B 8129   3.846   6.899   9.268 -0.0543  0.0468 -0.0731
  523PYPI   C2B 8130   3.967   6.834   8.818 -0.0379  0.0695 -0.2821
  523PYPI   C3B 8131   3.921   6.998   8.400 -0.1377 -0.2112  0.0536
  523PYPI   C4B 8132   3.997   6.917   8.054 -0.2501  0.1596  0.1244
  524PYPI    C1 8133  11.116   7.447  10.519  0.0598  0.1966  0.1088
  524PYPI    C2 8134  11.056   7.120  10.741  0.1157  0.0828 -0.0414
  524PYPI    C3 8135  11.029   7.483  10.907 -0.1533  0.0095  0.0806
  524PYPI   PO4 8136  11.407   7.439  10.453  0.1575  0.2571  0.1783
  524PYPI   GL1 8137  11.603   7.387  10.092 -0.1441 -0.1080 -0.1069
  524PYPI   GL2 8138  11.376   7.460   9.797  0.0350 -0.1364  0.2729
  524PYPI   C1A 8139  12.146   7.415  10.005  0.1226  0.3800 -0.1005
  524PYPI   C2A 8140  12.503   7.393   9.646  0.2955 -0.0125 -0.3506
  524PYPI   D3A 8141  12.835   7.219   9.457  0.0126 -0.3222 -0.1632
  524PYPI   C4A 8142  13.120   7.487   9.225 -0.2195 -0.0209  0.1491
  524PYPI   C1B 8143  11.387   7.744   9.441 -0.1208 -0.2449  0.0389
  524PYPI   C2B 8144  11.318   7.788   9.021 -0.1044 -0.2922  0.0743
  524PYPI   C3B 8145  11.172   7.646   8.606 -0.2408  0.0372  0.0855
  524PYPI   C4B 8146  10.940   7.631   8.152  0.0159  0.1466  0.0828
  525PYPI    C1 8147  18.083   7.674  10.496  0.0084 -0.1390  0.0888
  525PYPI    C2 8148  18.010   7.790  10.871 -0.0249 -0.1369  0.0817
  525PYPI    C3 8149  18.230   7.464  10.802 -0.0083 -0.1303  0.1028
  525PYPI   PO4 8150  18.300   7.885  10.358  0.2218 -0.1027 -0.0311
  525PYPI   GL1 8151  18.327   7.945   9.957 -0.0036 -0.1099 -0.1165
  525PYPI   GL2 8152  18.014   7.733   9.964 -0.3974 -0.0797  0.0535
  525PYPI   C1A 8153  18.564   7.787   9.675  0.0353 -0.2027 -0.1524
  525PYPI   C2A 8154  18.559   7.933   9.277  0.0380 -0.0192 -0.2434
  525PYPI   D3A 8155  18.664   8.124   8.941 -0.4494 -0.0099 -0.0112
  525PYPI   C4A 8156  18.445   8.286   8.616 -0.1569 -0.0228 -0.2362
  525PYPI   C1B 8157  18.130   7.597   9.578 -0.0812 -0.1308  0.2781
  525PYPI   C2B 8158  18.052   7.766   9.225  0.2145  0.2577  0.2165
  525PYPI   C3B 8159  18.216   7.805   8.886  0.1101  0.2450  0.3090
  525PYPI   C4B 8160  18.434   7.813   8.520 -0.0873 -0.1525 -0.4238
  526PYPI    C1 8161  15.495   0.269  10.206  0.2384  0.2132  0.3960
  526PYPI    C2 8162  15.253   0.303  10.522 -0.1265 -0.0018  0.1480
  526PYPI    C3 8163  15.543   0.027  10.521 -0.2473 -0.1303  0.2178
  526PYPI   PO4 8164  15.402   0.298   9.997  0.2908  0.2244  0.0905
  526PYPI   GL1 8165  15.584   0.272   9.562 -0.0637 -0.1535 -0.2933
  526PYPI   GL2 8166  15.537   0.615   9.594 -0.0185  0.0315 -0.2248
  526PYPI   C1A 8167  15.528   0.201   9.141 -0.0563  0.2662  0.0460
  526PYPI   C2A 8168  15.431   0.223   8.564  0.1004  0.1583 -0.1943
  526PYPI   D3A 8169  15.292   0.317   8.140 -0.0501 -0.1148 -0.1991
  526PYPI   C4A 8170  15.176   0.646   8.014 -0.1351  0.0507 -0.1216
  526PYPI   C1B 8171  15.554   0.706   9.113 -0.1071  0.1688 -0.0906
  526PYPI   C2B 8172  15.544   0.862   8.726  0.1943  0.0836 -0.0635
  526PYPI   C3B 8173  15.620   0.745   8.354  0.0048  0.2241 -0.0908
  526PYPI   C4B 8174  15.754   0.596   7.978 -0.2264 -0.0328 -0.0057
  527PYPI    C1 8175   5.274  11.065  10.776 -0.0929 -0.0941 -0.0777
  527PYPI    C2 8176   5.204  10.753  11.016 -0.1386  0.0127  0.0492
  527PYPI    C3 8177   4.919  11.026  10.954 -0.0432  0.1178  0.0707
  527PYPI   PO4 8178   5.320  11.012  10.537 -0.0242 -0.1699  0.1352
  527PYPI   GL1 8179   5.264  10.956  10.165  0.1949  0.0125 -0.0682
  527PYPI   GL2 8180   4.991  11.108   9.997 -0.0923  0.0682  0.1393
  527PYPI   C1A 8181   5.227  10.774   9.687 -0.0115 -0.0295  0.0173
  527PYPI   C2A 8182   5.203  10.619   9.298 -0.3658 -0.0758  0.1060
  527PYPI   D3A 8183   5.300  10.517   8.968 -0.1433  0.0773 -0.1928
  527PYPI   C4A 8184   5.202  10.482   8.556 -0.0316  0.0139  0.0219
  527PYPI   C1B 8185   4.929  11.146   9.544  0.1493  0.0077 -0.1407
  527PYPI   C2B 8186   4.953  11.025   9.182  0.2035  0.1852  0.1137
  527PYPI   C3B 8187   5.056  10.919   8.837  0.0457  0.2988  0.1014
  527PYPI   C4B 8188   5.061  10.862   8.384  0.3246  0.1037 -0.0535
  528PYPI    C1 8189  15.394   9.972  10.546 -0.1395 -0.0737 -0.0122
  528PYPI    C2 8190  15.449   9.719  10.851  0.1391  0.0222  0.0203
  528PYPI    C3 8191  15.545  10.105  10.892  0.0668  0.0592 -0.1513
  528PYPI   PO4 8192  15.496   9.767  10.346  0.1757  0.0146  0.0536
  528PYPI   GL1 8193  15.561   9.799   9.845  0.0803 -0.0607 -0.1221
  528PYPI   GL2 8194  15.925   9.807   9.990 -0.2620 -0.0789 -0.3500
  528PYPI   C1A 8195  15.688  10.103   9.564  0.0261 -0.1608  0.0544
  528PYPI   C2A 8196  15.756  10.354   9.087 -0.1163  0.2926 -0.0099
  528PYPI   D3A 8197  15.680  10.207   8.798 -0.0417 -0.1850  0.0441
  528PYPI   C4A 8198  15.755  10.395   8.423  0.1033  0.0053  0.1015
  528PYPI   C1B 8199  16.216  10.003   9.690  0.1235 -0.0610 -0.3056
  528PYPI   C2B 8200  16.174  10.051   9.256  0.0146  0.3363 -0.1695
  528PYPI   C3B 8201  16.161  10.146   8.774  0.1563  0.1489  0.1471
  528PYPI   C4B 8202  16.429  10.138   8.410 -0.1639 -0.0111 -0.0902
  529PYPI    C1 8203   3.164  12.523  10.310  0.1590  0.2064  0.1162
  529PYPI    C2 8204   3.520  12.451  10.143  0.1097  0.1563  0.0322
  529PYPI    C3 8205   3.437  12.307  10.507  0.0445 -0.1409 -0.0971
  529PYPI   PO4 8206   2.960  12.535  10.188 -0.1851 -0.1002  0.2036
  529PYPI   GL1 8207   2.886  12.323   9.792  0.3002  0.1239  0.1265
  529PYPI   GL2 8208   2.936  12.201   9.502  0.0324 -0.3153  0.1649
  529PYPI   C1A 8209   2.612  12.623   9.446 -0.2610 -0.2928 -0.0776
  529PYPI   C2A 8210   2.477  12.682   9.006  0.0744 -0.0007  0.1294
  529PYPI   D3A 8211   2.440  12.735   8.522  0.2036  0.2673  0.0163
  529PYPI   C4A 8212   2.751  12.835   8.263 -0.1096 -0.0323 -0.3380
  529PYPI   C1B 8213   2.908  12.317   9.119  0.2287  0.0866  0.0670
  529PYPI   C2B 8214   2.864  12.367   8.692 -0.1748  0.0995 -0.0609
  529PYPI   C3B 8215   2.861  12.357   8.285 -0.4019  0.0622 -0.1408
  529PYPI   C4B 8216   2.645  12.436   7.902  0.0146 -0.1294 -0.0732
  530PYPI    C1 8217  12.532  16.831  10.794  0.1497 -0.1210 -0.0329
  530PYPI    C2 8218  12.331  17.155  10.914  0.0771 -0.1987  0.0575
  530PYPI    C3 8219  12.553  16.949  11.176  0.1404 -0.2097 -0.0047
  530PYPI   PO4 8220  12.526  16.890  10.525  0.2348 -0.1814 -0.1697
  530PYPI   GL1 8221  12.671  16.955  10.099 -0.1234  0.0635  0.0812
  530PYPI   GL2 8222  12.801  17.231  10.263  0.2262  0.0507  0.0378
  530PYPI   C1A 8223  12.796  16.968   9.650 -0.0431 -0.0819 -0.0918
  530PYPI   C2A 8224  12.754  16.925   9.240 -0.1204 -0.2884  0.1067
  530PYPI   D3A 8225  12.546  16.820   8.944 -0.0058 -0.0402  0.0839
  530PYPI   C4A 8226  12.646  16.682   8.592  0.0438  0.0941  0.3520
  530PYPI   C1B 8227  12.601  17.412   9.802  0.2231 -0.0166 -0.1939
  530PYPI   C2B 8228  12.624  17.413   9.408 -0.0945  0.2192 -0.1981
  530PYPI   C3B 8229  12.563  17.312   8.947 -0.1908  0.1181 -0.3570
  530PYPI   C4B 8230  12.370  17.194   8.517  0.0325  0.0063  0.0476
  531PYPI    C1 8231   6.968   1.915  10.831  0.0677 -0.1770 -0.0096
  531PYPI    C2 8232   6.739   1.998  11.148 -0.1203  0.2960 -0.2602
  531PYPI    C3 8233   7.130   2.080  11.157 -0.0693  0.0399 -0.0492
  531PYPI   PO4 8234   6.910   2.037  10.592  0.4951 -0.0056  0.3734
  531PYPI   GL1 8235   6.719   2.199  10.207  0.0169  0.0696 -0.1871
  531PYPI   GL2 8236   7.045   2.024  10.037  0.1213 -0.2072  0.1299
  531PYPI   C1A 8237   6.541   1.923   9.903  0.1847 -0.0956 -0.1231
  531PYPI   C2A 8238   6.475   1.882   9.445 -0.0667 -0.1610  0.3115
  531PYPI   D3A 8239   6.401   1.917   9.084  0.2996 -0.2084  0.3787
  531PYPI   C4A 8240   6.322   1.683   8.678 -0.2021 -0.0321  0.0668
  531PYPI   C1B 8241   6.862   2.149   9.543 -0.0567 -0.1049  0.2472
  531PYPI   C2B 8242   6.916   1.949   9.186  0.1714  0.3987  0.2312
  531PYPI   C3B 8243   6.741   1.981   8.700 -0.0696 -0.0268 -0.4800
  531PYPI   C4B 8244   6.799   2.093   8.285 -0.0648 -0.2008  0.0260
  532PYPI    C1 8245  17.047   4.434  10.519 -0.2364 -0.3581 -0.1378
  532PYPI    C2 8246  17.011   4.621  10.870  0.1878  0.1580 -0.3536
  532PYPI    C3 8247  17.169   4.254  10.854  0.0058  0.0592  0.0056
  532PYPI   PO4 8248  16.955   4.659  10.402  0.2129  0.0409 -0.0705
  532PYPI   GL1 8249  16.982   4.700   9.968  0.0506  0.3521  0.0383
  532PYPI   GL2 8250  17.089   5.050   9.981 -0.3381  0.0488  0.0268
  532PYPI   C1A 8251  16.963   4.644   9.541  0.2208 -0.0834 -0.0913
  532PYPI   C2A 8252  17.220   4.867   9.204 -0.4022 -0.1502  0.1700
  532PYPI   D3A 8253  17.282   4.673   8.802 -0.0369 -0.1126 -0.2100
  532PYPI   C4A 8254  17.618   4.637   8.480 -0.1566 -0.1564 -0.0367
  532PYPI   C1B 8255  16.927   5.198   9.544  0.2119 -0.0303  0.2672
  532PYPI   C2B 8256  16.999   5.420   9.079  0.3167  0.0404  0.2326
  532PYPI   C3B 8257  16.777   5.689   8.929  0.5075  0.0743  0.1276
  532PYPI   C4B 8258  16.972   5.963   8.659 -0.0866 -0.0439 -0.5142
  533PYPI    C1 8259   5.809  13.383  10.207 -0.2135  0.0821  0.1880
  533PYPI    C2 8260   5.783  13.768  10.102  0.0089  0.0511  0.0094
  533PYPI    C3 8261   5.915  13.668  10.466  0.0650  0.1412  0.0140
  533PYPI   PO4 8262   5.545  13.335  10.047 -0.1617 -0.2303  0.2086
  533PYPI   GL1 8263   5.571  13.365   9.609  0.0519 -0.0556 -0.1644
  533PYPI   GL2 8264   5.899  13.346   9.582  0.2447 -0.0715  0.2464
  533PYPI   C1A 8265   5.586  13.447   9.219 -0.0334 -0.0655 -0.0057
  533PYPI   C2A 8266   5.732  13.460   8.792 -0.0486 -0.1770 -0.0835
  533PYPI   D3A 8267   5.687  13.487   8.384 -0.2005 -0.0934  0.1432
  533PYPI   C4A 8268   5.915  13.329   8.012 -0.4248  0.1230  0.0100
  533PYPI   C1B 8269   6.063  13.602   9.164  0.2276  0.1184 -0.1525
  533PYPI   C2B 8270   6.197  13.655   8.709  0.0406  0.3770  0.1200
  533PYPI   C3B 8271   6.106  13.710   8.262  0.0922  0.4253 -0.2606
  533PYPI   C4B 8272   6.399  13.537   7.856 -0.0013 -0.0768 -0.1801
  534PYPI    C1 8273   8.727  10.154  10.311  0.3015  0.2220  0.1991
  534PYPI    C2 8274   8.496  10.458  10.428 -0.1516 -0.0749  0.1060
  534PYPI    C3 8275   8.718  10.261  10.696  0.0227  0.2314  0.1924
  534PYPI   PO4 8276   8.549   9.998  10.119 -0.0517  0.1165 -0.1329
  534PYPI   GL1 8277   8.790   9.886   9.754 -0.0503 -0.0887  0.1585
  534PYPI   GL2 8278   9.014  10.117   9.904 -0.1084  0.1407  0.2136
  534PYPI   C1A 8279   8.845   9.823   9.222  0.0253  0.1023  0.2098
  534PYPI   C2A 8280   8.930   9.876   8.800 -0.4111 -0.0860  0.2263
  534PYPI   D3A 8281   8.860  10.227   8.498  0.0740  0.1067 -0.1325
  534PYPI   C4A 8282   8.911  10.072   8.235  0.5124  0.1435  0.2015
  534PYPI   C1B 8283   9.195  10.243   9.631  0.0623 -0.1768 -0.0574
  534PYPI   C2B 8284   9.248  10.190   9.157  0.1505  0.1298 -0.0910
  534PYPI   C3B 8285   9.289  10.405   8.764  0.0490 -0.1678 -0.0937
  534PYPI   C4B 8286   9.114  10.673   8.494  0.1872  0.0904 -0.0837
  535PYPI    C1 8287  11.983  17.522  10.598  0.1737 -0.1235  0.0726
  535PYPI    C2 8288  12.342  17.392  10.480  0.1941 -0.1239  0.1348
  535PYPI    C3 8289  12.304  17.759  10.633  0.1669 -0.1214  0.1217
  535PYPI   PO4 8290  11.853  17.512  10.339 -0.1130 -0.1202  0.0554
  535PYPI   GL1 8291  11.673  17.403  10.017 -0.1389 -0.1224 -0.2205
  535PYPI   GL2 8292  11.626  17.108  10.114 -0.0788 -0.0870 -0.0812
  535PYPI   C1A 8293  11.599  17.370   9.542 -0.3819  0.0015  0.0462
  535PYPI   C2A 8294  11.704  17.124   9.276 -0.0789 -0.0695  0.2625
  535PYPI   D3A 8295  11.584  17.010   8.955 -0.0004  0.2447  0.0836
  535PYPI   C4A 8296  11.671  16.560   8.831 -0.0812  0.1134 -0.0853
  535PYPI   C1B 8297  11.566  16.880   9.695  0.1975  0.0235  0.1448
  535PYPI   C2B 8298  11.768  16.649   9.357  0.0101  0.2594  0.0051
  535PYPI   C3B 8299  11.776  16.268   9.319 -0.3347  0.1699  0.0297
  535PYPI   C4B 8300  11.615  15.943   9.285 -0.0163 -0.0268  0.2892
  536PYPI    C1 8301  10.355   5.136  10.679 -0.0835  0.0450 -0.0988
  536PYPI    C2 8302  10.624   5.385  10.838 -0.0814 -0.0433  0.0379
  536PYPI    C3 8303  10.438   5.118  11.070  0.0784 -0.3188 -0.1461
  536PYPI   PO4 8304  10.425   4.941  10.538 -0.2177 -0.0370  0.1405
  536PYPI   GL1 8305  10.501   4.835  10.190 -0.4160 -0.0049 -0.0586
  536PYPI   GL2 8306  10.726   5.025  10.129  0.1105  0.0693 -0.3115
  536PYPI   C1A 8307  10.448   4.461  10.024 -0.2612 -0.1333  0.0143
  536PYPI   C2A 8308  10.233   4.066   9.813  0.2180 -0.1981  0.1282
  536PYPI   D3A 8309  10.172   3.688   9.640  0.2086 -0.0338 -0.1740
  536PYPI   C4A 8310  10.039   3.630   9.166  0.0389 -0.0033  0.1017
  536PYPI   C1B 8311  10.721   5.195   9.755 -0.0697 -0.0774 -0.2753
  536PYPI   C2B 8312  10.737   5.185   9.332  0.2820  0.2897 -0.1285
  536PYPI   C3B 8313  10.895   5.164   8.924 -0.1222  0.0614 -0.1405
  536PYPI   C4B 8314  10.673   5.010   8.607  0.0307  0.1337  0.0425
  537PYPI    C1 8315   4.779  13.512  10.268  0.0967  0.0509  0.1894
  537PYPI    C2 8316   5.113  13.293  10.260  0.0663  0.0075  0.1061
  537PYPI    C3 8317   4.955  13.402  10.610  0.2176  0.1043  0.1452
  537PYPI   PO4 8318   4.829  13.656  10.152  0.3810  0.1831  0.1194
  537PYPI   GL1 8319   4.772  13.632   9.732  0.1064 -0.1837 -0.2355
  537PYPI   GL2 8320   4.548  13.831   9.767 -0.0332  0.2509 -0.1543
  537PYPI   C1A 8321   4.958  13.591   9.358  0.1150 -0.0819  0.1893
  537PYPI   C2A 8322   4.959  13.517   8.939 -0.0198  0.0396 -0.0694
  537PYPI   D3A 8323   5.056  13.565   8.462  0.1536  0.2053 -0.0135
  537PYPI   C4A 8324   4.797  13.586   8.224  0.3439 -0.0277 -0.2693
  537PYPI   C1B 8325   4.494  13.946   9.384 -0.1497 -0.0776  0.1804
  537PYPI   C2B 8326   4.410  13.863   8.953 -0.1464 -0.1927 -0.0905
  537PYPI   C3B 8327   4.458  13.893   8.488 -0.2792  0.0764  0.0072
  537PYPI   C4B 8328   4.381  13.831   8.106  0.1500  0.1733 -0.3255
  538PYPI    C1 8329   1.899   8.424  10.329  0.2594 -0.0605 -0.0272
  538PYPI    C2 8330   1.635   8.137  10.240  0.0845  0.1458 -0.1872
  538PYPI    C3 8331   1.921   8.069  10.512 -0.1927 -0.0489  0.0618
  538PYPI   PO4 8332   2.133   8.462  10.134  0.0567  0.0779 -0.0746
  538PYPI   GL1 8333   2.049   8.691   9.781 -0.0280  0.1163 -0.2664
  538PYPI   GL2 8334   2.279   8.933   9.689  0.0988  0.1436  0.0517
  538PYPI   C1A 8335   2.166   8.462   9.378  0.0866  0.0753  0.1202
  538PYPI   C2A 8336   2.154   8.374   8.991  0.2765  0.1601 -0.1329
  538PYPI   D3A 8337   2.127   8.282   8.523 -0.1498  0.0673 -0.0443
  538PYPI   C4A 8338   2.248   8.506   8.144  0.1385 -0.0386  0.1360
  538PYPI   C1B 8339   2.327   8.872   9.242  0.0043  0.2821  0.0266
  538PYPI   C2B 8340   2.334   8.816   8.860 -0.1078 -0.0404 -0.2628
  538PYPI   C3B 8341   2.350   8.912   8.412 -0.1176  0.1885  0.4048
  538PYPI   C4B 8342   2.391   8.974   7.997 -0.0567 -0.1425 -0.1020
  539PYPI    C1 8343  15.808  13.590  10.621 -0.0969 -0.0661 -0.1033
  539PYPI    C2 8344  15.497  13.393  10.777 -0.0414  0.0313  0.1351
  539PYPI    C3 8345  15.832  13.439  10.991  0.0357  0.1699 -0.0134
  539PYPI   PO4 8346  15.823  13.498  10.374  0.1286 -0.0315  0.2942
  539PYPI   GL1 8347  15.980  13.199  10.164  0.0342  0.0444  0.0924
  539PYPI   GL2 8348  15.876  13.247   9.879 -0.0139 -0.3546 -0.1382
  539PYPI   C1A 8349  16.107  12.812   9.848  0.1030  0.1688 -0.3097
  539PYPI   C2A 8350  16.029  12.721   9.410 -0.1784  0.1645  0.1155
  539PYPI   D3A 8351  15.958  12.290   9.251  0.0771 -0.1838  0.1871
  539PYPI   C4A 8352  15.767  12.229   8.918 -0.0318  0.0864  0.0220
  539PYPI   C1B 8353  15.784  13.146   9.528  0.1992 -0.1484 -0.2752
  539PYPI   C2B 8354  15.849  13.145   9.079  0.0402 -0.1596 -0.0854
  539PYPI   C3B 8355  15.747  13.249   8.689  0.1187 -0.4620  0.0208
  539PYPI   C4B 8356  15.698  13.167   8.256  0.1340  0.0986 -0.1395
  540ERGO   ROH 8357   1.855   8.177   9.766  0.0335 -0.1871 -0.0743
  540ERGO    R1 8358   1.759   8.051   9.531 -0.0589 -0.1462 -0.0598
  540ERGO    R2 8359   1.578   8.171   9.360 -0.0249 -0.0622 -0.0393
  540ERGO    R3 8360   1.768   8.116   9.174 -0.0751 -0.1567 -0.0620
  540ERGO    R4 8361   1.525   8.169   9.019 -0.0566  0.0212 -0.0343
  540ERGO    R5 8362   1.652   7.993   9.005 -0.1696 -0.0585 -0.0700
  540ERGO    C1 8363   1.673   8.117   8.645 -0.1221 -0.0190 -0.0528
  540ERGO    C2 8364   1.657   8.145   8.339  0.0568 -0.0579 -0.1690
  541ERGO   ROH 8365   1.369  10.862   9.799 -0.0771  0.0111 -0.0892
  541ERGO    R1 8366   1.514  10.907   9.560 -0.1552  0.0749 -0.1248
  541ERGO    R2 8367   1.675  10.714   9.446  0.0242  0.1966 -0.0788
  541ERGO    R3 8368   1.523  10.763   9.226 -0.0576 -0.0332 -0.0766
  541ERGO    R4 8369   1.795  10.725   9.122 -0.0239  0.2271 -0.0959
  541ERGO    R5 8370   1.664  10.895   9.084 -0.2146  0.0783 -0.1333
  541ERGO    C1 8371   1.722  10.777   8.726 -0.1287  0.0291 -0.1039
  541ERGO    C2 8372   1.690  10.705   8.504 -0.3056  0.1101  0.0068
  542ERGO   ROH 8373   7.951  11.967   9.704 -0.0435 -0.1259  0.0735
  542ERGO    R1 8374   7.882  11.951   9.430 -0.0311 -0.0528  0.0669
  542ERGO    R2 8375   7.815  12.172   9.281  0.0764 -0.0035  0.1005
  542ERGO    R3 8376   8.012  12.082   9.117  0.0460 -0.0607  0.0934
  542ERGO    R4 8377   7.819  12.212   8.937  0.0245 -0.0744  0.0905
  542ERGO    R5 8378   7.896  12.009   8.920  0.0031 -0.0923  0.1244
  542ERGO    C1 8379   8.008  12.151   8.583 -0.0342 -0.1695  0.0779
  542ERGO    C2 8380   7.999  12.251   8.179  0.1150 -0.0596  0.1072
  543ERGO   ROH 8381   7.582  15.398   9.833 -0.1802  0.0030 -0.0263
  543ERGO    R1 8382   7.650  15.559   9.611 -0.2507  0.0998  0.0215
  543ERGO    R2 8383   7.789  15.460   9.393 -0.1151  0.2501  0.0374
  543ERGO    R3 8384   7.578  15.561   9.254 -0.1616  0.1082  0.0037
  543ERGO    R4 8385   7.797  15.554   9.060 -0.1484  0.1907  0.0196
  543ERGO    R5 8386   7.674  15.726   9.110 -0.2451  0.1327 -0.0226
  543ERGO    C1 8387   7.604  15.703   8.736 -0.2114  0.0228 -0.0224
  543ERGO    C2 8388   7.710  15.739   8.415 -0.0125  0.1593 -0.1380
  544ERGO   ROH 8389  13.381   0.527  10.214  0.0332 -0.0219  0.0550
  544ERGO    R1 8390  13.182   0.486  10.017 -0.0804  0.1870  0.1227
  544ERGO    R2 8391  13.061   0.694   9.883  0.2875  0.3141 -0.0289
  544ERGO    R3 8392  13.143   0.558   9.663  0.0022 -0.0289  0.0688
  544ERGO    R4 8393  12.914   0.716   9.570  0.2140  0.2353 -0.0003
  544ERGO    R5 8394  12.940   0.501   9.549 -0.1260  0.1704  0.1956
  544ERGO    C1 8395  12.906   0.600   9.182 -0.0967 -0.1325  0.1083
  544ERGO    C2 8396  12.746   0.789   8.964 -0.1706  0.1223  0.3042
  545ERGO   ROH 8397   2.744   5.940   9.727 -0.1427  0.0086 -0.0870
  545ERGO    R1 8398   2.795   5.885   9.454 -0.1530  0.0285 -0.0939
  545ERGO    R2 8399   2.592   5.851   9.269 -0.1653 -0.0052 -0.0828
  545ERGO    R3 8400   2.726   6.046   9.135 -0.2121  0.0299 -0.0788
  545ERGO    R4 8401   2.654   5.850   8.929  0.1490 -0.1476 -0.0281
  545ERGO    R5 8402   2.853   5.928   8.970  0.0414  0.0473  0.1060
  545ERGO    C1 8403   2.815   6.032   8.605  0.2881 -0.1976  0.0076
  545ERGO    C2 8404   2.620   5.989   8.445  0.2685 -0.0051 -0.1627
  546ERGO   ROH 8405  11.555  12.078  10.025  0.0165  0.2705  0.1004
  546ERGO    R1 8406  11.549  12.197   9.768 -0.0952  0.0688  0.0075
  546ERGO    R2 8407  11.774  12.303   9.648 -0.2080  0.2594 -0.0361
  546ERGO    R3 8408  11.704  12.136   9.445  0.0301  0.0151  0.0763
  546ERGO    R4 8409  11.867  12.343   9.317 -0.3196  0.2140 -0.0736
  546ERGO    R5 8410  11.667  12.281   9.258 -0.2360 -0.1517 -0.0087
  546ERGO    C1 8411  11.856  12.210   8.935 -0.1612 -0.0417  0.0101
  546ERGO    C2 8412  11.909  12.324   8.662  0.0967 -0.0447 -0.4638
  547ERGO   ROH 8413  15.208  14.258  10.056 -0.0807 -0.0548 -0.0199
  547ERGO    R1 8414  15.210  14.138   9.800  0.2516  0.0944 -0.0928
  547ERGO    R2 8415  14.988  14.134   9.635  0.2759 -0.3380 -0.1260
  547ERGO    R3 8416  15.159  14.246   9.456  0.0500  0.1835 -0.0364
  547ERGO    R4 8417  14.991  14.066   9.297  0.5768 -0.2310 -0.1491
  547ERGO    R5 8418  15.209  14.068   9.303  0.5831  0.3520 -0.0786
  547ERGO    C1 8419  15.153  14.130   8.931  0.5399  0.3209 -0.0783
  547ERGO    C2 8420  15.214  14.176   8.565 -0.0104  0.1679  0.1303
  548ERGO   ROH 8421   7.882   1.225  10.072 -0.0119  0.1992  0.0113
  548ERGO    R1 8422   7.916   1.404   9.855 -0.0655  0.0652 -0.1071
  548ERGO    R2 8423   8.159   1.442   9.730 -0.0783  0.0645 -0.1194
  548ERGO    R3 8424   8.017   1.380   9.506 -0.0444 -0.1301 -0.0905
  548ERGO    R4 8425   8.277   1.476   9.407 -0.0687 -0.0828 -0.1333
  548ERGO    R5 8426   8.080   1.549   9.348 -0.1009 -0.1952 -0.1900
  548ERGO    C1 8427   8.213   1.437   9.008 -0.0313 -0.3513 -0.1142
  548ERGO    C2 8428   8.453   1.396   8.743  0.1044  0.0585  0.0929
  549ERGO   ROH 8429   0.921  14.841   9.794  0.0298  0.1950  0.0039
  549ERGO    R1 8430   0.794  14.888   9.545 -0.1317  0.2470  0.0952
  549ERGO    R2 8431   0.653  15.119   9.491  0.0898  0.3884  0.1354
  549ERGO    R3 8432   0.820  15.133   9.277 -0.0793  0.1179 -0.0212
  549ERGO    R4 8433   0.583  15.282   9.195  0.0384  0.4438  0.1772
  549ERGO    R5 8434   0.676  15.118   9.087 -0.2854  0.2871  0.1120
  549ERGO    C1 8435   0.698  15.390   8.821 -0.1502  0.2220  0.0546
  549ERGO    C2 8436   0.733  15.471   8.436 -0.2003  0.1461 -0.0403
  550ERGO   ROH 8437   4.206  16.064   9.910  0.0954  0.0128  0.0337
  550ERGO    R1 8438   4.223  15.926   9.664 -0.0148  0.0149  0.0246
  550ERGO    R2 8439   4.001  15.827   9.532 -0.0772  0.0412  0.1124
  550ERGO    R3 8440   4.099  15.973   9.325 -0.1420  0.0344  0.0722
  550ERGO    R4 8441   3.957  15.751   9.197 -0.1708  0.0055  0.1317
  550ERGO    R5 8442   4.164  15.811   9.162 -0.1768  0.0176  0.0680
  550ERGO    C1 8443   4.024  15.845   8.809 -0.2861 -0.0216  0.1054
  550ERGO    C2 8444   3.945  16.051   8.518 -0.0518  0.0064 -0.3473
  551ERGO   ROH 8445  14.032  17.809  10.045  0.2092  0.1123 -0.1948
  551ERGO    R1 8446  13.811  17.719   9.893  0.1371  0.1550 -0.1173
  551ERGO    R2 8447  13.692  17.875   9.698  0.1257  0.1621 -0.1085
  551ERGO    R3 8448  13.739  17.658   9.542  0.0180  0.1233 -0.0871
  551ERGO    R4 8449  13.536  17.811   9.396  0.0445  0.1706 -0.0679
  551ERGO    R5 8450  13.525  17.600   9.452 -0.0177  0.1847 -0.0367
  551ERGO    C1 8451  13.490  17.570   9.074 -0.1039  0.1394 -0.0244
  551ERGO    C2 8452  13.482  17.283   8.769 -0.3422  0.1631  0.4356
  552ERGO   ROH 8453   1.508   8.416   9.834  0.1526 -0.1146 -0.0997
  552ERGO    R1 8454   1.477   8.511   9.570  0.1353  0.0331 -0.0460
  552ERGO    R2 8455   1.616   8.730   9.473  0.2057  0.0289  0.0351
  552ERGO    R3 8456   1.691   8.556   9.279  0.0937  0.0934 -0.0660
  552ERGO    R4 8457   1.656   8.811   9.140  0.0374  0.1369  0.0404
  552ERGO    R5 8458   1.563   8.622   9.087  0.0007  0.1643  0.0231
  552ERGO    C1 8459   1.750   8.695   8.763 -0.1658  0.2602 -0.0515
  552ERGO    C2 8460   1.861   8.657   8.456 -0.1351 -0.0332 -0.0253
  553ERGO   ROH 8461   8.129  11.585   9.772  0.0947 -0.0418 -0.0617
  553ERGO    R1 8462   8.232  11.620   9.511  0.1120 -0.0255 -0.0529
  553ERGO    R2 8463   8.200  11.430   9.313  0.1064 -0.0040 -0.0734
  553ERGO    R3 8464   8.095  11.639   9.174  0.1317  0.0185 -0.0585
  553ERGO    R4 8465   8.214  11.465   8.969 -0.0141 -0.0523 -0.0834
  553ERGO    R5 8466   8.253  11.678   8.997  0.0782 -0.0635 -0.1250
  553ERGO    C1 8467   8.123  11.682   8.639 -0.0604 -0.0592 -0.0754
  553ERGO    C2 8468   8.078  11.660   8.331  0.2509 -0.2486  0.1540
  554ERGO   ROH 8469  17.987  11.615   9.834 -0.3273  0.0292 -0.0525
  554ERGO    R1 8470  17.852  11.600   9.586 -0.2723  0.1363 -0.0900
  554ERGO    R2 8471  17.891  11.784   9.383 -0.0206  0.0710 -0.1049
  554ERGO    R3 8472  17.945  11.562   9.236 -0.2073 -0.0080 -0.0578
  554ERGO    R4 8473  17.899  11.773   9.038  0.0144  0.0026 -0.1020
  554ERGO    R5 8474  17.800  11.579   9.047 -0.1682  0.0943 -0.0795
  554ERGO    C1 8475  17.954  11.559   8.698 -0.1405 -0.1113 -0.0562
  554ERGO    C2 8476  17.937  11.743   8.430 -0.2251 -0.0358 -0.1100
  555ERGO   ROH 8477  12.851   7.866  10.436 -0.2878  0.0656 -0.1123
  555ERGO    R1 8478  12.822   7.972  10.175  0.0135  0.1062 -0.1333
  555ERGO    R2 8479  12.991   7.903   9.967 -0.0133 -0.2137 -0.0603
  555ERGO    R3 8480  12.759   7.840   9.842 -0.0837  0.1954 -0.1495
  555ERGO    R4 8481  12.959   7.845   9.628  0.0231 -0.2286 -0.0605
  555ERGO    R5 8482  12.771   7.954   9.632  0.2237  0.1284 -0.1698
  555ERGO    C1 8483  12.721   7.751   9.313 -0.0218  0.1467 -0.1443
  555ERGO    C2 8484  12.697   7.738   8.948  0.3500  0.3214  0.0680
  556ERGO   ROH 8485   1.283  11.966   9.825 -0.1563 -0.0868  0.2587
  556ERGO    R1 8486   1.300  11.873   9.558 -0.0048 -0.1637  0.2938
  556ERGO    R2 8487   1.135  11.674   9.459 -0.1354 -0.0029  0.1838
  556ERGO    R3 8488   1.079  11.860   9.269  0.2518  0.0202  0.0841
  556ERGO    R4 8489   1.054  11.604   9.130 -0.1002 -0.0004  0.1743
  556ERGO    R5 8490   1.177  11.773   9.069  0.2052 -0.2176  0.1614
  556ERGO    C1 8491   0.955  11.738   8.761  0.2837  0.0227  0.0754
  556ERGO    C2 8492   0.880  11.597   8.468  0.0095 -0.0311  0.1523
  557ERGO   ROH 8493  14.987  15.667   9.827  0.0320  0.0765 -0.0855
  557ERGO    R1 8494  14.871  15.551   9.596  0.1750 -0.0938 -0.0741
  557ERGO    R2 8495  14.655  15.664   9.466 -0.0105 -0.4089 -0.0495
  557ERGO    R3 8496  14.818  15.649   9.250 -0.0084 -0.1641 -0.0670
  557ERGO    R4 8497  14.548  15.620   9.140  0.0074 -0.2593 -0.0760
  557ERGO    R5 8498  14.716  15.485   9.108  0.0896 -0.1345 -0.1727
  557ERGO    C1 8499  14.639  15.582   8.747  0.0197  0.0576 -0.1077
  557ERGO    C2 8500  14.553  15.409   8.425 -0.0795 -0.1290  0.2244
  558ERGO   ROH 8501  13.195   5.128  10.163  0.0542  0.1411  0.0045
  558ERGO    R1 8502  13.248   4.930   9.968  0.0053  0.0904  0.0430
  558ERGO    R2 8503  13.085   4.890   9.748  0.0115  0.1075  0.0365
  558ERGO    R3 8504  13.317   4.922   9.611  0.0342  0.0061  0.0500
  558ERGO    R4 8505  13.117   4.865   9.405 -0.0489  0.4286  0.0032
  558ERGO    R5 8506  13.306   4.760   9.435 -0.1534  0.1964 -0.1196
  558ERGO    C1 8507  13.354   4.879   9.076 -0.0628  0.5203 -0.0036
  558ERGO    C2 8508  13.389   4.761   8.882 -0.3558 -0.1276 -0.2199
  559ERGO   ROH 8509  17.015  17.406  10.007 -0.3752 -0.4509  0.0262
  559ERGO    R1 8510  16.945  17.402   9.733 -0.4599  0.0813  0.0304
  559ERGO    R2 8511  16.909  17.633   9.585  0.3433  0.3968  0.2727
  559ERGO    R3 8512  17.092  17.519   9.421 -0.0866 -0.1230  0.1247
  559ERGO    R4 8513  16.934  17.691   9.245  0.4731  0.6343  0.3194
  559ERGO    R5 8514  16.973  17.479   9.217 -0.2919  0.4912  0.1062
  559ERGO    C1 8515  17.121  17.617   8.893  0.1452  0.2845  0.2078
  559ERGO    C2 8516  17.229  17.862   8.694 -0.0417 -0.2541  0.0691
  560ERGO   ROH 8517   8.902  16.309  10.025 -0.0837  0.0632  0.0352
  560ERGO    R1 8518   8.983  16.396   9.768 -0.0767  0.0093  0.0195
  560ERGO    R2 8519   8.938  16.246   9.540 -0.0477 -0.0501  0.0533
  560ERGO    R3 8520   8.820  16.475   9.452 -0.0654 -0.0826 -0.0097
  560ERGO    R4 8521   8.878  16.323   9.208  0.1531 -0.0434  0.0167
  560ERGO    R5 8522   8.937  16.529   9.250  0.0555 -0.0267  0.0740
  560ERGO    C1 8523   8.732  16.582   8.933  0.2535 -0.0698 -0.0637
  560ERGO    C2 8524   8.850  16.607   8.597 -0.1072  0.0627 -0.3207
  561ERGO   ROH 8525  14.980  13.050  10.248 -0.0795 -0.2641  0.0166
  561ERGO    R1 8526  14.878  13.021   9.985 -0.0580 -0.2078  0.0014
  561ERGO    R2 8527  14.689  13.192   9.878 -0.0007 -0.1422 -0.0031
  561ERGO    R3 8528  14.873  13.219   9.680  0.0323 -0.1721  0.0238
  561ERGO    R4 8529  14.616  13.208   9.541  0.0387  0.0866 -0.0017
  561ERGO    R5 8530  14.790  13.083   9.502 -0.0509 -0.0175 -0.0536
  561ERGO    C1 8531  14.746  13.244   9.159  0.0927  0.1919  0.0244
  561ERGO    C2 8532  14.707  13.236   8.828  0.0581  0.1396 -0.1425
  562ERGO   ROH 8533   6.107   7.281   9.796  0.0996 -0.1285  0.0271
  562ERGO    R1 8534   5.999   7.132   9.581 -0.1261  0.1426 -0.0556
  562ERGO    R2 8535   5.886   7.253   9.359  0.2159  0.4439 -0.0933
  562ERGO    R3 8536   6.064   7.098   9.225 -0.0327  0.0940 -0.0297
  562ERGO    R4 8537   5.830   7.109   9.049  0.0881  0.5815 -0.1335
  562ERGO    R5 8538   5.931   6.930   9.120 -0.3119  0.3740 -0.1134
  562ERGO    C1 8539   5.966   6.881   8.743 -0.2196  0.3331 -0.0970
  562ERGO    C2 8540   5.962   7.088   8.397 -0.0910 -0.0454 -0.1444
  563ERGO   ROH 8541  16.715  14.628  10.237  0.0624  0.0559  0.1185
  563ERGO    R1 8542  16.691  14.695   9.963  0.2164  0.0069  0.0915
  563ERGO    R2 8543  16.849  14.582   9.767  0.0720 -0.3156  0.1542
  563ERGO    R3 8544  16.609  14.521   9.654 -0.0134  0.0306  0.1377
  563ERGO    R4 8545  16.798  14.518   9.431 -0.0207 -0.1597  0.1373
  563ERGO    R5 8546  16.613  14.632   9.442  0.1281  0.0834  0.1684
  563ERGO    C1 8547  16.544  14.424   9.130 -0.1549  0.2561  0.1120
  563ERGO    C2 8548  16.546  14.470   8.799  0.0548 -0.2307 -0.0977
  564ERGO   ROH 8549   9.689  12.762  10.082 -0.1328  0.0556  0.0809
  564ERGO    R1 8550   9.819  12.797   9.833 -0.0877 -0.0281  0.0927
  564ERGO    R2 8551   9.790  12.620   9.623 -0.1743 -0.0145  0.0964
  564ERGO    R3 8552   9.718  12.844   9.487 -0.0257  0.0252  0.0810
  564ERGO    R4 8553   9.793  12.650   9.279 -0.1132 -0.0292  0.0950
  564ERGO    R5 8554   9.872  12.852   9.303  0.0046 -0.0724  0.0990
  564ERGO    C1 8555   9.728  12.878   8.950  0.0620 -0.0007  0.0799
  564ERGO    C2 8556   9.804  12.762   8.584 -0.0068 -0.0466 -0.0893
  565ERGO   ROH 8557  10.347   1.931  10.315 -0.2279 -0.2516 -0.0352
  565ERGO    R1 8558  10.296   1.806  10.067 -0.2346 -0.0507 -0.1377
  565ERGO    R2 8559  10.173   1.937   9.856  0.0991  0.2412 -0.1644
  565ERGO    R3 8560  10.394   1.857   9.720  0.0880 -0.0067 -0.0428
  565ERGO    R4 8561  10.200   1.928   9.512  0.1304 -0.2231 -0.1566
  565ERGO    R5 8562  10.308   1.740   9.530  0.0724 -0.2339  0.1021
  565ERGO    C1 8563  10.424   1.849   9.183  0.1382 -0.7262 -0.0380
  565ERGO    C2 8564  10.671   1.993   9.045  0.0154  0.0212 -0.0461
  566ERGO   ROH 8565  14.414   7.778  10.080 -0.2449 -0.0856  0.0145
  566ERGO    R1 8566  14.448   7.700   9.810 -0.2786 -0.0901  0.0115
  566ERGO    R2 8567  14.351   7.849   9.598 -0.1081  0.0251  0.0120
  566ERGO    R3 8568  14.608   7.837   9.513 -0.1050 -0.2089  0.0492
  566ERGO    R4 8569  14.451   7.761   9.279 -0.1548  0.1635 -0.0416
  566ERGO    R5 8570  14.615   7.648   9.366 -0.3005 -0.1006 -0.1019
  566ERGO    C1 8571  14.752   7.699   9.014 -0.1790  0.0243 -0.0378
  566ERGO    C2 8572  14.810   7.659   8.689  0.0450  0.2460 -0.1164
  567ERGO   ROH 8573  17.848  14.449   9.983 -0.0230  0.2761 -0.0576
  567ERGO    R1 8574  17.729  14.537   9.741 -0.0637  0.2350 -0.0590
  567ERGO    R2 8575  17.720  14.803   9.668 -0.1610  0.2563 -0.0710
  567ERGO    R3 8576  17.838  14.711   9.441 -0.1196  0.2720 -0.0491
  567ERGO    R4 8577  17.648  14.914   9.349 -0.3239 -0.0050 -0.1235
  567ERGO    R5 8578  17.662  14.708   9.279 -0.1229 -0.0019 -0.0160
  567ERGO    C1 8579  17.717  14.893   8.950 -0.3798 -0.1423 -0.1337
  567ERGO    C2 8580  17.935  15.010   8.617  0.1940  0.0232  0.2327
  568ERGO   ROH 8581   5.870   1.302   9.907 -0.1787  0.2910 -0.1790
  568ERGO    R1 8582   5.861   1.316   9.625  0.0576  0.3209 -0.1862
  568ERGO    R2 8583   6.037   1.470   9.478  0.4455  0.0246 -0.0489
  568ERGO    R3 8584   6.086   1.236   9.349  0.1327 -0.0609 -0.0213
  568ERGO    R4 8585   6.129   1.442   9.146  0.2666 -0.1517 -0.0868
  568ERGO    R5 8586   5.998   1.269   9.129  0.0679 -0.0150  0.0105
  568ERGO    C1 8587   6.229   1.206   8.832 -0.1314 -0.3346 -0.0828
  568ERGO    C2 8588   6.418   1.150   8.510  0.0642  0.2614  0.0486
  569ERGO   ROH 8589   2.303   3.450   9.946 -0.0235  0.0418  0.1861
  569ERGO    R1 8590   2.163   3.362   9.716 -0.0419  0.0873  0.1801
  569ERGO    R2 8591   2.136   3.518   9.489  0.1313  0.0472  0.1323
  569ERGO    R3 8592   2.242   3.300   9.366 -0.0116 -0.0723  0.2136
  569ERGO    R4 8593   2.119   3.455   9.150  0.2989  0.0565  0.1211
  569ERGO    R5 8594   2.083   3.245   9.195  0.0439  0.0911  0.1051
  569ERGO    C1 8595   2.209   3.214   8.836  0.2624 -0.0502  0.1908
  569ERGO    C2 8596   2.157   3.051   8.517  0.1161 -0.1085 -0.0826
  570ERGO   ROH 8597  16.910  15.199  10.119  0.0555  0.1012  0.0501
  570ERGO    R1 8598  16.935  15.204   9.838  0.0468  0.1822  0.0506
  570ERGO    R2 8599  16.791  15.036   9.672  0.1775  0.1009  0.0173
  570ERGO    R3 8600  16.717  15.270   9.554 -0.0117  0.0690  0.0693
  570ERGO    R4 8601  16.733  15.076   9.334  0.3372  0.1750 -0.0026
  570ERGO    R5 8602  16.834  15.269   9.344  0.1165  0.2849  0.1377
  570ERGO    C1 8603  16.630  15.318   9.025  0.2525  0.1881  0.0347
  570ERGO    C2 8604  16.653  15.352   8.662 -0.3126  0.2708 -0.0102
  571ERGO   ROH 8605  17.937   2.044   9.639  0.0765 -0.1451  0.0887
  571ERGO    R1 8606  18.082   1.977   9.406  0.0153 -0.1755  0.0587
  571ERGO    R2 8607  17.966   1.845   9.192 -0.0947 -0.0192  0.0178
  571ERGO    R3 8608  18.063   2.056   9.051  0.0558 -0.0423  0.0863
  571ERGO    R4 8609  17.903   1.904   8.857 -0.1851  0.2176  0.0748
  571ERGO    R5 8610  18.112   1.965   8.835 -0.1316  0.0198  0.0171
  571ERGO    C1 8611  17.958   2.136   8.530 -0.0965  0.3337  0.1725
  571ERGO    C2 8612  17.980   2.246   8.171  0.1663 -0.1321  0.2684
  572ERGO   ROH 8613   7.586  13.115   9.804 -0.1228  0.0241  0.0385
  572ERGO    R1 8614   7.615  13.240   9.552 -0.1181  0.0663  0.0589
  572ERGO    R2 8615   7.859  13.263   9.424 -0.0969  0.1814  0.1130
  572ERGO    R3 8616   7.727  13.141   9.220 -0.0048  0.1498  0.0731
  572ERGO    R4 8617   7.948  13.286   9.091 -0.0161  0.2142  0.1372
  572ERGO    R5 8618   7.736  13.300   9.040 -0.0033  0.1538  0.0801
  572ERGO    C1 8619   7.876  13.184   8.705  0.1174  0.2035  0.1136
  572ERGO    C2 8620   8.131  13.184   8.411 -0.2645 -0.0349  0.0869
  573ERGO   ROH 8621  15.223   1.092   9.729  0.2131 -0.0885 -0.1472
  573ERGO    R1 8622  15.095   1.111   9.477  0.1507  0.0015 -0.1095
  573ERGO    R2 8623  15.210   1.016   9.245  0.0272 -0.0551 -0.1496
  573ERGO    R3 8624  14.976   0.879   9.223 -0.0612  0.0851 -0.0880
  573ERGO    R4 8625  15.040   0.960   8.949 -0.0906  0.0539 -0.1032
  573ERGO    R5 8626  14.853   0.997   9.055 -0.0387  0.1627 -0.0499
  573ERGO    C1 8627  14.721   0.798   8.757 -0.2423  0.2490 -0.0184
  573ERGO    C2 8628  14.639   0.566   8.491 -0.0556  0.3710  0.0974
  574ERGO   ROH 8629   7.115  15.309   9.735  0.2216  0.0091  0.0270
  574ERGO    R1 8630   7.254  15.295   9.489  0.1872  0.2030 -0.0047
  574ERGO    R2 8631   7.180  15.123   9.286  0.4257  0.0408  0.0445
  574ERGO    R3 8632   7.175  15.351   9.138  0.0041  0.0144  0.0034
  574ERGO    R4 8633   7.237  15.139   8.946  0.5240  0.0919  0.0628
  574ERGO    R5 8634   7.351  15.321   8.978  0.1362  0.3471  0.0757
  574ERGO    C1 8635   7.266  15.362   8.608  0.1856  0.0969  0.0352
  574ERGO    C2 8636   7.431  15.324   8.243  0.1361 -0.0707  0.1600
  575ERGO   ROH 8637  11.708  14.008   9.881  0.0575  0.2297  0.0287
  575ERGO    R1 8638  11.896  14.035   9.671 -0.0094  0.2999 -0.0225
  575ERGO    R2 8639  11.976  13.821   9.514  0.2227  0.2756  0.1276
  575ERGO    R3 8640  11.899  13.984   9.310 -0.0096  0.0299  0.0129
  575ERGO    R4 8641  12.039  13.762   9.180  0.3794  0.1648  0.1757
  575ERGO    R5 8642  12.081  13.975   9.155  0.0398  0.2267  0.0531
  575ERGO    C1 8643  12.004  13.881   8.793  0.2528 -0.1302  0.0958
  575ERGO    C2 8644  12.112  13.817   8.492  0.0419  0.0517  0.1620
  576ERGO   ROH 8645   8.547  10.377   9.805  0.0902  0.0671  0.0186
  576ERGO    R1 8646   8.692  10.445   9.572  0.0218  0.0358 -0.0340
  576ERGO    R2 8647   8.682  10.293   9.341  0.0374 -0.0563  0.0214
  576ERGO    R3 8648   8.613  10.530   9.227 -0.0767 -0.1240 -0.0506
  576ERGO    R4 8649   8.691  10.358   9.002  0.1004 -0.1154  0.0117
  576ERGO    R5 8650   8.770  10.556   9.047 -0.0408 -0.0592 -0.0058
  576ERGO    C1 8651   8.632  10.618   8.697  0.0301 -0.2133 -0.0614
  576ERGO    C2 8652   8.662  10.560   8.294  0.0616 -0.3501  0.1094
  577ERGO   ROH 8653   5.275  14.356   9.162 -0.0390  0.0848 -0.0040
  577ERGO    R1 8654   5.376  14.332   8.898 -0.0058  0.0286  0.0145
  577ERGO    R2 8655   5.233  14.411   8.676  0.0791  0.1087 -0.0081
  577ERGO    R3 8656   5.456  14.557   8.624  0.1706 -0.0162  0.0269
  577ERGO    R4 8657   5.374  14.454   8.363  0.0644  0.1451 -0.0104
  577ERGO    R5 8658   5.571  14.434   8.454  0.0665 -0.0244 -0.0415
  577ERGO    C1 8659   5.666  14.616   8.133  0.1417  0.0489  0.0211
  577ERGO    C2 8660   5.680  14.823   7.945  0.1574 -0.0106 -0.0096
  578ERGO   ROH 8661   1.628   4.180   9.717  0.1427  0.0199  0.0864
  578ERGO    R1 8662   1.790   4.140   9.488  0.1297  0.0186  0.0775
  578ERGO    R2 8663   1.999   3.960   9.484  0.0465 -0.0767  0.0247
  578ERGO    R3 8664   1.869   3.864   9.265  0.0074  0.0531 -0.0100
  578ERGO    R4 8665   2.148   3.894   9.179  0.0379 -0.1053  0.0266
  578ERGO    R5 8666   1.972   3.977   9.080  0.0998  0.0288  0.0253
  578ERGO    C1 8667   2.112   3.765   8.796 -0.0038 -0.0001 -0.0047
  578ERGO    C2 8668   2.196   3.552   8.499  0.0252 -0.0258 -0.0214
  579ERGO   ROH 8669  10.765   5.576  10.062 -0.1163  0.1530  0.0140
  579ERGO    R1 8670  10.797   5.716   9.819 -0.0093  0.1535  0.0278
  579ERGO    R2 8671  10.968   5.631   9.619 -0.0153  0.0846  0.0515
  579ERGO    R3 8672  10.745   5.647   9.465  0.0168  0.1994  0.0151
  579ERGO    R4 8673  10.963   5.605   9.274  0.0019 -0.1222  0.0654
  579ERGO    R5 8674  10.815   5.765   9.269  0.1511  0.0144 -0.0504
  579ERGO    C1 8675  10.751   5.605   8.929  0.0420 -0.1349  0.0391
  579ERGO    C2 8676  10.487   5.454   8.716 -0.1143  0.0352 -0.2373
  580ERGO   ROH 8677   4.218   2.364   9.824 -0.2097 -0.1807  0.1136
  580ERGO    R1 8678   4.066   2.357   9.586 -0.1645  0.0334  0.0757
  580ERGO    R2 8679   4.102   2.538   9.381  0.0440  0.0740  0.1393
  580ERGO    R3 8680   4.132   2.314   9.231 -0.1190  0.0908  0.0792
  580ERGO    R4 8681   4.119   2.533   9.036  0.0725  0.1380  0.1393
  580ERGO    R5 8682   3.996   2.353   9.037 -0.0653  0.2406  0.0777
  580ERGO    C1 8683   4.158   2.319   8.694 -0.0640  0.1911  0.0830
  580ERGO    C2 8684   4.254   2.226   8.453 -0.3041 -0.3099 -0.1330
  581ERGO   ROH 8685  15.962   5.028   9.453  0.1230 -0.1602 -0.0232
  581ERGO    R1 8686  15.936   5.193   9.224  0.0219 -0.1836 -0.0285
  581ERGO    R2 8687  16.075   5.146   8.990 -0.0340 -0.1686 -0.0600
  581ERGO    R3 8688  15.827   5.152   8.880 -0.0644 -0.2312  0.0026
  581ERGO    R4 8689  16.010   5.157   8.651 -0.1124 -0.2597 -0.0486
  581ERGO    R5 8690  15.849   5.298   8.691 -0.1267 -0.2695 -0.0401
  581ERGO    C1 8691  15.739   5.169   8.350 -0.1866 -0.3715  0.0167
  581ERGO    C2 8692  15.733   5.203   8.025 -0.1329 -0.0485 -0.2225
  582ERGO   ROH 8693  16.019   4.256   9.747  0.1980 -0.0628  0.0599
  582ERGO    R1 8694  15.951   4.321   9.480  0.2509 -0.1203  0.0307
  582ERGO    R2 8695  15.924   4.582   9.393 -0.0460 -0.1342  0.0472
  582ERGO    R3 8696  16.104   4.504   9.205  0.1626  0.1157  0.1387
  582ERGO    R4 8697  15.976   4.741   9.090 -0.0701 -0.0486  0.0883
  582ERGO    R5 8698  15.995   4.545   8.996  0.2352 -0.0111  0.0818
  582ERGO    C1 8699  16.175   4.759   8.738  0.1121  0.2359  0.1983
  582ERGO    C2 8700  16.407   4.823   8.579  0.2043 -0.1327 -0.1797
  583ERGO   ROH 8701  12.369   6.012  10.209  0.0566  0.2173  0.0576
  583ERGO    R1 8702  12.438   5.834  10.001  0.1755  0.1868  0.1228
  583ERGO    R2 8703  12.266   5.773   9.793  0.1481 -0.1352  0.2356
  583ERGO    R3 8704  12.476   5.851   9.639 -0.0163  0.0380  0.0933
  583ERGO    R4 8705  12.333   5.655   9.476  0.1417 -0.2348  0.2709
  583ERGO    R5 8706  12.545   5.651   9.527  0.1752  0.0538  0.1758
  583ERGO    C1 8707  12.569   5.659   9.146 -0.0164 -0.1302  0.1579
  583ERGO    C2 8708  12.538   5.657   8.765 -0.0761 -0.1739  0.1362
  584ERGO   ROH 8709   8.649  12.506   9.919 -0.3083 -0.1745 -0.0403
  584ERGO    R1 8710   8.613  12.609   9.657 -0.3014 -0.2134 -0.0568
  584ERGO    R2 8711   8.824  12.682   9.495 -0.3022  0.0792  0.0633
  584ERGO    R3 8712   8.706  12.511   9.319  0.0225 -0.0800 -0.0086
  584ERGO    R4 8713   8.862  12.695   9.152 -0.1026  0.1027  0.0848
  584ERGO    R5 8714   8.650  12.649   9.132 -0.0324 -0.1640 -0.0506
  584ERGO    C1 8715   8.773  12.543   8.787  0.3184 -0.0330  0.0299
  584ERGO    C2 8716   8.977  12.443   8.573 -0.3685 -0.0940 -0.0756
  585ERGO   ROH 8717   5.063   7.139  10.217 -0.2275 -0.0168 -0.0866
  585ERGO    R1 8718   5.182   7.236   9.979 -0.0154 -0.0353  0.0078
  585ERGO    R2 8719   5.407   7.120   9.866 -0.0581 -0.2029  0.0785
  585ERGO    R3 8720   5.249   7.106   9.646  0.0336  0.0230 -0.0036
  585ERGO    R4 8721   5.521   7.098   9.541  0.0670 -0.0912  0.1145
  585ERGO    R5 8722   5.364   7.235   9.481  0.1858  0.0404  0.1197
  585ERGO    C1 8723   5.439   7.071   9.145  0.2259  0.1859  0.0585
  585ERGO    C2 8724   5.461   6.853   8.810 -0.1949 -0.0598  0.1304
  586ERGO   ROH 8725   8.050   4.676  10.482  0.2199  0.1655  0.1115
  586ERGO    R1 8726   8.037   4.738  10.206  0.1645 -0.0463  0.0654
  586ERGO    R2 8727   8.221   4.903  10.082  0.0458 -0.0149 -0.0625
  586ERGO    R3 8728   8.250   4.691   9.914  0.1810 -0.1182  0.0876
  586ERGO    R4 8729   8.357   4.919   9.765 -0.1234 -0.1122 -0.1422
  586ERGO    R5 8730   8.204   4.780   9.697 -0.0192 -0.3273  0.0376
  586ERGO    C1 8731   8.464   4.729   9.423 -0.0951 -0.2658 -0.0478
  586ERGO    C2 8732   8.608   4.673   9.084  0.1590 -0.0972  0.0505
  587ERGO   ROH 8733   3.844   1.980  10.068  0.0272  0.0878  0.0563
  587ERGO    R1 8734   3.731   1.933   9.813  0.0644 -0.0672  0.0662
  587ERGO    R2 8735   3.685   2.135   9.631 -0.2453 -0.1258  0.0754
  587ERGO    R3 8736   3.832   1.977   9.466 -0.0370  0.0887  0.0537
  587ERGO    R4 8737   3.666   2.139   9.285 -0.5161 -0.3104  0.0867
  587ERGO    R5 8738   3.682   1.921   9.287 -0.0724 -0.2960  0.1863
  587ERGO    C1 8739   3.794   1.993   8.930 -0.4782 -0.2167  0.0730
  587ERGO    C2 8740   3.694   2.106   8.514 -0.0848  0.0288  0.1548
  588ERGO   ROH 8741   8.588   3.805  10.416  0.0103 -0.0582  0.0381
  588ERGO    R1 8742   8.553   3.818  10.135 -0.0021 -0.1607  0.0361
  588ERGO    R2 8743   8.765   3.834   9.960 -0.0201 -0.0158  0.0367
  588ERGO    R3 8744   8.648   3.616   9.848  0.1752 -0.1490  0.0834
  588ERGO    R4 8745   8.765   3.762   9.622 -0.0702 -0.0065  0.0334
  588ERGO    R5 8746   8.558   3.696   9.641  0.0016 -0.2391  0.1171
  588ERGO    C1 8747   8.655   3.514   9.320  0.0840 -0.1261  0.0753
  588ERGO    C2 8748   8.598   3.447   9.032  0.0157  0.0292 -0.1655
  589ERGO   ROH 8749   6.895  10.249   9.798 -0.0595  0.0345 -0.0023
  589ERGO    R1 8750   6.810  10.139   9.551  0.0110 -0.0493  0.0097
  589ERGO    R2 8751   6.663  10.283   9.366 -0.0418 -0.1478 -0.0314
  589ERGO    R3 8752   6.863  10.209   9.198  0.0095 -0.0863  0.0034
  589ERGO    R4 8753   6.652  10.312   9.022  0.0582 -0.0614 -0.0271
  589ERGO    R5 8754   6.750  10.118   9.008  0.0760 -0.0449 -0.0516
  589ERGO    C1 8755   6.834  10.260   8.664  0.1646  0.0467  0.0081
  589ERGO    C2 8756   6.760  10.192   8.469 -0.0307 -0.0686 -0.0410
  590ERGO   ROH 8757   6.389   7.768   9.995 -0.0976 -0.0401  0.0456
  590ERGO    R1 8758   6.521   7.674   9.763 -0.1754 -0.0077 -0.0130
  590ERGO    R2 8759   6.399   7.505   9.581 -0.2355  0.0107  0.0042
  590ERGO    R3 8760   6.471   7.697   9.403 -0.3026  0.0380  0.0082
  590ERGO    R4 8761   6.420   7.459   9.239  0.0300 -0.0450  0.0263
  590ERGO    R5 8762   6.601   7.581   9.239 -0.0859  0.1257  0.1174
  590ERGO    C1 8763   6.499   7.614   8.873  0.1216 -0.0519  0.0430
  590ERGO    C2 8764   6.556   7.556   8.516  0.1085 -0.0958  0.0236
  591ERGO   ROH 8765   2.688  14.919   9.885 -0.2111  0.0666  0.1621
  591ERGO    R1 8766   2.735  15.040   9.634 -0.1762  0.1926  0.2289
  591ERGO    R2 8767   2.693  14.909   9.395  0.1086  0.2208  0.1597
  591ERGO    R3 8768   2.537  15.125   9.340 -0.0804  0.0806  0.1313
  591ERGO    R4 8769   2.695  15.083   9.096 -0.0160  0.2066  0.1502
  591ERGO    R5 8770   2.678  15.268   9.210 -0.1936  0.2003  0.1383
  591ERGO    C1 8771   2.549  15.387   8.871 -0.2660  0.0668  0.1179
  591ERGO    C2 8772   2.601  15.488   8.508 -0.1223  0.2058 -0.0953
  592ERGO   ROH 8773   8.922   5.934  10.235  0.0692 -0.2296  0.0252
  592ERGO    R1 8774   8.726   5.983  10.037  0.0688 -0.1917  0.0345
  592ERGO    R2 8775   8.740   6.197   9.863  0.0255 -0.1122  0.1291
  592ERGO    R3 8776   8.716   6.004   9.673  0.0845 -0.0346  0.0422
  592ERGO    R4 8777   8.718   6.256   9.523 -0.1911  0.0506  0.1693
  592ERGO    R5 8778   8.568   6.098   9.511 -0.0741 -0.0645  0.1653
  592ERGO    C1 8779   8.684   6.109   9.147 -0.2619  0.2183  0.1112
  592ERGO    C2 8780   8.773   6.230   8.824 -0.0394 -0.2716  0.2175
  593ERGO   ROH 8781   8.048   7.900   9.956 -0.0744  0.0139 -0.1309
  593ERGO    R1 8782   8.200   7.843   9.725 -0.0454  0.0090 -0.1117
  593ERGO    R2 8783   8.165   7.612   9.576  0.0058 -0.0203 -0.0869
  593ERGO    R3 8784   8.133   7.788   9.371 -0.0104 -0.0495 -0.1081
  593ERGO    R4 8785   8.237   7.543   9.245  0.0291 -0.0412 -0.0768
  593ERGO    R5 8786   8.319   7.744   9.227 -0.0016 -0.0350 -0.0957
  593ERGO    C1 8787   8.248   7.668   8.860  0.0274 -0.0808 -0.0908
  593ERGO    C2 8788   8.245   7.673   8.566  0.0772  0.2288  0.0346
  594ERGO   ROH 8789  15.497  17.066   9.858  0.1200 -0.0090  0.1273
  594ERGO    R1 8790  15.495  17.074   9.575  0.2171  0.0135  0.1272
  594ERGO    R2 8791  15.642  16.899   9.421  0.1327 -0.0890  0.1630
  594ERGO    R3 8792  15.402  16.849   9.305  0.1301  0.1045  0.0806
  594ERGO    R4 8793  15.589  16.881   9.080  0.2387 -0.0648  0.1446
  594ERGO    R5 8794  15.401  16.988   9.109  0.3160  0.0952  0.0709
  594ERGO    C1 8795  15.332  16.823   8.772  0.2979  0.1311  0.0566
  594ERGO    C2 8796  15.405  16.849   8.416  0.1379  0.3709 -0.2019
  595ERGO   ROH 8797   7.743   8.209  10.157 -0.1545 -0.0334  0.0200
  595ERGO    R1 8798   7.744   8.300   9.889 -0.1282  0.0036  0.0323
  595ERGO    R2 8799   7.977   8.337   9.745 -0.1083  0.1160  0.0910
  595ERGO    R3 8800   7.854   8.173   9.566 -0.0020  0.0910  0.0407
  595ERGO    R4 8801   8.085   8.281   9.421 -0.0477  0.2509  0.0875
  595ERGO    R5 8802   7.877   8.285   9.356 -0.0438  0.1527  0.0696
  595ERGO    C1 8803   8.033   8.094   9.066  0.0875  0.3060  0.0382
  595ERGO    C2 8804   7.879   7.986   8.698 -0.3010  0.1944  0.1145
  596ERGO   ROH 8805   7.995  15.198   9.973 -0.0975  0.1336 -0.0431
  596ERGO    R1 8806   8.038  15.273   9.703 -0.0477  0.0956 -0.0459
  596ERGO    R2 8807   8.290  15.283   9.589 -0.0232  0.1151  0.0098
  596ERGO    R3 8808   8.177  15.118   9.405  0.0438  0.0675  0.0111
  596ERGO    R4 8809   8.353  15.293   9.249 -0.0127  0.1242  0.0119
  596ERGO    R5 8810   8.141  15.257   9.214  0.0017  0.0470  0.0041
  596ERGO    C1 8811   8.283  15.145   8.879  0.0562  0.0848  0.0144
  596ERGO    C2 8812   8.348  15.063   8.604 -0.2875 -0.0387 -0.0111
  597ERGO   ROH 8813   5.186   5.904  10.077  0.2215 -0.0889  0.0254
  597ERGO    R1 8814   5.331   5.840   9.842  0.1583 -0.1015 -0.0121
  597ERGO    R2 8815   5.377   5.579   9.762  0.1532 -0.1127 -0.0050
  597ERGO    R3 8816   5.264   5.664   9.530  0.0745 -0.1349  0.0270
  597ERGO    R4 8817   5.426   5.434   9.453  0.0150 -0.1505 -0.0084
  597ERGO    R5 8818   5.434   5.633   9.365  0.0002 -0.1702 -0.0356
  597ERGO    C1 8819   5.349   5.429   9.055 -0.1393 -0.1933  0.0196
  597ERGO    C2 8820   5.267   5.414   8.758  0.1467  0.0007  0.1370
  598ERGO   ROH 8821   3.229  12.694   9.788  0.1574  0.0430 -0.0507
  598ERGO    R1 8822   3.091  12.772   9.554  0.1056  0.0157 -0.0300
  598ERGO    R2 8823   3.190  12.962   9.379  0.0379  0.0423 -0.0425
  598ERGO    R3 8824   3.154  12.765   9.195  0.0567  0.0358 -0.0388
  598ERGO    R4 8825   3.138  13.015   9.042 -0.0727  0.0342 -0.0267
  598ERGO    R5 8826   2.990  12.855   9.045 -0.0152 -0.0172  0.0085
  598ERGO    C1 8827   3.073  12.861   8.672 -0.1194  0.0235 -0.0138
  598ERGO    C2 8828   3.110  13.127   8.506 -0.0123 -0.0314  0.2070
  599ERGO   ROH 8829  17.030  16.345   9.855  0.0627 -0.2402 -0.0736
  599ERGO    R1 8830  16.994  16.446   9.594  0.2161 -0.0846 -0.0365
  599ERGO    R2 8831  17.150  16.368   9.381  0.1104 -0.2322 -0.0606
  599ERGO    R3 8832  16.910  16.310   9.266  0.0252  0.1592 -0.0919
  599ERGO    R4 8833  17.105  16.286   9.048  0.0975 -0.6101  0.0287
  599ERGO    R5 8834  16.924  16.409   9.048  0.3695 -0.1783 -0.2335
  599ERGO    C1 8835  16.853  16.185   8.747  0.0099 -0.4626  0.0513
  599ERGO    C2 8836  16.754  16.142   8.502  0.0898  0.0428 -0.1815
  600ERGO   ROH 8837   7.347  10.996   9.687  0.0496  0.4354 -0.1249
  600ERGO    R1 8838   7.453  11.024   9.426  0.0106  0.2160 -0.1661
  600ERGO    R2 8839   7.352  10.885   9.209 -0.1470  0.1770 -0.0695
  600ERGO    R3 8840   7.330  11.134   9.102  0.0191  0.1384 -0.1961
  600ERGO    R4 8841   7.335  10.954   8.871 -0.0187  0.0220 -0.1084
  600ERGO    R5 8842   7.465  11.125   8.904  0.0680 -0.0328 -0.1574
  600ERGO    C1 8843   7.305  11.227   8.573  0.2118 -0.1047 -0.2498
  600ERGO    C2 8844   7.231  11.184   8.305  0.0072  0.2469 -0.0759
  601ERGO   ROH 8845   7.810  17.588   9.632 -0.1291 -0.2445  0.1536
  601ERGO    R1 8846   7.807  17.724   9.384 -0.1281 -0.3026  0.1232
  601ERGO    R2 8847   8.033  17.754   9.229 -0.0765 -0.1184  0.2436
  601ERGO    R3 8848   7.877  17.642   9.036  0.1388 -0.3095  0.1743
  601ERGO    R4 8849   8.051  17.830   8.892 -0.2105  0.1377  0.2902
  601ERGO    R5 8850   7.833  17.822   8.884 -0.2102 -0.2846  0.2872
  601ERGO    C1 8851   7.916  17.769   8.515 -0.0863  0.1077  0.2521
  601ERGO    C2 8852   7.962  17.700   8.187  0.3061 -0.0413 -0.1444
  602ERGO   ROH 8853  10.954   7.258   9.663  0.0535 -0.1972  0.0223
  602ERGO    R1 8854  11.052   7.315   9.404 -0.0399 -0.1299  0.0016
  602ERGO    R2 8855  11.313   7.264   9.328  0.0014  0.1203 -0.0288
  602ERGO    R3 8856  11.194   7.126   9.127  0.1093 -0.0231  0.0036
  602ERGO    R4 8857  11.466   7.175   9.031  0.0796  0.1527  0.0010
  602ERGO    R5 8858  11.281   7.224   8.927  0.0452 -0.0109 -0.0197
  602ERGO    C1 8859  11.442   6.993   8.669  0.2263  0.0369  0.0486
  602ERGO    C2 8860  11.495   6.854   8.373  0.1485 -0.5189 -0.1976
  603ERGO   ROH 8861   7.723  14.204   9.457  0.1831 -0.3428  0.2226
  603ERGO    R1 8862   7.701  14.292   9.189  0.0418 -0.2640  0.2600
  603ERGO    R2 8863   7.904  14.259   9.004 -0.0242 -0.1323  0.1685
  603ERGO    R3 8864   7.708  14.138   8.859 -0.0399 -0.1531  0.2048
  603ERGO    R4 8865   7.929  14.175   8.669 -0.1614  0.0993  0.0978
  603ERGO    R5 8866   7.723  14.241   8.643 -0.2205 -0.0006  0.2589
  603ERGO    C1 8867   7.759  14.014   8.338 -0.2560  0.2146  0.0908
  603ERGO    C2 8868   7.744  13.822   8.042  0.0255 -0.4082  0.1367
  604ERGO   ROH 8869   3.758   9.830   9.722  0.0621  0.1024  0.0118
  604ERGO    R1 8870   3.879   9.799   9.469  0.1743  0.0405  0.0730
  604ERGO    R2 8871   4.128   9.682   9.436  0.0950 -0.1576  0.1920
  604ERGO    R3 8872   3.993   9.521   9.263  0.0594 -0.0232  0.0924
  604ERGO    R4 8873   4.255   9.563   9.137  0.0773 -0.0028  0.1215
  604ERGO    R5 8874   4.060   9.598   9.046  0.0823  0.0976  0.1384
  604ERGO    C1 8875   4.203   9.343   8.801  0.0336  0.2136 -0.0131
  604ERGO    C2 8876   4.312   9.229   8.508 -0.1396 -0.0147  0.0542
  605ERGO   ROH 8877  15.386  16.021   9.934 -0.0416  0.3335 -0.0145
  605ERGO    R1 8878  15.439  15.905   9.681  0.2141  0.2910  0.0557
  605ERGO    R2 8879  15.239  15.851   9.497  0.3456 -0.1192  0.0238
  605ERGO    R3 8880  15.396  16.000   9.333  0.1559  0.0541 -0.0035
  605ERGO    R4 8881  15.245  15.825   9.153  0.3428 -0.1434  0.0257
  605ERGO    R5 8882  15.462  15.849   9.159  0.3192  0.1136  0.0040
  605ERGO    C1 8883  15.396  15.950   8.798  0.1630  0.0051  0.0011
  605ERGO    C2 8884  15.441  15.945   8.444 -0.0113 -0.1212 -0.0067
  606ERGO   ROH 8885  14.381   5.437  10.157 -0.3170 -0.0593  0.0840
  606ERGO    R1 8886  14.262   5.378   9.907 -0.0717  0.1553 -0.0885
  606ERGO    R2 8887  14.370   5.464   9.667  0.4341 -0.0353  0.0559
  606ERGO    R3 8888  14.359   5.199   9.605  0.0444 -0.0224  0.0524
  606ERGO    R4 8889  14.502   5.322   9.381  0.2735 -0.2388  0.0810
  606ERGO    R5 8890  14.325   5.196   9.368  0.0818  0.0281  0.0480
  606ERGO    C1 8891  14.567   4.992   9.155 -0.1858 -0.3454  0.0922
  606ERGO    C2 8892  14.547   4.862   8.804  0.3636 -0.1904 -0.1418
  607ERGO   ROH 8893  15.051  16.957   9.694 -0.4555 -0.0672  0.1043
  607ERGO    R1 8894  14.892  16.967   9.460 -0.3254 -0.1751  0.0129
  607ERGO    R2 8895  14.967  17.106   9.234 -0.2981 -0.1114  0.0761
  607ERGO    R3 8896  14.926  16.866   9.112 -0.0542 -0.1317  0.0216
  607ERGO    R4 8897  14.962  17.057   8.892 -0.1908 -0.0325  0.0602
  607ERGO    R5 8898  14.795  16.919   8.919 -0.0783 -0.2029  0.0069
  607ERGO    C1 8899  14.920  16.803   8.579  0.1007 -0.0054 -0.0001
  607ERGO    C2 8900  14.872  16.842   8.202 -0.0019  0.0180 -0.2522
  608ERGO   ROH 8901  10.607  16.878  10.218  0.2958  0.1336  0.0262
  608ERGO    R1 8902  10.511  16.963   9.965  0.3493  0.1456  0.0090
  608ERGO    R2 8903  10.671  17.097   9.783  0.5166 -0.2166 -0.1276
  608ERGO    R3 8904  10.592  16.898   9.616  0.1303 -0.1943  0.0186
  608ERGO    R4 8905  10.693  17.107   9.438  0.2194 -0.3908 -0.1546
  608ERGO    R5 8906  10.498  17.011   9.428  0.0958 -0.1649  0.0578
  608ERGO    C1 8907  10.632  16.925   9.081 -0.3163 -0.4713 -0.0330
  608ERGO    C2 8908  10.634  16.843   8.731 -0.1020  0.3009  0.1149
  609ERGO   ROH 8909  15.345  11.201  10.005 -0.0737  0.2394 -0.0897
  609ERGO    R1 8910  15.386  11.323   9.753 -0.0177  0.1473 -0.1266
  609ERGO    R2 8911  15.401  11.179   9.518 -0.0858  0.0704 -0.0866
  609ERGO    R3 8912  15.204  11.349   9.439 -0.0082  0.1392 -0.1320
  609ERGO    R4 8913  15.324  11.254   9.190 -0.1078 -0.0473 -0.1084
  609ERGO    R5 8914  15.295  11.462   9.249  0.0162 -0.0029 -0.2044
  609ERGO    C1 8915  15.095  11.457   8.924 -0.0477 -0.0514 -0.1638
  609ERGO    C2 8916  14.768  11.500   8.691 -0.0641  0.0025  0.0546
  610ERGO   ROH 8917  13.642  14.344  10.012  0.0450 -0.2658  0.2321
  610ERGO    R1 8918  13.727  14.436   9.758 -0.1389 -0.1214  0.2193
  610ERGO    R2 8919  13.958  14.344   9.636 -0.0234  0.2159  0.1618
  610ERGO    R3 8920  13.788  14.290   9.431  0.0034 -0.0146  0.1988
  610ERGO    R4 8921  14.042  14.360   9.301 -0.0791  0.1658  0.1460
  610ERGO    R5 8922  13.847  14.449   9.262 -0.1619 -0.0268  0.1323
  610ERGO    C1 8923  13.932  14.319   8.913 -0.0863 -0.0799  0.1714
  610ERGO    C2 8924  14.165  14.261   8.724 -0.1945  0.1289  0.0193
  611ERGO   ROH 8925   5.436   8.723   9.921 -0.1331 -0.0566  0.1551
  611ERGO    R1 8926   5.416   8.579   9.678 -0.2214  0.0222  0.1150
  611ERGO    R2 8927   5.303   8.686   9.451 -0.0946  0.1812  0.1242
  611ERGO    R3 8928   5.540   8.617   9.338 -0.1359  0.0039  0.1442
  611ERGO    R4 8929   5.353   8.638   9.112 -0.0972  0.1439  0.1289
  611ERGO    R5 8930   5.479   8.467   9.161 -0.2301  0.0497  0.1387
  611ERGO    C1 8931   5.606   8.545   8.809 -0.1374 -0.0443  0.1504
  611ERGO    C2 8932   5.571   8.641   8.324  0.2851  0.0433 -0.1559
  612ERGO   ROH 8933  10.518  17.822  10.342 -0.0585  0.0158 -0.0072
  612ERGO    R1 8934  10.477  17.972  10.106  0.0603 -0.0072 -0.0416
  612ERGO    R2 8935  10.576  17.893   9.860 -0.1611 -0.2422 -0.0525
  612ERGO    R3 8936  10.316  17.919   9.783 -0.1601  0.1146  0.0440
  612ERGO    R4 8937  10.472  17.973   9.541 -0.1609 -0.2227 -0.0485
  612ERGO    R5 8938  10.318  18.101   9.628  0.0591  0.0526 -0.0366
  612ERGO    C1 8939  10.167  18.044   9.282 -0.1598  0.1239  0.0444
  612ERGO    C2 8940  10.053  17.969   8.901 -0.0718  0.2204 -0.0661
  613ERGO   ROH 8941   0.580  10.272   9.906  0.0836 -0.0421  0.0109
  613ERGO    R1 8942   0.585  10.200   9.633  0.2821 -0.1597  0.0435
  613ERGO    R2 8943   0.522  10.378   9.431 -0.1500 -0.3978 -0.0434
  613ERGO    R3 8944   0.766  10.306   9.335  0.0521  0.1596  0.0116
  613ERGO    R4 8945   0.615  10.390   9.098 -0.1706 -0.3642 -0.0482
  613ERGO    R5 8946   0.718  10.200   9.125  0.3200 -0.0977  0.0737
  613ERGO    C1 8947   0.899  10.329   8.815  0.0070  0.1787  0.0008
  613ERGO    C2 8948   0.885  10.332   8.383  0.1815 -0.0083 -0.1555
  614ERGO   ROH 8949   0.792   2.821   9.799 -0.2176  0.0403 -0.0044
  614ERGO    R1 8950   0.732   2.833   9.523  0.0204  0.2886 -0.0501
  614ERGO    R2 8951   0.898   2.956   9.339  0.4189  0.0487  0.1333
  614ERGO    R3 8952   0.884   2.715   9.214  0.0363  0.1239  0.0201
  614ERGO    R4 8953   0.993   2.898   9.012  0.4911  0.0131  0.1606
  614ERGO    R5 8954   0.819   2.769   8.989  0.2574  0.3456  0.0069
  614ERGO    C1 8955   1.035   2.638   8.704  0.1740  0.0629  0.0703
  614ERGO    C2 8956   1.218   2.630   8.298 -0.1876 -0.3894 -0.0100
  615ERGO   ROH 8957  16.320   8.322  10.078 -0.2035 -0.1060  0.1741
  615ERGO    R1 8958  16.433   8.433   9.843 -0.0638 -0.0593  0.2627
  615ERGO    R2 8959  16.429   8.301   9.600  0.0313  0.0133  0.2231
  615ERGO    R3 8960  16.315   8.532   9.514  0.1214  0.0617  0.2310
  615ERGO    R4 8961  16.421   8.407   9.271 -0.0024 -0.0164  0.2140
  615ERGO    R5 8962  16.461   8.610   9.340  0.1157 -0.0272  0.1846
  615ERGO    C1 8963  16.309   8.685   8.998  0.0625  0.0118  0.2161
  615ERGO    C2 8964  16.299   8.546   8.599  0.0591  0.0325  0.0243
  616ERGO   ROH 8965  16.026   6.560   9.879  0.0924 -0.1423 -0.0606
  616ERGO    R1 8966  15.904   6.574   9.625 -0.0248  0.0636  0.0042
  616ERGO    R2 8967  15.833   6.813   9.506  0.2781  0.1858  0.0615
  616ERGO    R3 8968  15.984   6.719   9.300  0.0277 -0.0332 -0.0265
  616ERGO    R4 8969  15.837   6.946   9.187  0.2742  0.1738  0.0567
  616ERGO    R5 8970  15.843   6.742   9.108 -0.0565  0.1582  0.0556
  616ERGO    C1 8971  15.980   6.934   8.808  0.0369 -0.0388 -0.0289
  616ERGO    C2 8972  15.916   7.074   8.455  0.0455 -0.0827  0.2649
  617ERGO   ROH 8973   8.575  11.565   9.871 -0.0395  0.1149  0.1634
  617ERGO    R1 8974   8.705  11.620   9.626 -0.0535 -0.0583  0.1158
  617ERGO    R2 8975   8.721  11.434   9.422 -0.3032 -0.1128  0.1388
  617ERGO    R3 8976   8.611  11.634   9.275 -0.1438 -0.0208  0.1421
  617ERGO    R4 8977   8.711  11.444   9.076 -0.1777 -0.0233  0.1369
  617ERGO    R5 8978   8.756  11.657   9.086 -0.0679 -0.0522  0.1994
  617ERGO    C1 8979   8.601  11.638   8.737  0.0449  0.1154  0.1388
  617ERGO    C2 8980   8.599  11.808   8.319  0.1261  0.4441 -0.2107
  618ERGO   ROH 8981   4.613  10.818   9.788  0.0513  0.0765 -0.1896
  618ERGO    R1 8982   4.701  10.688   9.552 -0.0383  0.1449 -0.2594
  618ERGO    R2 8983   4.553  10.490   9.428  0.0107  0.0455 -0.1424
  618ERGO    R3 8984   4.580  10.651   9.210 -0.2749  0.0617 -0.1715
  618ERGO    R4 8985   4.617  10.379   9.107  0.2500  0.0836 -0.1114
  618ERGO    R5 8986   4.753  10.547   9.081 -0.0555  0.3496 -0.1320
  618ERGO    C1 8987   4.679  10.466   8.716  0.1211  0.1211 -0.1207
  618ERGO    C2 8988   4.690  10.560   8.430  0.1363 -0.2542 -0.3536
  619ERGO   ROH 8989   1.944  13.215   9.666  0.2955  0.2061  0.0559
  619ERGO    R1 8990   1.779  13.160   9.443  0.1815  0.0608  0.1726
  619ERGO    R2 8991   1.731  13.346   9.244 -0.0786  0.0024  0.1715
  619ERGO    R3 8992   1.820  13.148   9.081 -0.0479  0.0366  0.1477
  619ERGO    R4 8993   1.633  13.301   8.916 -0.1799 -0.0700  0.2119
  619ERGO    R5 8994   1.628  13.086   8.952 -0.0629 -0.0653  0.2250
  619ERGO    C1 8995   1.659  13.088   8.572 -0.2099 -0.0802  0.2131
  619ERGO    C2 8996   1.699  13.233   8.240 -0.0183  0.0111 -0.1448
  620ERGO   ROH 8997  15.453   8.278   9.958 -0.0894 -0.2329 -0.0781
  620ERGO    R1 8998  15.470   8.408   9.707 -0.1528 -0.0894 -0.0083
  620ERGO    R2 8999  15.461   8.270   9.467  0.1154  0.0129 -0.0753
  620ERGO    R3 9000  15.258   8.443   9.413 -0.0835 -0.2126 -0.0758
  620ERGO    R4 9001  15.337   8.336   9.152  0.2031  0.0360 -0.1063
  620ERGO    R5 9002  15.322   8.547   9.207 -0.0980 -0.0060  0.0162
  620ERGO    C1 9003  15.074   8.537   8.917  0.0675 -0.1621 -0.1248
  620ERGO    C2 9004  14.892   8.412   8.725 -0.0371  0.1453  0.4034
  621ERGO   ROH 9005   5.189  16.198   9.571 -0.1353 -0.0422  0.0801
  621ERGO    R1 9006   5.100  16.225   9.303 -0.0847  0.0099  0.0666
  621ERGO    R2 9007   5.201  16.416   9.131 -0.0563  0.0540  0.1201
  621ERGO    R3 9008   5.247  16.201   8.971 -0.0153  0.0847  0.0938
  621ERGO    R4 9009   5.193  16.423   8.786  0.0559  0.1090  0.1195
  621ERGO    R5 9010   5.093  16.229   8.790  0.0500  0.1192  0.0504
  621ERGO    C1 9011   5.232  16.225   8.435  0.1597  0.1700  0.0945
  621ERGO    C2 9012   5.302  16.263   8.172  0.3636  0.1181 -0.0009
  622ERGO   ROH 9013  14.127   2.739  10.084  0.1911  0.0810  0.0818
  622ERGO    R1 9014  14.257   2.708   9.834  0.2447  0.0429  0.1137
  622ERGO    R2 9015  14.464   2.529   9.795  0.1329 -0.0978  0.1382
  622ERGO    R3 9016  14.306   2.439   9.594  0.1261  0.0577  0.0732
  622ERGO    R4 9017  14.572   2.334   9.531  0.0345 -0.2699  0.2236
  622ERGO    R5 9018  14.445   2.451   9.399  0.2393 -0.1382  0.1403
  622ERGO    C1 9019  14.486   2.137   9.188 -0.0292 -0.2241  0.2121
  622ERGO    C2 9020  14.406   2.051   8.824 -0.0155 -0.0680 -0.3529
  623ERGO   ROH 9021   5.037  17.159   9.943 -0.0174  0.3476 -0.0144
  623ERGO    R1 9022   4.979  17.031   9.697  0.1081  0.2144  0.0224
  623ERGO    R2 9023   4.831  17.152   9.496 -0.1457 -0.0409  0.0368
  623ERGO    R3 9024   5.048  17.091   9.345 -0.0837  0.2718 -0.0041
  623ERGO    R4 9025   4.825  17.091   9.156 -0.1421 -0.2351  0.0713
  623ERGO    R5 9026   4.968  16.930   9.187  0.1590  0.0419  0.1082
  623ERGO    C1 9027   5.025  16.999   8.816 -0.0818 -0.0546  0.0531
  623ERGO    C2 9028   5.120  17.087   8.576  0.0457  0.0169 -0.1532
  624ERGO   ROH 9029   6.222   4.583   9.985 -0.0544 -0.0504 -0.1496
  624ERGO    R1 9030   6.416   4.527   9.787 -0.0169 -0.0491 -0.1134
  624ERGO    R2 9031   6.387   4.321   9.605  0.0337 -0.0692 -0.0985
  624ERGO    R3 9032   6.427   4.519   9.423  0.0422 -0.0824 -0.1111
  624ERGO    R4 9033   6.469   4.271   9.273  0.1033 -0.0934 -0.0779
  624ERGO    R5 9034   6.607   4.439   9.286  0.0790 -0.0736 -0.0689
  624ERGO    C1 9035   6.554   4.428   8.909  0.1517 -0.1200 -0.0778
  624ERGO    C2 9036   6.526   4.285   8.591 -0.2536 -0.2662  0.2266
  625ERGO   ROH 9037   7.550   0.405   9.842  0.0315  0.2215 -0.0570
  625ERGO    R1 9038   7.648   0.567   9.632  0.0804  0.1047 -0.1242
  625ERGO    R2 9039   7.839   0.480   9.452 -0.0113 -0.0564 -0.1364
  625ERGO    R3 9040   7.653   0.554   9.268 -0.0030  0.0003 -0.1239
  625ERGO    R4 9041   7.910   0.586   9.131  0.0018 -0.2673 -0.2061
  625ERGO    R5 9042   7.754   0.737   9.152  0.1192 -0.1296 -0.2366
  625ERGO    C1 9043   7.776   0.718   8.772  0.0173 -0.3369 -0.2349
  625ERGO    C2 9044   7.999   0.640   8.480  0.1405 -0.1060 -0.1079
  626ERGO   ROH 9045   3.139   4.051   9.821  0.1736 -0.1021 -0.1135
  626ERGO    R1 9046   3.027   3.978   9.571  0.0424  0.0203 -0.0915
  626ERGO    R2 9047   3.028   4.148   9.353  0.0971  0.0570 -0.0619
  626ERGO    R3 9048   3.147   3.938   9.230 -0.0938 -0.0099 -0.1365
  626ERGO    R4 9049   3.016   4.085   9.014  0.0923  0.2273 -0.0940
  626ERGO    R5 9050   2.993   3.873   9.059 -0.1315  0.2262 -0.1955
  626ERGO    C1 9051   3.121   3.851   8.700 -0.0898  0.2637 -0.1829
  626ERGO    C2 9052   3.078   3.801   8.374  0.0232  0.0350  0.0914
  627ERGO   ROH 9053  17.085   0.555   9.569 -0.2524  0.3020 -0.0392
  627ERGO    R1 9054  17.172   0.636   9.312 -0.0831  0.1287 -0.0383
  627ERGO    R2 9055  17.277   0.459   9.128 -0.2237 -0.0450  0.0481
  627ERGO    R3 9056  17.083   0.562   8.967 -0.0618  0.1243 -0.0432
  627ERGO    R4 9057  17.206   0.348   8.808 -0.3611 -0.1846  0.1246
  627ERGO    R5 9058  17.179   0.556   8.747 -0.0484 -0.1831 -0.0344
  627ERGO    C1 9059  16.984   0.381   8.471 -0.2891 -0.1071  0.0835
  627ERGO    C2 9060  17.017   0.036   8.239 -0.1779 -0.4098 -0.1300
  628ERGO   ROH 9061   5.641   5.926  10.487  0.1387  0.0811  0.0614
  628ERGO    R1 9062   5.772   5.962  10.239  0.0378  0.0082 -0.0036
  628ERGO    R2 9063   5.909   5.758  10.111 -0.0245 -0.0329 -0.0059
  628ERGO    R3 9064   5.746   5.823   9.904 -0.1080 -0.0812  0.0440
  628ERGO    R4 9065   5.986   5.715   9.777 -0.1230 -0.0275 -0.0295
  628ERGO    R5 9066   5.893   5.907   9.736 -0.1833 -0.0521 -0.0077
  628ERGO    C1 9067   5.878   5.751   9.388 -0.2587 -0.0697  0.0035
  628ERGO    C2 9068   5.821   5.569   9.055  0.0840 -0.1018  0.0892
  629ERGO   ROH 9069   5.813   3.845   9.889 -0.1211 -0.1074  0.0084
  629ERGO    R1 9070   5.619   3.783   9.692 -0.1038 -0.1333 -0.0006
  629ERGO    R2 9071   5.448   3.973   9.587 -0.1651 -0.1681  0.0348
  629ERGO    R3 9072   5.549   3.885   9.350 -0.1393 -0.0942  0.0184
  629ERGO    R4 9073   5.264   3.931   9.297 -0.1357 -0.0900  0.0049
  629ERGO    R5 9074   5.375   3.748   9.259 -0.1251 -0.0740 -0.0387
  629ERGO    C1 9075   5.252   3.825   8.906 -0.0944  0.0248 -0.0278
  629ERGO    C2 9076   5.211   3.831   8.543 -0.0855 -0.2528  0.0221
  630ERGO   ROH 9077  11.121  10.643   9.739  0.2900 -0.0863  0.1606
  630ERGO    R1 9078  11.137  10.604   9.459  0.2200  0.0346  0.1408
  630ERGO    R2 9079  10.978  10.743   9.280  0.1778  0.1067  0.2467
  630ERGO    R3 9080  11.218  10.806   9.168  0.1454  0.1571  0.2012
  630ERGO    R4 9081  11.021  10.849   8.954  0.1158 -0.2356  0.1210
  630ERGO    R5 9082  11.201  10.726   8.943  0.2184 -0.1231  0.2839
  630ERGO    C1 9083  11.271  10.971   8.659  0.0492 -0.3877  0.0053
  630ERGO    C2 9084  11.402  11.145   8.371 -0.0224  0.0669  0.2244
  631ERGO   ROH 9085  16.517  10.702   9.814  0.0512 -0.0244 -0.0414
  631ERGO    R1 9086  16.464  10.759   9.542  0.0379  0.1512 -0.0038
  631ERGO    R2 9087  16.573  10.977   9.412  0.2325  0.0991  0.0628
  631ERGO    R3 9088  16.657  10.788   9.236 -0.0097  0.0837 -0.0396
  631ERGO    R4 9089  16.714  11.043   9.104  0.2918  0.0827  0.0869
  631ERGO    R5 9090  16.600  10.877   9.021  0.0827  0.2626  0.0098
  631ERGO    C1 9091  16.876  10.905   8.759  0.0987  0.0588  0.0048
  631ERGO    C2 9092  17.064  10.687   8.540  0.0957 -0.6635  0.3004
  632ERGO   ROH 9093   1.056   8.604   9.883 -0.2305  0.1027 -0.0707
  632ERGO    R1 9094   1.021   8.612   9.602 -0.0484 -0.0206 -0.0985
  632ERGO    R2 9095   0.996   8.850   9.462 -0.0976 -0.0887 -0.1978
  632ERGO    R3 9096   1.201   8.748   9.316  0.0608 -0.0171 -0.0298
  632ERGO    R4 9097   1.100   8.972   9.156  0.0706 -0.0804 -0.1387
  632ERGO    R5 9098   1.128   8.766   9.089  0.2163 -0.0828 -0.0905
  632ERGO    C1 9099   1.354   8.947   8.841  0.3174 -0.0083  0.0533
  632ERGO    C2 9100   1.440   9.000   8.543 -0.0111 -0.0320 -0.1638
  633ERGO   ROH 9101   7.364  17.647   9.828 -0.0097 -0.0588  0.1588
  633ERGO    R1 9102   7.263  17.648   9.563  0.0867 -0.0454  0.1220
  633ERGO    R2 9103   7.262  17.874   9.406  0.0328 -0.0088  0.1780
  633ERGO    R3 9104   7.394  17.714   9.230  0.1759  0.1000  0.1843
  633ERGO    R4 9105   7.294  17.936   9.067 -0.2571 -0.1230  0.1268
  633ERGO    R5 9106   7.263  17.724   9.030  0.0402 -0.1958  0.2524
  633ERGO    C1 9107   7.436  17.822   8.705 -0.2915 -0.0876  0.1029
  633ERGO    C2 9108   7.433  17.793   8.309 -0.0352  0.0888  0.0874
  634ERGO   ROH 9109  16.094   0.377   9.533  0.0621  0.2843  0.0482
  634ERGO    R1 9110  15.957   0.445   9.295 -0.0012  0.1450  0.0459
  634ERGO    R2 9111  16.078   0.579   9.087 -0.1055  0.1708  0.0117
  634ERGO    R3 9112  15.987   0.369   8.940  0.0099  0.0860  0.0572
  634ERGO    R4 9113  16.063   0.573   8.742  0.0195  0.0505  0.0061
  634ERGO    R5 9114  15.869   0.471   8.758  0.0382 -0.0075 -0.0224
  634ERGO    C1 9115  15.969   0.373   8.403  0.2004 -0.0992  0.0454
  634ERGO    C2 9116  16.065   0.162   8.124 -0.0169 -0.0238 -0.1743
  635ERGO   ROH 9117  11.548   0.325  10.152 -0.0846 -0.2026  0.0619
  635ERGO    R1 9118  11.546   0.366   9.872 -0.1079 -0.0171  0.0888
  635ERGO    R2 9119  11.659   0.187   9.694 -0.0401  0.1474 -0.0321
  635ERGO    R3 9120  11.412   0.194   9.580 -0.0451  0.1226 -0.0245
  635ERGO    R4 9121  11.597   0.155   9.356 -0.0564 -0.0119 -0.0154
  635ERGO    R5 9122  11.445   0.311   9.374 -0.0373  0.0183 -0.0849
  635ERGO    C1 9123  11.329   0.143   9.052 -0.0705 -0.1280  0.0014
  635ERGO    C2 9124  11.271   0.278   8.672  0.1279 -0.0681 -0.0140
  636ERGO   ROH 9125  15.359   3.424   9.733 -0.0661 -0.1118 -0.1737
  636ERGO    R1 9126  15.478   3.443   9.477 -0.1998 -0.1202 -0.2378
  636ERGO    R2 9127  15.752   3.441   9.440 -0.2062  0.2278 -0.3509
  636ERGO    R3 9128  15.696   3.236   9.271 -0.0045  0.0320 -0.1868
  636ERGO    R4 9129  15.942   3.354   9.164 -0.1594  0.2324 -0.3202
  636ERGO    R5 9130  15.757   3.319   9.055 -0.1401 -0.0620 -0.2608
  636ERGO    C1 9131  15.998   3.111   8.845  0.0570  0.0513 -0.1484
  636ERGO    C2 9132  16.241   3.159   8.583  0.0708 -0.1482  0.0176
  637ERGO   ROH 9133  17.371   9.444   9.970  0.0024  0.0184 -0.0099
  637ERGO    R1 9134  17.211   9.525   9.752 -0.2004 -0.2140  0.0467
  637ERGO    R2 9135  17.317   9.591   9.506 -0.3467  0.2272  0.0893
  637ERGO    R3 9136  17.140   9.405   9.416  0.1035 -0.1551 -0.0399
  637ERGO    R4 9137  17.176   9.593   9.191 -0.6153  0.3121  0.2079
  637ERGO    R5 9138  16.986   9.532   9.282 -0.3808 -0.3787  0.2837
  637ERGO    C1 9139  16.928   9.419   8.922 -0.3490  0.0028  0.1557
  637ERGO    C2 9140  16.935   9.413   8.505 -0.1910 -0.3240 -0.1182
  638ERGO   ROH 9141  15.971   2.181   9.871  0.3106 -0.1067 -0.0062
  638ERGO    R1 9142  15.872   2.270   9.622 -0.0671 -0.1819  0.1107
  638ERGO    R2 9143  16.033   2.295   9.398 -0.2705  0.2951  0.0088
  638ERGO    R3 9144  15.844   2.136   9.285 -0.0090 -0.0643  0.0571
  638ERGO    R4 9145  16.014   2.218   9.062 -0.2681  0.3497 -0.0047
  638ERGO    R5 9146  15.798   2.238   9.074 -0.3164 -0.0911  0.1039
  638ERGO    C1 9147  15.825   2.024   8.759 -0.0215  0.0441  0.0327
  638ERGO    C2 9148  15.929   1.941   8.315  0.1548 -0.0649 -0.1376
  639ERGO   ROH 9149  10.443   0.884  10.668  0.0842  0.0229  0.1314
  639ERGO    R1 9150  10.537   0.987  10.421 -0.1348  0.1244  0.0877
  639ERGO    R2 9151  10.679   0.833  10.241  0.1302  0.3269  0.1198
  639ERGO    R3 9152  10.486   0.915  10.068 -0.0494 -0.0819  0.1157
  639ERGO    R4 9153  10.707   0.831   9.896  0.0855  0.2529  0.1162
  639ERGO    R5 9154  10.605   1.023   9.891 -0.2659  0.0741  0.0603
  639ERGO    C1 9155  10.541   0.907   9.534 -0.1091 -0.1740  0.1103
  639ERGO    C2 9156  10.436   0.933   9.150  0.3124 -0.3492 -0.1709
  640ERGO   ROH 9157   9.536  14.940   9.936  0.0964  0.2105  0.1076
  640ERGO    R1 9158   9.458  14.960   9.665  0.0671  0.1450  0.1104
  640ERGO    R2 9159   9.337  15.186   9.561  0.1419  0.1595  0.0455
  640ERGO    R3 9160   9.541  15.173   9.381  0.1149  0.0127  0.0251
  640ERGO    R4 9161   9.335  15.336   9.250  0.2417  0.1971  0.0631
  640ERGO    R5 9162   9.431  15.158   9.169  0.0856  0.1288  0.0338
  640ERGO    C1 9163   9.525  15.411   8.900  0.2743  0.0812  0.0543
  640ERGO    C2 9164   9.704  15.455   8.577 -0.0914 -0.2038  0.4605
  641ERGO   ROH 9165   1.699   7.168  10.122  0.3574 -0.0262  0.1375
  641ERGO    R1 9166   1.731   7.217   9.845  0.2818  0.0079  0.1353
  641ERGO    R2 9167   1.872   7.048   9.679  0.1837  0.0005  0.0674
  641ERGO    R3 9168   1.642   7.050   9.535  0.1419  0.0801  0.1331
  641ERGO    R4 9169   1.855   7.031   9.334  0.0928 -0.1439  0.0778
  641ERGO    R5 9170   1.695   7.179   9.340  0.1798 -0.0342  0.0591
  641ERGO    C1 9171   1.629   7.023   8.998  0.0006 -0.1533  0.1457
  641ERGO    C2 9172   1.568   6.925   8.691  0.2092 -0.1692  0.3045
  642ERGO   ROH 9173   2.058   0.568   9.788  0.1504 -0.2627  0.1080
  642ERGO    R1 9174   2.158   0.426   9.565  0.0030 -0.1226 -0.0513
  642ERGO    R2 9175   2.006   0.243   9.424 -0.0682 -0.0962 -0.0206
  642ERGO    R3 9176   2.076   0.397   9.211 -0.2898  0.0386  0.0028
  642ERGO    R4 9177   1.980   0.146   9.094  0.1491 -0.1054 -0.0354
  642ERGO    R5 9178   2.172   0.243   9.056 -0.0073  0.2158  0.0027
  642ERGO    C1 9179   2.031   0.234   8.701  0.0676  0.0159 -0.0222
  642ERGO    C2 9180   2.074   0.286   8.401  0.0567  0.0247 -0.1064
  643ERGO   ROH 9181   4.096  14.200   9.750 -0.2785 -0.3743  0.0895
  643ERGO    R1 9182   3.971  14.152   9.500 -0.1699 -0.0522 -0.0314
  643ERGO    R2 9183   3.954  14.346   9.303  0.3222  0.0702  0.0299
  643ERGO    R3 9184   4.072  14.154   9.150  0.1135 -0.0764  0.0480
  643ERGO    R4 9185   3.987  14.359   8.959  0.2323 -0.0569  0.0159
  643ERGO    R5 9186   3.940  14.147   8.951  0.0472 -0.0203  0.0900
  643ERGO    C1 9187   4.117  14.188   8.615 -0.0161 -0.2685  0.0247
  643ERGO    C2 9188   4.034  14.109   8.348  0.0511 -0.0360 -0.2140
  644ERGO   ROH 9189  13.185   4.280  10.529  0.0136  0.0230 -0.1369
  644ERGO    R1 9190  13.158   4.364  10.259 -0.0418 -0.0118 -0.1420
  644ERGO    R2 9191  13.342   4.529  10.136 -0.1174  0.0480 -0.1718
  644ERGO    R3 9192  13.350   4.329   9.952 -0.0551  0.0353 -0.1560
  644ERGO    R4 9193  13.499   4.549   9.829  0.0971 -0.0142 -0.0688
  644ERGO    R5 9194  13.331   4.441   9.742  0.1204  0.0318 -0.1764
  644ERGO    C1 9195  13.598   4.373   9.477  0.2805 -0.0625  0.0059
  644ERGO    C2 9196  13.643   4.410   9.124 -0.0208 -0.0115 -0.1888
  645ERGO   ROH 9197   9.954   5.630  10.009 -0.0180 -0.0492 -0.0835
  645ERGO    R1 9198   9.867   5.792   9.794 -0.0469 -0.0208 -0.0509
  645ERGO    R2 9199   9.959   5.760   9.536  0.0352  0.1134 -0.0409
  645ERGO    R3 9200   9.695   5.741   9.478  0.0585 -0.0035 -0.1111
  645ERGO    R4 9201   9.820   5.823   9.226  0.0929  0.0033 -0.0896
  645ERGO    R5 9202   9.654   5.922   9.326  0.0258 -0.0468 -0.1530
  645ERGO    C1 9203   9.491   5.843   8.991  0.1482 -0.1705 -0.1839
  645ERGO    C2 9204   9.201   5.796   8.809 -0.0264  0.0134  0.1927
  646ERGO   ROH 9205  11.783   5.278  10.043 -0.0448  0.0949 -0.0708
  646ERGO    R1 9206  11.731   5.297   9.766  0.1161  0.1545 -0.0995
  646ERGO    R2 9207  11.913   5.402   9.586  0.3160 -0.0130 -0.0079
  646ERGO    R3 9208  11.876   5.165   9.459  0.1509  0.0212 -0.0242
  646ERGO    R4 9209  11.942   5.354   9.245  0.1727  0.0025 -0.0220
  646ERGO    R5 9210  11.768   5.223   9.254  0.1127  0.0939  0.0210
  646ERGO    C1 9211  11.925   5.102   8.928 -0.0655  0.0436 -0.0456
  646ERGO    C2 9212  12.022   5.117   8.600 -0.1506 -0.2678 -0.0150
  647ERGO   ROH 9213  17.061   4.183  10.034 -0.1243 -0.0264 -0.1016
  647ERGO    R1 9214  17.135   4.255   9.771 -0.2300  0.0737 -0.1051
  647ERGO    R2 9215  17.308   4.103   9.618 -0.0146  0.3118 -0.1068
  647ERGO    R3 9216  17.104   4.109   9.438 -0.0322  0.0196 -0.1003
  647ERGO    R4 9217  17.347   4.096   9.275 -0.0215  0.3033 -0.1070
  647ERGO    R5 9218  17.187   4.243   9.259 -0.2126  0.0968 -0.1264
  647ERGO    C1 9219  17.178   4.098   8.906 -0.0421  0.0241 -0.1011
  647ERGO    C2 9220  17.193   4.168   8.529 -0.0647 -0.0252  0.1247
  648ERGO   ROH 9221  17.969   3.873   9.969  0.1537 -0.2991  0.0547
  648ERGO    R1 9222  17.924   3.748   9.719  0.0810 -0.2421  0.0391
  648ERGO    R2 9223  17.711   3.815   9.556  0.1192 -0.0964  0.0457
  648ERGO    R3 9224  17.907   3.852   9.371  0.1437 -0.1881  0.0523
  648ERGO    R4 9225  17.677   3.758   9.217  0.0744  0.0179  0.0306
  648ERGO    R5 9226  17.878   3.673   9.216  0.0133 -0.1256  0.0051
  648ERGO    C1 9227  17.841   3.760   8.846  0.0709 -0.0015  0.0279
  648ERGO    C2 9228  17.959   3.668   8.499  0.2374  0.2802  0.1418
  649ERGO   ROH 9229   0.977  18.094   9.763 -0.0123 -0.1971 -0.0871
  649ERGO    R1 9230   0.894  18.082   9.493  0.0319 -0.1888 -0.1017
  649ERGO    R2 9231   0.770  18.294   9.365 -0.0830 -0.2348 -0.0726
  649ERGO    R3 9232   0.970  18.260   9.185 -0.0347 -0.0719 -0.0505
  649ERGO    R4 9233   0.753  18.385   9.033  0.0198  0.0878  0.0077
  649ERGO    R5 9234   0.857  18.201   8.982  0.0213  0.1312 -0.1412
  649ERGO    C1 9235   0.930  18.407   8.669  0.1251  0.4286  0.0752
  649ERGO    C2 9236   0.770  18.527   8.456 -0.5422 -0.5025 -0.0097
  650ERGO   ROH 9237   6.804   3.087   9.913  0.0439  0.0543  0.1037
  650ERGO    R1 9238   6.912   3.160   9.662 -0.0878 -0.1682 -0.0207
  650ERGO    R2 9239   6.769   3.138   9.427 -0.3939  0.0811  0.1349
  650ERGO    R3 9240   6.834   3.401   9.401  0.0777 -0.0335  0.0516
  650ERGO    R4 9241   6.777   3.311   9.127 -0.4433  0.0570  0.1193
  650ERGO    R5 9242   6.958   3.412   9.196 -0.1543 -0.2802 -0.1089
  650ERGO    C1 9243   6.842   3.658   8.929 -0.0294 -0.0645  0.0320
  650ERGO    C2 9244   6.763   3.685   8.554 -0.0643  0.0169  0.2495
  651ERGO   ROH 9245   2.905   6.951   9.716 -0.1481  0.0672  0.1138
  651ERGO    R1 9246   2.790   7.052   9.478 -0.0845  0.1013  0.0975
  651ERGO    R2 9247   2.940   7.176   9.281 -0.0139  0.0188  0.1000
  651ERGO    R3 9248   2.823   6.990   9.121 -0.0859  0.0596  0.1045
  651ERGO    R4 9249   2.965   7.168   8.937 -0.0220  0.0055  0.0995
  651ERGO    R5 9250   2.755   7.113   8.927 -0.0436  0.0833  0.1039
  651ERGO    C1 9251   2.870   6.989   8.585 -0.0944  0.0360  0.1034
  651ERGO    C2 9252   3.016   6.889   8.255  0.3010 -0.0342 -0.0417
  652ERGO   ROH 9253  14.082  15.708   9.717  0.1285  0.1320  0.1457
  652ERGO    R1 9254  14.140  15.628   9.452  0.0705 -0.0916  0.1996
  652ERGO    R2 9255  13.962  15.483   9.298 -0.1116  0.0951  0.2380
  652ERGO    R3 9256  14.000  15.686   9.121  0.2331 -0.0499  0.1356
  652ERGO    R4 9257  13.962  15.448   8.954 -0.2873 -0.0729  0.2525
  652ERGO    R5 9258  14.129  15.588   8.945 -0.0051 -0.3936  0.1363
  652ERGO    C1 9259  13.998  15.618   8.588 -0.0661 -0.3069  0.1649
  652ERGO    C2 9260  13.980  15.672   8.298  0.0376  0.1193 -0.1335
  653ERGO   ROH 9261  16.162   3.217   9.590 -0.0460 -0.0082 -0.0705
  653ERGO    R1 9262  16.325   3.352   9.403 -0.0680  0.0453 -0.0530
  653ERGO    R2 9263  16.563   3.247   9.309  0.0682  0.1955  0.1005
  653ERGO    R3 9264  16.449   3.290   9.066  0.1375 -0.0040  0.0315
  653ERGO    R4 9265  16.734   3.250   9.008  0.1711  0.0963  0.1584
  653ERGO    R5 9266  16.611   3.419   8.946  0.1160 -0.0013  0.0120
  653ERGO    C1 9267  16.726   3.292   8.605  0.2963 -0.1488  0.1273
  653ERGO    C2 9268  16.928   3.329   8.331  0.2713  0.0606  0.3787
  654ERGO   ROH 9269  10.365   6.482   9.846 -0.1040 -0.0282 -0.0816
  654ERGO    R1 9270  10.392   6.613   9.597 -0.0488 -0.0649 -0.0947
  654ERGO    R2 9271  10.442   6.477   9.362 -0.1178 -0.1105 -0.0803
  654ERGO    R3 9272  10.220   6.609   9.276 -0.0581 -0.0151 -0.0914
  654ERGO    R4 9273  10.341   6.501   9.032 -0.0478 -0.0068 -0.0952
  654ERGO    R5 9274  10.286   6.708   9.068  0.0165  0.0072 -0.0597
  654ERGO    C1 9275  10.074   6.638   8.759  0.0489  0.1431 -0.1143
  654ERGO    C2 9276   9.918   6.559   8.412  0.0960  0.0569 -0.0460
  655ERGO   ROH 9277   6.405   5.589   9.877  0.0508  0.1575  0.0103
  655ERGO    R1 9278   6.405   5.484   9.614 -0.0333  0.1601  0.0101
  655ERGO    R2 9279   6.281   5.612   9.402  0.0401  0.2432  0.0232
  655ERGO    R3 9280   6.526   5.590   9.287  0.0183  0.0816  0.0021
  655ERGO    R4 9281   6.339   5.609   9.062  0.0046  0.2243  0.0162
  655ERGO    R5 9282   6.489   5.453   9.094 -0.0959  0.1156 -0.0046
  655ERGO    C1 9283   6.603   5.586   8.755 -0.0366  0.0615 -0.0077
  655ERGO    C2 9284   6.457   5.556   8.536  0.0107  0.0984  0.0391
  656ERGO   ROH 9285   8.647   0.649  10.156 -0.0919  0.1185 -0.0834
  656ERGO    R1 9286   8.805   0.740   9.940  0.0303 -0.0495 -0.0668
  656ERGO    R2 9287   8.940   0.568   9.772 -0.2207 -0.2038 -0.1149
  656ERGO    R3 9288   8.804   0.701   9.578 -0.0422  0.0413 -0.0771
  656ERGO    R4 9289   9.015   0.555   9.434 -0.2849 -0.2718 -0.1272
  656ERGO    R5 9290   8.974   0.769   9.422  0.0477 -0.1998 -0.0896
  656ERGO    C1 9291   8.930   0.673   9.056 -0.1547 -0.0813 -0.0987
  656ERGO    C2 9292   8.963   0.630   8.618 -0.2842  0.1996 -0.2593
  657ERGO   ROH 9293   6.206  11.850   9.550  0.0456  0.2271  0.2731
  657ERGO    R1 9294   6.091  11.771   9.304  0.1305  0.0453  0.2908
  657ERGO    R2 9295   5.984  11.952   9.125 -0.1073 -0.1142  0.2702
  657ERGO    R3 9296   6.155  11.833   8.951  0.0354  0.0734  0.2778
  657ERGO    R4 9297   5.983  11.999   8.782 -0.0845 -0.0455  0.2789
  657ERGO    R5 9298   6.021  11.786   8.758  0.1120 -0.0088  0.2425
  657ERGO    C1 9299   6.142  11.914   8.420  0.0627  0.1706  0.2910
  657ERGO    C2 9300   6.148  11.756   8.105  0.4713 -0.0173 -0.0546
  658ERGO   ROH 9301   5.957  16.893   9.694 -0.1149 -0.0046 -0.0561
  658ERGO    R1 9302   5.890  16.804   9.434 -0.1596 -0.1140 -0.0082
  658ERGO    R2 9303   5.866  16.976   9.219 -0.2863 -0.1907 -0.0605
  658ERGO    R3 9304   6.046  16.808   9.105 -0.2566 -0.1625 -0.0542
  658ERGO    R4 9305   5.928  16.954   8.880 -0.2445 -0.1654 -0.0543
  658ERGO    R5 9306   5.941  16.737   8.901 -0.2232 -0.1615 -0.0686
  658ERGO    C1 9307   6.134  16.782   8.575 -0.1923 -0.1241 -0.0447
  658ERGO    C2 9308   6.320  16.940   8.407 -0.3050 -0.1074 -0.0167
  659ERGO   ROH 9309   7.833   3.438  10.202 -0.3302  0.1190 -0.0944
  659ERGO    R1 9310   7.872   3.377   9.928 -0.1971  0.0895 -0.0691
  659ERGO    R2 9311   7.667   3.390   9.743 -0.1266 -0.0212 -0.1504
  659ERGO    R3 9312   7.840   3.553   9.611 -0.1395  0.0242 -0.1128
  659ERGO    R4 9313   7.692   3.417   9.399  0.1128 -0.2130 -0.1509
  659ERGO    R5 9314   7.909   3.427   9.420  0.0962 -0.0482  0.0117
  659ERGO    C1 9315   7.870   3.585   9.076  0.2402 -0.2820 -0.1159
  659ERGO    C2 9316   7.771   3.575   8.729  0.1054 -0.2442 -0.1750
  660ERGO   ROH 9317  15.855  15.960   9.913  0.0043 -0.2376 -0.0023
  660ERGO    R1 9318  15.941  16.050   9.660  0.0503 -0.1740  0.0357
  660ERGO    R2 9319  16.061  15.883   9.474  0.0434 -0.1371 -0.0014
  660ERGO    R3 9320  15.864  15.977   9.312  0.0798 -0.0535  0.0024
  660ERGO    R4 9321  16.054  15.846   9.131  0.0444 -0.1043 -0.0047
  660ERGO    R5 9322  15.979  16.050   9.115  0.1142 -0.0746  0.0129
  660ERGO    C1 9323  15.866  15.911   8.778  0.0791 -0.0066 -0.0031
  660ERGO    C2 9324  15.939  15.879   8.486  0.3876 -0.2282 -0.0343
  661ERGO   ROH 9325  14.474   5.915   7.906 -0.1937 -0.1599 -0.1300
  661ERGO    R1 9326  14.563   5.651   7.954 -0.1423 -0.1576 -0.2198
  661ERGO    R2 9327  14.614   5.471   7.750  0.2099  0.0306 -0.2941
  661ERGO    R3 9328  14.857   5.452   7.871  0.0612  0.0335  0.0159
  661ERGO    R4 9329  14.857   5.236   7.676  0.4243  0.2253 -0.2257
  661ERGO    R5 9330  14.898   5.218   7.888  0.1497  0.0273 -0.1749
  661ERGO    C1 9331  15.226   5.083   7.747  0.4096  0.3413  0.1052
  661ERGO    C2 9332  15.435   5.083   7.664  0.1034 -0.2397  0.1526
  662ERGO   ROH 9333  13.248  16.143   9.955 -0.0680  0.2265  0.0117
  662ERGO    R1 9334  13.335  16.094   9.690 -0.0733  0.0896  0.0350
  662ERGO    R2 9335  13.173  15.980   9.498 -0.1127  0.0911  0.0682
  662ERGO    R3 9336  13.240  16.202   9.356 -0.0046  0.0094 -0.0106
  662ERGO    R4 9337  13.155  16.007   9.154 -0.3318  0.0607  0.0751
  662ERGO    R5 9338  13.344  16.116   9.158 -0.2246 -0.1155 -0.0743
  662ERGO    C1 9339  13.208  16.230   8.820 -0.3579 -0.0337  0.0052
  662ERGO    C2 9340  13.053  16.316   8.488 -0.1841  0.1453 -0.1831
  663ERGO   ROH 9341   6.726  16.200   9.494 -0.4703 -0.0113  0.0032
  663ERGO    R1 9342   6.744  16.310   9.234 -0.2653 -0.0354  0.0049
  663ERGO    R2 9343   6.980  16.412   9.132 -0.1595 -0.1249  0.1451
  663ERGO    R3 9344   6.928  16.238   8.929 -0.0941 -0.1241  0.1286
  663ERGO    R4 9345   7.058  16.467   8.800  0.0152 -0.1656  0.1788
  663ERGO    R5 9346   6.866  16.379   8.745  0.0274 -0.1267  0.0890
  663ERGO    C1 9347   7.055  16.337   8.416  0.1783 -0.1887  0.1830
  663ERGO    C2 9348   7.063  16.326   8.034 -0.1245  0.0951  0.0211
  664ERGO   ROH 9349   4.312  12.779   9.673  0.2295 -0.1317 -0.1083
  664ERGO    R1 9350   4.176  12.787   9.425  0.0956 -0.0512 -0.0333
  664ERGO    R2 9351   4.063  13.018   9.324  0.1176 -0.0018  0.0645
  664ERGO    R3 9352   4.216  12.961   9.107 -0.0230 -0.0197 -0.0327
  664ERGO    R4 9353   3.978  13.091   8.997  0.0083  0.2005  0.1354
  664ERGO    R5 9354   4.059  12.898   8.938 -0.1538  0.1628  0.0133
  664ERGO    C1 9355   4.074  13.080   8.603 -0.1873  0.3015  0.0856
  664ERGO    C2 9356   4.024  13.005   8.346  0.0549 -0.1983  0.0649
  665ERGO   ROH 9357  14.341  12.280  10.045 -0.1756 -0.1894  0.0673
  665ERGO    R1 9358  14.227  12.242   9.789 -0.1824 -0.0095  0.0434
  665ERGO    R2 9359  14.143  12.453   9.630  0.0186  0.1134  0.1018
  665ERGO    R3 9360  14.306  12.338   9.446 -0.0631  0.0273  0.0805
  665ERGO    R4 9361  14.078  12.438   9.291 -0.1142 -0.0079  0.1303
  665ERGO    R5 9362  14.157  12.234   9.290 -0.1350 -0.0175  0.1763
  665ERGO    C1 9363  14.195  12.321   8.921 -0.2683 -0.1595  0.1268
  665ERGO    C2 9364  14.077  12.426   8.631 -0.0977 -0.3171  0.0002
  666ERGO   ROH 9365   1.050   6.328   9.941 -0.1345  0.0336 -0.0865
  666ERGO    R1 9366   1.201   6.281   9.706 -0.0766  0.1493 -0.0739
  666ERGO    R2 9367   1.149   6.071   9.534  0.2869 -0.0766  0.0757
  666ERGO    R3 9368   1.136   6.268   9.348 -0.1080 -0.2199 -0.0581
  666ERGO    R4 9369   1.177   6.023   9.193  0.6048 -0.2349  0.1215
  666ERGO    R5 9370   1.297   6.204   9.182  0.1580  0.0721  0.0783
  666ERGO    C1 9371   1.181   6.180   8.820  0.4193 -0.4618  0.0225
  666ERGO    C2 9372   1.197   6.130   8.413 -0.0436 -0.1514 -0.1718
  667ERGO   ROH 9373   0.074   8.602   9.786 -0.1876 -0.2398 -0.0985
  667ERGO    R1 9374   0.197   8.667   9.540  0.0235 -0.0371  0.0557
  667ERGO    R2 9375   0.190   8.499   9.321  0.2467  0.1220 -0.0765
  667ERGO    R3 9376   0.089   8.718   9.196  0.3235  0.1965 -0.0091
  667ERGO    R4 9377   0.223   8.565   8.983  0.0943  0.1029 -0.0957
  667ERGO    R5 9378   0.255   8.775   9.033  0.2710  0.0823 -0.1077
  667ERGO    C1 9379   0.147   8.810   8.669  0.0776  0.1619 -0.0437
  667ERGO    C2 9380   0.171   8.982   8.338  0.1869 -0.0005 -0.0128
  668ERGO   ROH 9381   8.120  14.127   9.942 -0.0141  0.2343 -0.0232
  668ERGO    R1 9382   8.222  14.219   9.694  0.2892  0.0119  0.0119
  668ERGO    R2 9383   8.401  14.072   9.544  0.0514 -0.3872  0.0881
  668ERGO    R3 9384   8.216  14.106   9.348  0.1897  0.0023  0.0191
  668ERGO    R4 9385   8.460  14.026   9.207  0.0649 -0.5183  0.1090
  668ERGO    R5 9386   8.339  14.203   9.167  0.4545 -0.2619  0.0594
  668ERGO    C1 9387   8.320  14.031   8.826  0.2025 -0.2289  0.0564
  668ERGO    C2 9388   8.391  14.021   8.501 -0.2852  0.1925  0.0134
  669ERGO   ROH 9389   7.109  16.949   9.870 -0.0042 -0.1136 -0.0278
  669ERGO    R1 9390   7.173  16.787   9.646 -0.1398 -0.0649 -0.1030
  669ERGO    R2 9391   7.031  16.799   9.409 -0.1009  0.2012 -0.1177
  669ERGO    R3 9392   7.278  16.842   9.302 -0.0408  0.0082 -0.0614
  669ERGO    R4 9393   7.099  16.823   9.071 -0.0507  0.4201 -0.0935
  669ERGO    R5 9394   7.281  16.708   9.104 -0.1853  0.1764 -0.1797
  669ERGO    C1 9395   7.369  16.877   8.774  0.0349  0.3663 -0.0265
  669ERGO    C2 9396   7.478  16.752   8.519  0.1916  0.2823 -0.2375
  670ERGO   ROH 9397  13.316  11.932   9.759  0.0718 -0.1094  0.1503
  670ERGO    R1 9398  13.319  11.802   9.508 -0.0739 -0.0502  0.1177
  670ERGO    R2 9399  13.202  11.911   9.282 -0.0408  0.0898  0.1700
  670ERGO    R3 9400  13.449  11.871   9.175 -0.0903 -0.0640  0.1078
  670ERGO    R4 9401  13.290  11.983   8.956 -0.0084  0.2944  0.2215
  670ERGO    R5 9402  13.406  11.798   8.951 -0.1924  0.1771  0.0443
  670ERGO    C1 9403  13.573  11.987   8.665 -0.0361  0.2691  0.1932
  670ERGO    C2 9404  13.611  12.136   8.393  0.1035  0.1130  0.0200
  671ERGO   ROH 9405  13.820  13.857   9.990  0.0067  0.2397 -0.0817
  671ERGO    R1 9406  13.836  13.941   9.720  0.1557  0.1561 -0.0986
  671ERGO    R2 9407  14.061  13.900   9.565  0.1464 -0.1218 -0.0363
  671ERGO    R3 9408  13.884  13.781   9.397  0.0585  0.0249 -0.0506
  671ERGO    R4 9409  14.093  13.890   9.221  0.2647 -0.2933 -0.0223
  671ERGO    R5 9410  13.879  13.925   9.206  0.3059 -0.0360 -0.1122
  671ERGO    C1 9411  13.946  13.772   8.863  0.2509 -0.2555 -0.0276
  671ERGO    C2 9412  13.932  13.798   8.531  0.0806 -0.2344  0.1194
  672ERGO   ROH 9413   7.488  17.232   9.957 -0.0326  0.1476 -0.0661
  672ERGO    R1 9414   7.508  17.146   9.688 -0.0747  0.1115 -0.0586
  672ERGO    R2 9415   7.326  17.223   9.493 -0.0765  0.1309 -0.0552
  672ERGO    R3 9416   7.551  17.304   9.363 -0.0671  0.0664 -0.0781
  672ERGO    R4 9417   7.349  17.277   9.153 -0.0929  0.1485 -0.0530
  672ERGO    R5 9418   7.546  17.185   9.155 -0.1270  0.0862 -0.0840
  672ERGO    C1 9419   7.572  17.385   8.832 -0.0936  0.0981 -0.0731
  672ERGO    C2 9420   7.695  17.384   8.553  0.1554 -0.0424 -0.0974
  673ERGO   ROH 9421  18.087   5.461   9.738 -0.1247  0.2240  0.0454
  673ERGO    R1 9422  17.977   5.358   9.498  0.0483 -0.0371  0.0753
  673ERGO    R2 9423  17.851   5.517   9.311 -0.3245 -0.3148  0.0830
  673ERGO    R3 9424  18.030   5.403   9.141 -0.1073  0.0398  0.0599
  673ERGO    R4 9425  17.895   5.609   8.981 -0.4730 -0.1433  0.1082
  673ERGO    R5 9426  17.916   5.397   8.931 -0.0966 -0.1057  0.0529
  673ERGO    C1 9427  18.088   5.554   8.629 -0.3555  0.2894  0.1013
  673ERGO    C2 9428  18.256   5.432   8.288  0.3494  0.1541 -0.0597
  674ERGO   ROH 9429   4.168   6.380   9.649 -0.2953 -0.1285 -0.1156
  674ERGO    R1 9430   4.082   6.380   9.379 -0.1562  0.0273 -0.1615
  674ERGO    R2 9431   4.232   6.493   9.176  0.0710 -0.0780 -0.0577
  674ERGO    R3 9432   4.205   6.247   9.064 -0.1299 -0.0254 -0.1289
  674ERGO    R4 9433   4.281   6.422   8.841  0.1799 -0.0528 -0.0473
  674ERGO    R5 9434   4.108   6.289   8.849  0.0329  0.1283 -0.1735
  674ERGO    C1 9435   4.285   6.149   8.541  0.0547  0.0113 -0.1081
  674ERGO    C2 9436   4.354   6.152   8.206 -0.1860  0.0643 -0.0474
  675PSPI    C1 9437   5.749  12.463   5.860  0.0043 -0.0030  0.0666
  675PSPI    C2 9438   5.861  12.609   5.505  0.1210 -0.2614 -0.0052
  675PSPI    C3 9439   5.980  12.244   5.618 -0.1331 -0.2873  0.1876
  675PSPI   PO4 9440   5.471  12.494   5.832  0.0309 -0.3173 -0.1684
  675PSPI   GL1 9441   5.132  12.562   6.104 -0.1500 -0.1008 -0.0213
  675PSPI   GL2 9442   5.328  12.876   6.194  0.2752 -0.1508  0.1328
  675PSPI   C1A 9443   5.080  12.644   6.583  0.1681  0.1361 -0.4479
  675PSPI   C2A 9444   5.033  12.662   7.053  0.2487  0.0061  0.0610
  675PSPI   C3A 9445   4.867  12.734   7.426  0.1435  0.0024 -0.2016
  675PSPI   C4A 9446   4.748  12.876   7.788  0.0253  0.2348 -0.2790
  675PSPI   C1B 9447   5.270  13.108   6.448 -0.0417 -0.2351 -0.0440
  675PSPI   C2B 9448   5.220  13.097   6.847  0.3176 -0.3304 -0.0192
  675PSPI   C3B 9449   5.392  13.026   7.189 -0.0869 -0.2136 -0.0800
  675PSPI   C4B 9450   5.181  13.114   7.591 -0.0020  0.2054  0.1459
  676PSPI    C1 9451  17.561   1.284   5.360  0.0722 -0.0114  0.1130
  676PSPI    C2 9452  17.260   1.121   5.153  0.0461 -0.0786  0.2025
  676PSPI    C3 9453  17.633   1.106   5.009  0.0212 -0.0806  0.1373
  676PSPI   PO4 9454  17.494   1.325   5.645 -0.1889  0.0300 -0.0202
  676PSPI   GL1 9455  17.532   1.299   6.019  0.2203 -0.2469  0.1079
  676PSPI   GL2 9456  17.266   1.586   5.985 -0.2690  0.2417  0.2431
  676PSPI   C1A 9457  17.576   1.460   6.396  0.0502 -0.0425 -0.0644
  676PSPI   C2A 9458  17.551   1.515   6.790  0.0050  0.2096  0.1011
  676PSPI   C3A 9459  17.581   1.534   7.294 -0.1775 -0.1615 -0.0177
  676PSPI   C4A 9460  17.353   1.485   7.713 -0.0081  0.2524 -0.0594
  676PSPI   C1B 9461  17.088   1.876   6.285  0.3445  0.1336 -0.0102
  676PSPI   C2B 9462  17.205   1.874   6.735 -0.0567 -0.1677  0.0431
  676PSPI   C3B 9463  17.270   1.856   7.108  0.1315 -0.1556 -0.2135
  676PSPI   C4B 9464  17.318   1.970   7.658 -0.1362  0.0885  0.0522
  677PSPI    C1 9465  13.262  17.309   5.863  0.3150 -0.0037 -0.0586
  677PSPI    C2 9466  13.242  17.489   5.507  0.0061 -0.1922 -0.1401
  677PSPI    C3 9467  12.970  17.571   5.789  0.1284 -0.1977 -0.0194
  677PSPI   PO4 9468  13.557  17.417   5.886  0.1003  0.2429 -0.2636
  677PSPI   GL1 9469  13.851  17.709   6.041 -0.2017  0.1632 -0.0480
  677PSPI   GL2 9470  14.130  17.656   5.913  0.1361  0.0481  0.0546
  677PSPI   C1A 9471  13.949  17.731   6.473 -0.0999 -0.0606 -0.0020
  677PSPI   C2A 9472  14.071  17.835   6.833  0.0007  0.0954  0.0712
  677PSPI   C3A 9473  14.062  17.837   7.238  0.0944 -0.1113  0.1469
  677PSPI   C4A 9474  14.025  17.813   7.582 -0.2428  0.1718  0.2418
  677PSPI   C1B 9475  14.340  17.849   6.246 -0.0117 -0.2505 -0.0985
  677PSPI   C2B 9476  14.543  18.024   6.572 -0.0789  0.1236  0.2553
  677PSPI   C3B 9477  14.582  17.979   6.889 -0.0465 -0.1088 -0.1740
  677PSPI   C4B 9478  14.648  18.286   7.212  0.0236 -0.0703 -0.2405
  678PSPI    C1 9479   6.386  15.003   5.174 -0.1840  0.1457 -0.2492
  678PSPI    C2 9480   6.439  14.697   4.922  0.1945  0.0025 -0.0058
  678PSPI    C3 9481   6.624  15.045   4.856  0.3040 -0.0391  0.0783
  678PSPI   PO4 9482   6.279  14.798   5.416 -0.2468 -0.1671 -0.0997
  678PSPI   GL1 9483   6.415  14.573   5.785 -0.1329 -0.2705  0.4198
  678PSPI   GL2 9484   6.261  14.832   5.974  0.1714  0.0117  0.0580
  678PSPI   C1A 9485   6.500  14.514   6.262  0.0857  0.0764 -0.4870
  678PSPI   C2A 9486   6.716  14.552   6.646 -0.1011 -0.0447 -0.1919
  678PSPI   C3A 9487   6.943  14.282   6.851  0.1192  0.3123 -0.2900
  678PSPI   C4A 9488   7.301  14.002   6.962  0.1419 -0.1951  0.0872
  678PSPI   C1B 9489   6.112  14.830   6.437 -0.0229 -0.0443 -0.0641
  678PSPI   C2B 9490   6.244  14.775   6.828  0.0382  0.3278 -0.0069
  678PSPI   C3B 9491   6.372  14.605   7.138 -0.0528  0.0987  0.1296
  678PSPI   C4B 9492   6.710  14.385   7.331 -0.3315  0.1655 -0.3411
  679PSPI    C1 9493   7.584   2.961   5.845 -0.0435  0.0921  0.0288
  679PSPI    C2 9494   7.616   2.683   5.559  0.0648  0.1593 -0.0253
  679PSPI    C3 9495   7.926   2.923   5.640 -0.0349  0.2786  0.0063
  679PSPI   PO4 9496   7.466   2.837   6.088  0.4104  0.2399 -0.2340
  679PSPI   GL1 9497   7.105   2.669   6.334 -0.0328  0.2915 -0.2000
  679PSPI   GL2 9498   6.811   2.717   6.509 -0.3738  0.0969  0.1619
  679PSPI   C1A 9499   7.234   2.605   6.682  0.0841  0.2016  0.0880
  679PSPI   C2A 9500   7.154   2.495   7.098  0.0567 -0.0804  0.3743
  679PSPI   C3A 9501   7.230   2.280   7.514 -0.2854  0.2486  0.1614
  679PSPI   C4A 9502   7.249   2.058   7.865  0.0005  0.0633  0.1212
  679PSPI   C1B 9503   6.958   2.895   6.948  0.2314  0.1473  0.2435
  679PSPI   C2B 9504   6.924   2.842   7.403 -0.2271 -0.1110  0.1988
  679PSPI   C3B 9505   6.918   2.936   7.758 -0.0981  0.0454 -0.0328
  679PSPI   C4B 9506   6.891   3.032   8.188 -0.0699 -0.0574 -0.0561
  680PSPI    C1 9507   8.910  15.620   5.878  0.0958  0.1768  0.0085
  680PSPI    C2 9508   9.269  15.511   6.017  0.1254  0.3246  0.0491
  680PSPI    C3 9509   9.208  15.541   5.623  0.1923  0.4146  0.0453
  680PSPI   PO4 9510   8.865  15.863   5.977  0.2526 -0.0316 -0.1045
  680PSPI   GL1 9511   8.763  15.838   6.418 -0.1247 -0.1787  0.0340
  680PSPI   GL2 9512   8.466  15.659   6.319 -0.0194 -0.1809 -0.0773
  680PSPI   C1A 9513   8.740  16.004   6.806  0.0442  0.1394 -0.1924
  680PSPI   C2A 9514   8.851  15.899   7.148 -0.1710 -0.1996 -0.1670
  680PSPI   C3A 9515   8.702  15.789   7.521 -0.0343  0.0410 -0.0712
  680PSPI   C4A 9516   8.486  15.502   7.802  0.1115  0.2142  0.0727
  680PSPI   C1B 9517   8.278  15.880   6.672 -0.0187  0.1785  0.0188
  680PSPI   C2B 9518   8.089  15.882   7.089 -0.1064  0.0860 -0.0326
  680PSPI   C3B 9519   7.957  15.772   7.401 -0.3660  0.2848 -0.0476
  680PSPI   C4B 9520   8.153  15.904   7.759 -0.2576  0.0221 -0.2645
  681PSPI    C1 9521   2.621   1.173   5.860 -0.2997  0.0352  0.1541
  681PSPI    C2 9522   2.377   1.070   5.560 -0.0097  0.1144 -0.1146
  681PSPI    C3 9523   2.756   1.171   5.483  0.1344 -0.0837  0.3046
  681PSPI   PO4 9524   2.446   1.216   6.007 -0.0507 -0.1968 -0.1127
  681PSPI   GL1 9525   2.297   1.239   6.385  0.1661  0.0566 -0.1196
  681PSPI   GL2 9526   2.274   0.954   6.415  0.1174 -0.1547 -0.0725
  681PSPI   C1A 9527   2.438   1.402   6.799 -0.0531 -0.1485  0.2564
  681PSPI   C2A 9528   2.570   1.263   7.184  0.0807  0.2022  0.0580
  681PSPI   C3A 9529   2.829   1.482   7.495  0.2996 -0.1155  0.0666
  681PSPI   C4A 9530   2.889   1.323   7.977  0.1205  0.1733  0.1115
  681PSPI   C1B 9531   2.133   0.942   6.820 -0.0796  0.1100 -0.0492
  681PSPI   C2B 9532   1.794   0.843   7.044  0.3714  0.2222  0.1051
  681PSPI   C3B 9533   1.517   0.693   7.409 -0.0281 -0.1259 -0.0384
  681PSPI   C4B 9534   1.424   0.485   7.778  0.1332  0.1461 -0.1081
  682PSPI    C1 9535  15.342   8.270   5.978  0.0029  0.1243  0.0670
  682PSPI    C2 9536  15.626   8.102   5.751 -0.2224 -0.0975 -0.0554
  682PSPI    C3 9537  15.477   8.461   5.654 -0.2772 -0.1662 -0.2274
  682PSPI   PO4 9538  15.448   8.270   6.209 -0.2247  0.0134 -0.0507
  682PSPI   GL1 9539  15.330   8.108   6.604 -0.1750 -0.2035 -0.0612
  682PSPI   GL2 9540  15.332   8.455   6.697  0.1805 -0.2462  0.0275
  682PSPI   C1A 9541  15.302   8.089   7.076  0.0820  0.0550  0.0428
  682PSPI   C2A 9542  15.327   8.068   7.532  0.1011 -0.0207 -0.0874
  682PSPI   C3A 9543  15.210   7.885   7.831  0.1288  0.0158 -0.2578
  682PSPI   C4A 9544  15.013   7.464   8.181 -0.1641  0.0308 -0.1633
  682PSPI   C1B 9545  15.264   8.619   7.121 -0.2902  0.1667  0.1985
  682PSPI   C2B 9546  15.266   8.771   7.549 -0.0019 -0.0796 -0.0305
  682PSPI   C3B 9547  15.461   8.667   7.940 -0.0653 -0.0456 -0.2426
  682PSPI   C4B 9548  15.230   8.573   8.273  0.2579 -0.1099  0.1957
  683PSPI    C1 9549   5.742  14.209   5.465  0.0814  0.2751 -0.2832
  683PSPI    C2 9550   6.128  14.265   5.557  0.1335 -0.1297 -0.2334
  683PSPI    C3 9551   5.984  13.894   5.515 -0.2141  0.0205 -0.4198
  683PSPI   PO4 9552   5.618  14.314   5.678  0.3421  0.4125 -0.1881
  683PSPI   GL1 9553   5.706  14.462   6.046  0.0310 -0.3599 -0.0864
  683PSPI   GL2 9554   6.009  14.360   6.033 -0.2136 -0.2129  0.3565
  683PSPI   C1A 9555   5.473  14.673   6.304  0.0961  0.3510  0.1718
  683PSPI   C2A 9556   5.559  14.698   6.728  0.0144  0.2159  0.1323
  683PSPI   C3A 9557   5.805  14.843   7.061 -0.0697  0.0178  0.0433
  683PSPI   C4A 9558   5.957  14.857   7.433 -0.1426  0.0149  0.3058
  683PSPI   C1B 9559   6.074  14.314   6.442 -0.1148  0.0125 -0.1317
  683PSPI   C2B 9560   5.951  14.377   6.869 -0.0998 -0.2474 -0.3006
  683PSPI   C3B 9561   5.818  14.234   7.232 -0.4005  0.0992 -0.0234
  683PSPI   C4B 9562   5.580  13.982   7.369 -0.2363  0.0676  0.2068
  684PSPI    C1 9563  10.381   6.679   5.493  0.1628 -0.0263  0.0746
  684PSPI    C2 9564  10.502   6.300   5.448  0.2405  0.0126 -0.0491
  684PSPI    C3 9565  10.529   6.556   5.142  0.1986  0.1213  0.0376
  684PSPI   PO4 9566  10.516   6.804   5.734 -0.2020 -0.1081  0.2045
  684PSPI   GL1 9567  10.679   6.701   6.119  0.0182  0.0495 -0.1762
  684PSPI   GL2 9568  10.949   6.672   6.343  0.1637 -0.2250 -0.0901
  684PSPI   C1A 9569  10.502   6.466   6.519 -0.1806  0.0697  0.1712
  684PSPI   C2A 9570  10.407   6.373   6.839 -0.0904 -0.1905 -0.0549
  684PSPI   C3A 9571  10.554   6.371   7.256 -0.0605 -0.3070  0.0267
  684PSPI   C4A 9572  10.899   6.401   7.635  0.1656  0.0130  0.0319
  684PSPI   C1B 9573  10.934   6.859   6.713  0.2186  0.4653  0.2118
  684PSPI   C2B 9574  10.722   6.872   7.068  0.1536  0.1630 -0.1141
  684PSPI   C3B 9575  10.555   6.762   7.496 -0.1300 -0.0040  0.1581
  684PSPI   C4B 9576  10.753   6.746   7.962 -0.0021 -0.0676  0.0773
  685PSPI    C1 9577   7.839   7.719   5.981  0.3157 -0.0034  0.0367
  685PSPI    C2 9578   7.939   7.986   5.701  0.1221  0.0080 -0.0229
  685PSPI    C3 9579   7.886   7.603   5.601 -0.1228  0.0437 -0.0373
  685PSPI   PO4 9580   7.925   7.828   6.181 -0.0037  0.0925  0.0420
  685PSPI   GL1 9581   7.855   7.704   6.575 -0.1606 -0.0453  0.1656
  685PSPI   GL2 9582   7.548   7.842   6.724 -0.1734 -0.1548 -0.2085
  685PSPI   C1A 9583   8.066   7.612   6.932 -0.0576 -0.1424 -0.0746
  685PSPI   C2A 9584   8.074   7.677   7.352 -0.1087 -0.1652 -0.0411
  685PSPI   C3A 9585   7.968   7.548   7.731 -0.0867 -0.0631  0.0029
  685PSPI   C4A 9586   8.098   7.351   8.130  0.0473 -0.0165  0.1936
  685PSPI   C1B 9587   7.616   7.798   7.103 -0.3276 -0.1554  0.0554
  685PSPI   C2B 9588   7.487   8.072   7.470 -0.1674  0.3124 -0.1258
  685PSPI   C3B 9589   7.856   8.037   7.696 -0.1360  0.1210  0.1446
  685PSPI   C4B 9590   8.140   7.890   8.001 -0.1424  0.1489  0.0251
  686PSPI    C1 9591   1.032   4.583   5.630  0.1276  0.1221 -0.0230
  686PSPI    C2 9592   0.823   4.877   5.456  0.0793  0.1555  0.0909
  686PSPI    C3 9593   0.833   4.513   5.290  0.0421  0.1900  0.0126
  686PSPI   PO4 9594   0.988   4.635   5.881  0.2653  0.1206 -0.0893
  686PSPI   GL1 9595   0.613   4.632   6.073 -0.2159  0.0049 -0.1297
  686PSPI   GL2 9596   0.491   4.854   6.208 -0.1899 -0.3058 -0.0793
  686PSPI   C1A 9597   0.494   4.529   6.579  0.1395  0.0798  0.1694
  686PSPI   C2A 9598   0.671   4.702   6.994 -0.0204 -0.0116  0.0994
  686PSPI   C3A 9599   0.806   4.611   7.447  0.1506  0.1010  0.3356
  686PSPI   C4A 9600   0.827   4.610   7.842  0.3475  0.0209  0.1147
  686PSPI   C1B 9601   0.767   4.966   6.459  0.2667  0.0750  0.0118
  686PSPI   C2B 9602   0.946   5.072   6.833 -0.0769  0.0788 -0.2725
  686PSPI   C3B 9603   1.025   5.112   7.365  0.0027 -0.0432 -0.0217
  686PSPI   C4B 9604   1.100   5.037   7.780 -0.1994  0.0284  0.0653
  687PSPI    C1 9605   4.039  17.129   5.751 -0.0762  0.1624  0.1543
  687PSPI    C2 9606   3.998  16.826   5.493 -0.1879  0.1011  0.2432
  687PSPI    C3 9607   3.866  17.191   5.396  0.2583  0.2044 -0.0063
  687PSPI   PO4 9608   3.846  17.048   5.964 -0.0422 -0.1429 -0.3408
  687PSPI   GL1 9609   3.447  17.024   6.182 -0.1414  0.1113  0.1684
  687PSPI   GL2 9610   3.317  16.758   6.219 -0.0695 -0.0150  0.1500
  687PSPI   C1A 9611   3.490  17.270   6.541 -0.1028 -0.3691 -0.0256
  687PSPI   C2A 9612   3.563  17.422   6.959 -0.1308  0.3821 -0.2919
  687PSPI   C3A 9613   3.743  17.609   7.324 -0.0567  0.1128 -0.2368
  687PSPI   C4A 9614   3.626  17.806   7.734  0.1099 -0.1625 -0.2616
  687PSPI   C1B 9615   3.385  16.715   6.667 -0.1642 -0.4313 -0.1803
  687PSPI   C2B 9616   3.560  16.919   6.945 -0.0527 -0.0007  0.0811
  687PSPI   C3B 9617   3.574  17.050   7.357  0.1661  0.0008  0.0201
  687PSPI   C4B 9618   3.810  17.293   7.672 -0.0326  0.1601  0.2767
  688PSPI    C1 9619  11.378   0.332   6.229  0.0703 -0.1783  0.1264
  688PSPI    C2 9620  11.259  -0.025   6.093 -0.0778 -0.0438 -0.1035
  688PSPI    C3 9621  11.157   0.308   5.897  0.0115  0.1304  0.1405
  688PSPI   PO4 9622  11.310   0.302   6.489 -0.2310 -0.0069  0.0351
  688PSPI   GL1 9623  11.068   0.432   6.786 -0.0883  0.3545  0.0111
  688PSPI   GL2 9624  10.954   0.636   6.865 -0.1400 -0.3317  0.1360
  688PSPI   C1A 9625  11.052   0.474   7.322 -0.0362  0.3893 -0.0191
  688PSPI   C2A 9626  11.024   0.330   7.694  0.1057 -0.1797  0.1926
  688PSPI   C3A 9627  11.169   0.276   8.100 -0.2850  0.4254 -0.0622
  688PSPI   C4A 9628  11.216  -0.086   8.366  0.1097  0.0803  0.0679
  688PSPI   C1B 9629  10.634   0.778   7.010  0.1624  0.0266  0.0124
  688PSPI   C2B 9630  10.612   0.682   7.436 -0.1373  0.2147 -0.2244
  688PSPI   C3B 9631  10.901   0.802   7.732  0.0979  0.2288 -0.0095
  688PSPI   C4B 9632  10.783   1.146   8.094 -0.1213 -0.1150  0.0271
  689PSPI    C1 9633   8.773   2.914   6.280 -0.1530  0.0963  0.0469
  689PSPI    C2 9634   8.922   2.993   5.918  0.0915  0.1763  0.1630
  689PSPI    C3 9635   8.929   2.619   6.060  0.0961  0.1636  0.1299
  689PSPI   PO4 9636   8.483   2.942   6.310  0.0571  0.0656  0.2404
  689PSPI   GL1 9637   8.231   3.031   6.711  0.0733  0.1614 -0.0707
  689PSPI   GL2 9638   8.146   2.735   6.658  0.0037 -0.0241  0.1072
  689PSPI   C1A 9639   8.437   3.305   6.991 -0.1254  0.3450 -0.0980
  689PSPI   C2A 9640   8.423   3.202   7.415 -0.1899  0.0050  0.1745
  689PSPI   C3A 9641   8.751   3.047   7.775 -0.0376 -0.1692  0.0722
  689PSPI   C4A 9642   8.800   2.922   8.176 -0.1349 -0.1215 -0.0306
  689PSPI   C1B 9643   8.045   2.756   7.116  0.0827  0.0975 -0.2029
  689PSPI   C2B 9644   7.933   2.728   7.601 -0.1466  0.1149 -0.0980
  689PSPI   C3B 9645   7.825   2.672   8.105  0.0532 -0.2292  0.0389
  689PSPI   C4B 9646   7.590   2.538   8.389  0.3461  0.1608 -0.1974
  690PSPI    C1 9647  17.498  12.293   5.657  0.2200  0.0556  0.0664
  690PSPI    C2 9648  17.499  12.489   5.308  0.0024  0.0402  0.0562
  690PSPI    C3 9649  17.626  12.110   5.325  0.2886  0.1333  0.0494
  690PSPI   PO4 9650  17.338  12.509   5.835  0.0735  0.0228  0.1109
  690PSPI   GL1 9651  17.033  12.407   6.175 -0.1117  0.0108  0.1102
  690PSPI   GL2 9652  16.991  12.091   6.321 -0.2548 -0.1171  0.1150
  690PSPI   C1A 9653  16.950  12.782   6.432 -0.0697 -0.1379  0.0383
  690PSPI   C2A 9654  16.995  12.824   6.884 -0.0891  0.0704 -0.1783
  690PSPI   C3A 9655  16.884  13.081   7.310 -0.2113  0.0179 -0.0862
  690PSPI   C4A 9656  16.874  12.996   7.802  0.2627 -0.0674 -0.1666
  690PSPI   C1B 9657  16.917  12.342   6.700  0.1274  0.0288 -0.4996
  690PSPI   C2B 9658  16.954  12.359   7.169 -0.1008  0.1013  0.0649
  690PSPI   C3B 9659  16.743  12.531   7.598 -0.1205 -0.1702  0.3320
  690PSPI   C4B 9660  16.802  12.490   8.069 -0.2120 -0.0324  0.0069
  691PSPI    C1 9661   9.199   8.599   5.607 -0.1438 -0.0764 -0.0650
  691PSPI    C2 9662   8.958   8.386   5.371 -0.1321  0.0777 -0.2176
  691PSPI    C3 9663   9.285   8.559   5.219 -0.1223  0.1742 -0.0876
  691PSPI   PO4 9664   9.129   8.509   5.827 -0.1576  0.0899 -0.0494
  691PSPI   GL1 9665   9.243   8.479   6.324 -0.0129  0.3416  0.1187
  691PSPI   GL2 9666   9.293   8.792   6.422  0.0566 -0.1087 -0.1091
  691PSPI   C1A 9667   9.301   8.402   6.641 -0.0360  0.0804  0.1572
  691PSPI   C2A 9668   9.400   8.487   7.098 -0.1040 -0.1557 -0.0164
  691PSPI   C3A 9669   9.483   8.476   7.454 -0.3647 -0.4621 -0.1378
  691PSPI   C4A 9670   9.528   8.389   7.916  0.1761  0.1735 -0.1771
  691PSPI   C1B 9671   9.485   8.813   6.777  0.0933 -0.1714  0.2234
  691PSPI   C2B 9672   9.502   8.929   7.298  0.0062 -0.5120 -0.0295
  691PSPI   C3B 9673   9.554   8.983   7.696  0.1235  0.1573  0.0333
  691PSPI   C4B 9674   9.530   8.907   8.097  0.0990 -0.1819 -0.2376
  692PSPI    C1 9675   1.394   4.139   5.541 -0.0355  0.0367  0.1162
  692PSPI    C2 9676   1.483   4.469   5.748  0.0147  0.0553  0.0653
  692PSPI    C3 9677   1.687   4.380   5.416  0.0136 -0.0366  0.0889
  692PSPI   PO4 9678   1.132   4.086   5.661 -0.0749  0.0433  0.0209
  692PSPI   GL1 9679   1.176   4.214   6.100 -0.0289  0.0966 -0.0539
  692PSPI   GL2 9680   0.915   4.245   6.228 -0.0515  0.1512 -0.0144
  692PSPI   C1A 9681   1.449   4.419   6.327  0.0138 -0.0946  0.0456
  692PSPI   C2A 9682   1.638   4.544   6.645  0.1748  0.1236  0.0012
  692PSPI   C3A 9683   1.902   4.795   6.866  0.1955  0.2312  0.0282
  692PSPI   C4A 9684   2.196   4.978   7.154 -0.1548 -0.4769 -0.0009
  692PSPI   C1B 9685   1.045   4.562   6.540 -0.2465  0.0390  0.1794
  692PSPI   C2B 9686   1.180   4.707   7.044 -0.0595  0.1482 -0.0049
  692PSPI   C3B 9687   1.365   4.658   7.458 -0.2116 -0.0840  0.0162
  692PSPI   C4B 9688   1.588   4.818   7.854  0.2256  0.3007  0.2527
  693PSPI    C1 9689  12.898   0.066   6.087 -0.3495  0.0851  0.1397
  693PSPI    C2 9690  12.629   0.345   6.185 -0.0636  0.4761 -0.1510
  693PSPI    C3 9691  12.652   0.214   5.808 -0.0346  0.2327 -0.0663
  693PSPI   PO4 9692  12.914  -0.118   6.233  0.0569  0.3358  0.1818
  693PSPI   GL1 9693  12.858  -0.323   6.678 -0.2878 -0.1437  0.1589
  693PSPI   GL2 9694  12.535  -0.413   6.733  0.0846  0.0317  0.0068
  693PSPI   C1A 9695  13.020  -0.370   7.045 -0.4167  0.3292 -0.1238
  693PSPI   C2A 9696  13.072  -0.432   7.423  0.3646  0.1069  0.2320
  693PSPI   C3A 9697  12.985  -0.373   7.880 -0.1112 -0.0676 -0.0474
  693PSPI   C4A 9698  12.722  -0.110   8.236 -0.1771 -0.1201  0.1955
  693PSPI   C1B 9699  12.554  -0.608   7.038  0.2297  0.1602 -0.0295
  693PSPI   C2B 9700  12.907  -0.885   7.179  0.0750 -0.1734 -0.1114
  693PSPI   C3B 9701  12.974  -1.301   7.188 -0.2954  0.0578  0.3057
  693PSPI   C4B 9702  13.113  -1.394   7.562  0.0765  0.2531 -0.0430
  694PSPI    C1 9703   1.577   9.447   5.792  0.0604 -0.1220  0.0104
  694PSPI    C2 9704   1.793   9.258   5.514 -0.0324  0.0096 -0.1534
  694PSPI    C3 9705   1.397   9.293   5.470 -0.0292  0.1516 -0.0735
  694PSPI   PO4 9706   1.674   9.372   6.017  0.0360 -0.0019  0.0769
  694PSPI   GL1 9707   1.712   9.433   6.394  0.0718  0.0938  0.1844
  694PSPI   GL2 9708   1.363   9.476   6.450 -0.0298 -0.0164  0.1217
  694PSPI   C1A 9709   1.979   9.362   6.826  0.2740 -0.0020  0.2711
  694PSPI   C2A 9710   1.978   9.215   7.291 -0.1420  0.0405  0.0994
  694PSPI   C3A 9711   1.883   9.267   7.680 -0.0631 -0.2012  0.1613
  694PSPI   C4A 9712   1.864   9.505   8.016  0.0374  0.3036 -0.0607
  694PSPI   C1B 9713   1.425   9.530   6.824 -0.3060  0.1800  0.0005
  694PSPI   C2B 9714   1.502   9.479   7.314  0.2699 -0.0654 -0.1061
  694PSPI   C3B 9715   1.609   9.736   7.672  0.0201  0.0213 -0.1433
  694PSPI   C4B 9716   1.509   9.887   8.053  0.2201  0.4309 -0.0001
  695POPI    C1 9717   0.352   1.174   5.484 -0.0649  0.1134 -0.0374
  695POPI    C2 9718   0.369   0.797   5.351 -0.2997  0.0242  0.1772
  695POPI    C3 9719   0.437   1.101   5.100 -0.0933 -0.1597  0.0062
  695POPI   PO4 9720   0.526   1.146   5.721  0.1323 -0.2767 -0.0529
  695POPI   GL1 9721   0.494   0.993   6.171 -0.0957 -0.0230 -0.1122
  695POPI   GL2 9722   0.885   1.101   6.194  0.1712  0.1470 -0.1573
  695POPI   C1A 9723   0.437   1.143   6.666  0.2944 -0.3125 -0.0494
  695POPI   D2A 9724   0.318   1.143   7.006 -0.1571  0.0917 -0.2030
  695POPI   C3A 9725   0.618   0.946   7.210 -0.1784 -0.0750  0.0588
  695POPI   C4A 9726   0.574   1.018   7.671 -0.0343  0.0231 -0.3052
  695POPI   C1B 9727   0.893   1.351   6.506 -0.2020  0.2296 -0.2584
  695POPI   C2B 9728   0.930   1.375   6.937  0.1237  0.0762 -0.0806
  695POPI   C3B 9729   0.927   1.289   7.386  0.0586  0.2815 -0.1415
  695POPI   C4B 9730   1.175   1.001   7.621  0.1174 -0.0620 -0.1914
  696POPI    C1 9731  14.596   2.400   5.979  0.0512 -0.1658  0.2216
  696POPI    C2 9732  14.419   2.123   5.750 -0.0877  0.0095  0.1146
  696POPI    C3 9733  14.579   2.449   5.582 -0.2192  0.1553  0.2690
  696POPI   PO4 9734  14.390   2.511   6.109 -0.3064  0.0441  0.2778
  696POPI   GL1 9735  14.134   2.181   6.375  0.1793  0.0607 -0.0431
  696POPI   GL2 9736  13.752   2.235   6.360 -0.0934  0.0980 -0.2631
  696POPI   C1A 9737  14.100   1.945   6.711 -0.2328 -0.1885  0.1515
  696POPI   D2A 9738  14.423   1.953   7.026  0.0543  0.0263  0.0687
  696POPI   C3A 9739  14.576   1.756   7.398 -0.2125 -0.0786  0.0634
  696POPI   C4A 9740  14.455   1.440   7.706 -0.1245 -0.1496  0.4293
  696POPI   C1B 9741  13.557   2.046   6.647  0.0781 -0.1084 -0.0514
  696POPI   C2B 9742  13.545   1.841   6.970  0.2016  0.1047 -0.1939
  696POPI   C3B 9743  13.393   1.983   7.411 -0.1589  0.0131 -0.0319
  696POPI   C4B 9744  13.103   2.270   7.692  0.0925  0.0814  0.0045
  697POPI    C1 9745   6.091   5.777   5.959  0.2192  0.3260 -0.0811
  697POPI    C2 9746   6.464   5.633   5.940  0.1909  0.2380  0.0195
  697POPI    C3 9747   6.353   5.934   5.701  0.2656  0.1272 -0.1571
  697POPI   PO4 9748   6.087   5.765   6.255  0.2050  0.1444 -0.2155
  697POPI   GL1 9749   6.066   5.716   6.691 -0.0086 -0.1630 -0.1706
  697POPI   GL2 9750   5.810   5.861   6.658 -0.0246 -0.3446 -0.3532
  697POPI   C1A 9751   6.045   5.749   7.106  0.0129 -0.0420  0.1638
  697POPI   D2A 9752   5.842   5.744   7.479 -0.1266 -0.1132 -0.1476
  697POPI   C3A 9753   6.009   5.784   7.883 -0.0890 -0.0881  0.1143
  697POPI   C4A 9754   6.239   5.846   8.247 -0.0440  0.0589 -0.0374
  697POPI   C1B 9755   5.645   6.069   7.006  0.0121  0.1090 -0.3710
  697POPI   C2B 9756   5.502   6.100   7.403  0.2970 -0.1157  0.2926
  697POPI   C3B 9757   5.567   5.974   7.821  0.0205  0.0975  0.6424
  697POPI   C4B 9758   5.289   6.135   8.065  0.2273  0.0241 -0.0930
  698POPI    C1 9759   3.896   7.224   5.135 -0.2368  0.0129 -0.2567
  698POPI    C2 9760   4.057   6.868   5.049 -0.1323  0.0027 -0.0271
  698POPI    C3 9761   4.128   7.183   4.812  0.2203 -0.0039  0.0647
  698POPI   PO4 9762   3.921   7.298   5.443 -0.2193 -0.1712 -0.0617
  698POPI   GL1 9763   3.841   7.522   5.849  0.0252 -0.0648  0.0307
  698POPI   GL2 9764   3.947   7.809   5.871  0.0514  0.2495  0.1798
  698POPI   C1A 9765   3.945   7.516   6.327  0.2155 -0.0841 -0.0507
  698POPI   D2A 9766   4.070   7.574   6.706 -0.1374 -0.3135 -0.0086
  698POPI   C3A 9767   4.512   7.633   6.733  0.2058 -0.0487  0.1688
  698POPI   C4A 9768   4.657   7.656   6.390 -0.0674  0.1010 -0.2465
  698POPI   C1B 9769   3.901   8.040   6.249 -0.0562 -0.0574 -0.4399
  698POPI   C2B 9770   3.750   7.983   6.660  0.2000 -0.3314  0.1256
  698POPI   C3B 9771   3.553   8.152   7.003 -0.0655  0.1783  0.0891
  698POPI   C4B 9772   3.584   8.410   7.415 -0.0162 -0.1074 -0.0326
  699POPI    C1 9773   5.288   7.016   5.754  0.0913 -0.0684  0.0780
  699POPI    C2 9774   5.050   6.704   5.677  0.0852 -0.0032 -0.1759
  699POPI    C3 9775   5.341   6.802   5.421  0.1051  0.1829 -0.0841
  699POPI   PO4 9776   5.317   6.997   6.027 -0.2408 -0.1529 -0.1879
  699POPI   GL1 9777   5.243   7.235   6.410  0.1166 -0.1879  0.0307
  699POPI   GL2 9778   5.550   7.257   6.502  0.1308 -0.2495 -0.0287
  699POPI   C1A 9779   4.989   7.296   6.650 -0.0331 -0.2400 -0.0111
  699POPI   D2A 9780   5.030   7.426   7.082  0.1476 -0.0984  0.3815
  699POPI   C3A 9781   4.728   7.414   7.364  0.1083 -0.0120 -0.0279
  699POPI   C4A 9782   4.651   7.536   7.910 -0.0794 -0.1251  0.1077
  699POPI   C1B 9783   5.478   7.349   6.899  0.1877  0.2371  0.2503
  699POPI   C2B 9784   5.518   7.438   7.365 -0.1014 -0.0742  0.0362
  699POPI   C3B 9785   5.574   7.729   7.723  0.1204  0.0650 -0.0271
  699POPI   C4B 9786   5.792   8.050   7.828 -0.0380 -0.3165  0.1691
  700POPI    C1 9787  12.401   4.632   6.268  0.3459 -0.1241  0.2391
  700POPI    C2 9788  12.551   4.878   5.990 -0.0505 -0.1499 -0.0057
  700POPI    C3 9789  12.770   4.570   6.124  0.1893 -0.0683 -0.2020
  700POPI   PO4 9790  12.188   4.829   6.367 -0.2794 -0.2302  0.0535
  700POPI   GL1 9791  12.264   4.942   6.816 -0.1200 -0.0428  0.1738
  700POPI   GL2 9792  12.426   4.627   6.827  0.1505 -0.0712  0.2067
  700POPI   C1A 9793  12.128   4.831   7.216 -0.1251  0.0718  0.0458
  700POPI   D2A 9794  12.087   4.940   7.688 -0.0821  0.1616  0.0302
  700POPI   C3A 9795  11.848   4.602   7.888 -0.0896  0.3864 -0.2704
  700POPI   C4A 9796  11.507   4.371   8.043 -0.1559  0.0266 -0.1754
  700POPI   C1B 9797  11.985   4.414   6.887 -0.0857 -0.1948 -0.0451
  700POPI   C2B 9798  11.726   4.096   7.209  0.3285 -0.2898  0.0622
  700POPI   C3B 9799  11.749   4.125   7.683  0.0966  0.2042 -0.1001
  700POPI   C4B 9800  11.913   4.125   8.094  0.0400  0.2610 -0.0478
  701POPI    C1 9801   2.882  14.898   5.572  0.1297 -0.2517  0.0348
  701POPI    C2 9802   3.233  14.992   5.405  0.1102 -0.0479  0.1063
  701POPI    C3 9803   2.895  15.157   5.267  0.0695 -0.0534  0.1989
  701POPI   PO4 9804   2.890  14.917   5.858  0.0566 -0.1578  0.0061
  701POPI   GL1 9805   2.925  14.639   6.298  0.1629 -0.0746 -0.1684
  701POPI   GL2 9806   3.122  14.826   6.365  0.2402  0.2098  0.1924
  701POPI   C1A 9807   2.820  14.538   6.815  0.1867 -0.2132  0.2621
  701POPI   D2A 9808   2.617  14.399   7.223  0.1420 -0.1168  0.1216
  701POPI   C3A 9809   2.703  14.480   7.640  0.2255 -0.0016  0.0805
  701POPI   C4A 9810   2.767  14.381   7.989 -0.0369  0.2053 -0.1378
  701POPI   C1B 9811   3.369  14.780   6.687  0.1504  0.1866  0.0889
  701POPI   C2B 9812   3.279  14.725   7.068  0.0894 -0.1143  0.1052
  701POPI   C3B 9813   3.106  14.608   7.391  0.1314 -0.3576 -0.4246
  701POPI   C4B 9814   3.052  14.737   7.808  0.2403 -0.0788  0.0278
  702POPI    C1 9815   7.933  15.167   5.239 -0.1006  0.0381 -0.4790
  702POPI    C2 9816   8.213  15.412   5.387 -0.2806 -0.0518  0.0307
  702POPI    C3 9817   8.319  15.104   5.155  0.0346 -0.0254  0.1349
  702POPI   PO4 9818   7.775  15.186   5.472 -0.1467 -0.2800 -0.3553
  702POPI   GL1 9819   7.872  15.446   5.825  0.1435  0.1059  0.1138
  702POPI   GL2 9820   8.027  15.416   6.122  0.1327  0.1060  0.1550
  702POPI   C1A 9821   7.569  15.670   6.158  0.1444  0.5052  0.0300
  702POPI   D2A 9822   7.343  15.732   6.472  0.0664 -0.4098 -0.2437
  702POPI   C3A 9823   7.526  15.756   6.805 -0.1408 -0.0614  0.1167
  702POPI   C4A 9824   7.577  16.004   7.181 -0.2116 -0.1002  0.0863
  702POPI   C1B 9825   7.957  15.512   6.529 -0.0459 -0.1190  0.1613
  702POPI   C2B 9826   7.853  15.445   7.016 -0.3644 -0.0457  0.1144
  702POPI   C3B 9827   7.763  15.286   7.422 -0.0000 -0.1337 -0.0452
  702POPI   C4B 9828   7.451  15.160   7.770  0.3921 -0.0108 -0.0173
  703POPI    C1 9829   5.301  13.425   5.232  0.1084  0.0797 -0.1511
  703POPI    C2 9830   5.623  13.660   5.266  0.3686 -0.2477 -0.2945
  703POPI    C3 9831   5.494  13.548   4.904  0.0234 -0.0312 -0.2436
  703POPI   PO4 9832   5.228  13.354   5.545 -0.0334  0.2708 -0.1331
  703POPI   GL1 9833   5.338  13.428   5.987  0.2866 -0.1754 -0.0364
  703POPI   GL2 9834   5.624  13.440   6.193 -0.1537  0.2238  0.1054
  703POPI   C1A 9835   5.285  13.816   6.138  0.0611 -0.1247  0.1808
  703POPI   D2A 9836   5.075  14.194   6.340 -0.1185  0.2712 -0.1609
  703POPI   C3A 9837   4.828  14.165   6.655  0.1653 -0.2262 -0.0756
  703POPI   C4A 9838   4.712  13.959   7.017  0.1663  0.0643 -0.0304
  703POPI   C1B 9839   5.455  13.505   6.653  0.1165 -0.0604  0.0529
  703POPI   C2B 9840   5.503  13.541   7.129 -0.0965 -0.0974 -0.3533
  703POPI   C3B 9841   5.217  13.626   7.453  0.3569  0.1057 -0.1846
  703POPI   C4B 9842   4.893  13.846   7.816 -0.1017 -0.1374 -0.1097
  704POPI    C1 9843  16.924   4.603   5.721  0.0831 -0.1737  0.0397
  704POPI    C2 9844  17.270   4.418   5.793  0.0837 -0.1909 -0.0068
  704POPI    C3 9845  17.102   4.393   5.431  0.0979 -0.0777 -0.0215
  704POPI   PO4 9846  16.723   4.462   5.946 -0.3038 -0.5679  0.0230
  704POPI   GL1 9847  16.837   4.411   6.351  0.2723  0.0793 -0.3642
  704POPI   GL2 9848  16.715   4.174   6.359 -0.0427  0.0007  0.1916
  704POPI   C1A 9849  16.756   4.360   6.888  0.2526 -0.3168 -0.1693
  704POPI   D2A 9850  17.027   4.322   7.134  0.3091 -0.0022  0.1124
  704POPI   C3A 9851  17.046   4.082   7.544  0.0180 -0.5544  0.0766
  704POPI   C4A 9852  16.784   3.846   7.755  0.0307 -0.0299  0.0970
  704POPI   C1B 9853  16.792   3.814   6.741 -0.1335 -0.0876 -0.0930
  704POPI   C2B 9854  17.072   3.792   7.062 -0.0881  0.0091 -0.0682
  704POPI   C3B 9855  17.129   3.557   7.422  0.0161 -0.1050 -0.0884
  704POPI   C4B 9856  17.003   3.300   7.742 -0.1672  0.3121  0.1125
  705POPI    C1 9857   2.467   5.280   5.152 -0.0290  0.0446  0.0673
  705POPI    C2 9858   2.770   5.028   5.087 -0.0307  0.0365  0.0908
  705POPI    C3 9859   2.397   4.920   4.992  0.0152  0.1833 -0.2734
  705POPI   PO4 9860   2.544   5.385   5.411  0.3964  0.0888 -0.2140
  705POPI   GL1 9861   2.674   5.175   5.619 -0.0697 -0.2307 -0.0287
  705POPI   GL2 9862   2.870   4.918   5.612  0.0416 -0.4130 -0.1840
  705POPI   C1A 9863   3.013   5.495   5.909 -0.0099  0.0973 -0.1810
  705POPI   D2A 9864   2.976   5.690   6.259 -0.0915 -0.3502  0.1567
  705POPI   C3A 9865   2.620   5.894   6.311 -0.2037  0.1214 -0.0171
  705POPI   C4A 9866   2.416   5.801   6.750 -0.0976 -0.2409  0.0980
  705POPI   C1B 9867   2.801   5.063   6.069 -0.3090 -0.1655  0.1357
  705POPI   C2B 9868   2.576   4.911   6.424  0.0109  0.1510  0.1329
  705POPI   C3B 9869   2.241   5.056   6.626  0.1186  0.1997 -0.1781
  705POPI   C4B 9870   2.182   5.409   6.478 -0.0279  0.2569 -0.3687
  706POPI    C1 9871  10.792  10.432   5.476 -0.0217 -0.0158  0.2654
  706POPI    C2 9872  11.122  10.293   5.654  0.1048 -0.2755 -0.1570
  706POPI    C3 9873  11.131  10.644   5.462  0.0719 -0.1778  0.0174
  706POPI   PO4 9874  10.595  10.325   5.640 -0.0905  0.0987 -0.2280
  706POPI   GL1 9875  10.595  10.384   6.101  0.1034 -0.0668 -0.0440
  706POPI   GL2 9876  10.381  10.132   6.146 -0.1184 -0.0336 -0.1319
  706POPI   C1A 9877  10.702  10.261   6.540 -0.0570 -0.1892  0.0639
  706POPI   D2A 9878  10.799  10.559   6.947 -0.1800 -0.0341 -0.1095
  706POPI   C3A 9879  10.629  10.483   7.298 -0.0924 -0.2302  0.2428
  706POPI   C4A 9880  10.494  10.519   7.672  0.3042 -0.1363 -0.1546
  706POPI   C1B 9881  10.384   9.808   6.475  0.1686  0.1082 -0.0473
  706POPI   C2B 9882  10.318   9.740   6.901  0.2628  0.1926  0.1905
  706POPI   C3B 9883  10.099   9.680   7.315  0.0784  0.2217 -0.1702
  706POPI   C4B 9884  10.090   9.600   7.725 -0.1579  0.0946  0.1740
  707POPI    C1 9885   9.972  12.772   5.814  0.2182 -0.1268 -0.1741
  707POPI    C2 9886  10.186  12.594   6.101 -0.0599  0.0416  0.1441
  707POPI    C3 9887   9.876  12.403   5.936  0.1064 -0.0593 -0.0563
  707POPI   PO4 9888  10.224  12.943   5.739  0.2040  0.3133  0.0118
  707POPI   GL1 9889  10.570  12.945   5.989  0.1025 -0.0892 -0.0940
  707POPI   GL2 9890  10.908  12.949   6.000 -0.2751 -0.1916  0.0891
  707POPI   C1A 9891  10.452  12.742   6.485  0.1107 -0.4809 -0.2854
  707POPI   D2A 9892  10.641  12.574   6.850  0.2514 -0.1121 -0.0407
  707POPI   C3A 9893  10.627  12.532   7.295 -0.0459  0.0975 -0.0437
  707POPI   C4A 9894  11.039  12.381   7.518  0.1868 -0.1340 -0.2330
  707POPI   C1B 9895  10.911  12.954   6.357 -0.0608 -0.0835 -0.1596
  707POPI   C2B 9896  10.732  13.044   6.787  0.1102  0.0217  0.0378
  707POPI   C3B 9897  10.710  13.000   7.233  0.2686  0.0427  0.1258
  707POPI   C4B 9898  10.811  12.824   7.607  0.0672  0.2462 -0.2142
  708POPI    C1 9899   0.290   4.602   5.703 -0.0435 -0.0523 -0.2424
  708POPI    C2 9900   0.325   5.000   5.685 -0.1187 -0.0340 -0.0152
  708POPI    C3 9901   0.339   4.783   5.350 -0.2324  0.1724 -0.1565
  708POPI   PO4 9902   0.109   4.586   5.919  0.0166 -0.1675  0.1444
  708POPI   GL1 9903   0.033   4.481   6.252 -0.1157 -0.3814  0.0425
  708POPI   GL2 9904  -0.065   4.688   6.489 -0.1913 -0.0517 -0.1982
  708POPI   C1A 9905   0.119   4.176   6.610  0.1199 -0.0867 -0.1423
  708POPI   D2A 9906   0.275   4.172   7.085 -0.0430 -0.0736  0.1862
  708POPI   C3A 9907   0.557   4.187   7.448  0.5279  0.0188 -0.1000
  708POPI   C4A 9908   0.866   4.063   7.895  0.2952 -0.3107 -0.0560
  708POPI   C1B 9909   0.084   4.634   6.913  0.1924 -0.0809  0.1745
  708POPI   C2B 9910   0.291   4.636   7.329  0.0556 -0.0177 -0.0526
  708POPI   C3B 9911   0.297   4.634   7.785 -0.0097 -0.0593  0.1489
  708POPI   C4B 9912   0.335   4.450   8.203 -0.1196  0.2654  0.0762
  709POPI    C1 9913   8.672   6.103   6.201 -0.4560 -0.0985 -0.1864
  709POPI    C2 9914   8.811   5.825   5.948  0.2378  0.1059 -0.0502
  709POPI    C3 9915   8.826   6.212   5.848 -0.2986  0.1341 -0.0487
  709POPI   PO4 9916   8.712   6.015   6.428  0.2466  0.0908 -0.2367
  709POPI   GL1 9917   8.499   6.137   6.846  0.1076 -0.2235 -0.0893
  709POPI   GL2 9918   8.612   6.463   6.636  0.2415  0.1440  0.1667
  709POPI   C1A 9919   8.296   6.287   7.280 -0.3776  0.1726 -0.0155
  709POPI   D2A 9920   8.354   6.499   7.745 -0.0023 -0.2000  0.0688
  709POPI   C3A 9921   8.745   6.626   7.936 -0.2057  0.1418 -0.4374
  709POPI   C4A 9922   9.067   6.417   7.898 -0.3040  0.3121  0.1038
  709POPI   C1B 9923   8.771   6.622   7.054 -0.1596  0.0836  0.1434
  709POPI   C2B 9924   8.783   6.870   7.454 -0.2852  0.0417 -0.2504
  709POPI   C3B 9925   8.810   7.138   7.828 -0.1833  0.3580 -0.2933
  709POPI   C4B 9926   8.651   7.307   8.201 -0.0741 -0.2467 -0.1896
  710POPI    C1 9927   2.698   7.856   5.733  0.1531  0.0800 -0.1443
  710POPI    C2 9928   2.874   7.618   5.464  0.0602 -0.0773 -0.0666
  710POPI    C3 9929   3.085   7.761   5.772  0.1347  0.0006 -0.1536
  710POPI   PO4 9930   2.505   7.678   5.754  0.1623 -0.0441 -0.0546
  710POPI   GL1 9931   2.583   7.534   6.102  0.0800 -0.0826  0.0191
  710POPI   GL2 9932   2.873   7.363   5.933 -0.1686 -0.0908  0.2679
  710POPI   C1A 9933   2.557   7.550   6.558  0.1918  0.0859  0.0108
  710POPI   D2A 9934   2.622   7.643   7.011  0.3937  0.0479  0.0121
  710POPI   C3A 9935   2.715   7.257   7.186  0.1701  0.1621  0.2327
  710POPI   C4A 9936   2.887   6.932   7.386  0.1843  0.3079 -0.2516
  710POPI   C1B 9937   3.007   7.072   6.343  0.2751  0.0544 -0.1782
  710POPI   C2B 9938   2.987   6.717   6.547 -0.1629  0.0677 -0.3918
  710POPI   C3B 9939   3.118   6.500   6.920  0.0141 -0.1442  0.0087
  710POPI   C4B 9940   3.140   6.127   7.053 -0.0559 -0.0998  0.1221
  711POPI    C1 9941  17.949  12.195   5.833  0.2225 -0.0011  0.1733
  711POPI    C2 9942  17.973  12.432   5.511  0.2428  0.0206  0.1909
  711POPI    C3 9943  18.138  12.068   5.504 -0.1605 -0.1650  0.0094
  711POPI   PO4 9944  18.073  12.332   6.091  0.1703 -0.2017  0.1081
  711POPI   GL1 9945  17.985  12.335   6.564  0.0310  0.0529  0.1009
  711POPI   GL2 9946  18.033  11.985   6.500 -0.0074  0.1665  0.2177
  711POPI   C1A 9947  17.930  12.452   7.014  0.2026 -0.0111  0.0111
  711POPI   D2A 9948  18.243  12.581   7.287  0.0606  0.5920 -0.3948
  711POPI   C3A 9949  18.169  12.253   7.659 -0.1906 -0.0960 -0.0414
  711POPI   C4A 9950  17.859  12.054   7.900 -0.0554 -0.0188 -0.2788
  711POPI   C1B 9951  17.808  11.965   6.946  0.1156 -0.1515  0.2391
  711POPI   C2B 9952  17.849  12.004   7.357 -0.0652  0.0727  0.0952
  711POPI   C3B 9953  17.696  12.448   7.516 -0.2150  0.0301 -0.0066
  711POPI   C4B 9954  17.926  12.638   7.794 -0.2473 -0.0837  0.2211
  712POPI    C1 9955   8.422  13.860   5.403  0.0510  0.1891  0.1212
  712POPI    C2 9956   8.267  13.833   5.035  0.0549  0.2357  0.1161
  712POPI    C3 9957   8.311  14.191   5.208 -0.3780  0.1840  0.3451
  712POPI   PO4 9958   8.364  13.773   5.589  0.0608 -0.1048 -0.1244
  712POPI   GL1 9959   8.555  13.730   5.982 -0.1415  0.1981  0.1050
  712POPI   GL2 9960   8.764  13.644   6.166  0.0611 -0.0731  0.0280
  712POPI   C1A 9961   8.368  13.784   6.400  0.0856 -0.1933 -0.1890
  712POPI   D2A 9962   8.456  13.869   6.874 -0.0337  0.1100 -0.0311
  712POPI   C3A 9963   8.700  14.130   7.139  0.1176 -0.1168 -0.0312
  712POPI   C4A 9964   8.659  14.166   7.634  0.2073  0.1928 -0.0120
  712POPI   C1B 9965   9.001  13.573   6.500  0.1005  0.1430  0.0258
  712POPI   C2B 9966   8.899  13.607   6.905  0.1867  0.0897  0.2949
  712POPI   C3B 9967   8.648  13.639   7.278  0.1983  0.0193 -0.4656
  712POPI   C4B 9968   8.575  13.577   7.703 -0.1264 -0.0264 -0.0688
  713POPI    C1 9969  11.797  10.170   6.244  0.1428 -0.0451  0.2575
  713POPI    C2 9970  12.063  10.155   5.944 -0.1595 -0.2307 -0.0076
  713POPI    C3 9971  11.870   9.823   6.058 -0.1130 -0.1436  0.3373
  713POPI   PO4 9972  11.685  10.513   6.220  0.3610 -0.3356 -0.1462
  713POPI   GL1 9973  11.388  10.781   6.504 -0.1001  0.1734  0.0080
  713POPI   GL2 9974  11.515  10.712   6.768  0.0076  0.1507  0.0256
  713POPI   C1A 9975  11.087  10.914   6.790  0.1778 -0.2227  0.1646
  713POPI   D2A 9976  11.037  10.994   7.218  0.1860  0.1443 -0.0436
  713POPI   C3A 9977  10.793  10.940   7.546  0.3739  0.1494 -0.0971
  713POPI   C4A 9978  10.411  10.998   7.808 -0.1636  0.1296  0.0049
  713POPI   C1B 9979  11.304  10.573   7.078  0.0424 -0.0125  0.0510
  713POPI   C2B 9980  11.086  10.494   7.485 -0.0604 -0.0565 -0.1483
  713POPI   C3B 9981  10.975  10.622   7.877  0.0628  0.1835  0.0665
  713POPI   C4B 9982  10.627  10.599   8.153  0.0075  0.0428  0.1208
  714POPI    C1 9983  10.078  15.456   5.730 -0.0512  0.0155 -0.1202
  714POPI    C2 9984   9.959  15.113   5.562 -0.0829 -0.0648  0.0645
  714POPI    C3 9985  10.310  15.275   5.459 -0.0392 -0.1853  0.0220
  714POPI   PO4 9986   9.776  15.554   5.833  0.0547  0.0509  0.2947
  714POPI   GL1 9987   9.684  15.692   6.221  0.2655 -0.0686  0.0508
  714POPI   GL2 9988   9.884  15.937   6.349 -0.0469 -0.2110  0.2129
  714POPI   C1A 9989   9.447  15.443   6.545  0.2364 -0.0778  0.1651
  714POPI   D2A 9990   9.410  15.263   6.921 -0.3646 -0.0115  0.1586
  714POPI   C3A 9991   9.606  15.154   7.299 -0.2394 -0.2474  0.2523
  714POPI   C4A 9992   9.612  15.110   7.697 -0.3227 -0.0164 -0.1441
  714POPI   C1B 9993   9.671  15.974   6.717 -0.3293  0.0253  0.1787
  714POPI   C2B 9994   9.686  16.071   7.074  0.2281 -0.1515 -0.0122
  714POPI   C3B 9995   9.653  16.163   7.455  0.1987  0.0331  0.2272
  714POPI   C4B 9996   9.587  16.214   7.938 -0.2974 -0.0004  0.1806
  715POPI    C1 9997   4.877   3.402   6.151  0.1394 -0.3603  0.0578
  715POPI    C2 9998   4.579   3.484   5.897  0.0795 -0.1634  0.1893
  715POPI    C3 9999   4.767   3.131   5.878  0.0255 -0.1798 -0.0774
  715POPI   PO410000   5.018   3.687   6.211 -0.0370 -0.0913  0.1317
  715POPI   GL110001   5.256   3.740   6.523  0.0165 -0.1339 -0.0262
  715POPI   GL210002   5.333   3.347   6.443  0.1222 -0.1474  0.0664
  715POPI   C1A10003   5.304   3.893   6.921 -0.1373  0.1254  0.0069
  715POPI   D2A10004   5.312   3.776   7.279  0.1639 -0.0393  0.1747
  715POPI   C3A10005   5.590   3.792   7.672 -0.2051  0.0675  0.1729
  715POPI   C4A10006   5.842   3.564   8.032  0.1013  0.1716  0.2993
  715POPI   C1B10007   5.224   3.363   6.819  0.3637  0.0051 -0.4536
  715POPI   C2B10008   5.154   3.338   7.235 -0.0182 -0.0328 -0.0954
  715POPI   C3B10009   4.835   3.142   7.416  0.0273 -0.3209  0.1216
  715POPI   C4B10010   4.816   2.840   7.654 -0.3877 -0.1307 -0.4425
  716POPI    C110011  11.334  11.512   5.720 -0.0626 -0.0245  0.0496
  716POPI    C210012  11.004  11.609   5.517 -0.1932 -0.1252  0.2106
  716POPI    C310013  11.047  11.239   5.663  0.0578 -0.1561  0.0652
  716POPI   PO410014  11.413  11.724   5.916  0.0777 -0.2773  0.1498
  716POPI   GL110015  11.329  11.724   6.376 -0.1402 -0.0571 -0.2361
  716POPI   GL210016  11.238  11.454   6.559  0.1468 -0.0149  0.2245
  716POPI   C1A10017  11.702  11.676   6.688 -0.1624 -0.2699  0.0501
  716POPI   D2A10018  11.673  11.828   7.162  0.2173 -0.0519  0.1807
  716POPI   C3A10019  11.508  11.657   7.549  0.1244  0.2377  0.1388
  716POPI   C4A10020  11.309  11.868   7.805  0.1609 -0.0163  0.0891
  716POPI   C1B10021  11.255  11.774   6.877  0.2644  0.3655 -0.1603
  716POPI   C2B10022  11.058  11.868   7.328  0.1769 -0.0815  0.1023
  716POPI   C3B10023  10.809  11.924   7.706 -0.3264  0.0096  0.0541
  716POPI   C4B10024  10.450  12.054   8.062  0.0989  0.1183  0.0987
  717POPI    C110025  12.229  16.674   5.759  0.0952  0.2772 -0.0813
  717POPI    C210026  11.973  16.684   5.452 -0.0104  0.0105 -0.0044
  717POPI    C310027  11.918  16.925   5.767 -0.2202 -0.1090  0.0522
  717POPI   PO410028  12.194  16.461   5.893 -0.0953  0.1718  0.0304
  717POPI   GL110029  12.072  16.387   6.282  0.1196  0.2350 -0.0884
  717POPI   GL210030  11.858  16.300   6.474 -0.1951 -0.0379 -0.1182
  717POPI   C1A10031  12.295  16.432   6.656 -0.1122 -0.2327 -0.0095
  717POPI   D2A10032  12.203  16.296   7.033  0.1527  0.1206  0.0240
  717POPI   C3A10033  12.363  16.230   7.456  0.2547 -0.2177  0.0939
  717POPI   C4A10034  12.498  16.059   7.863  0.1367 -0.1109 -0.2719
  717POPI   C1B10035  11.719  16.202   6.854  0.0599 -0.3569 -0.1423
  717POPI   C2B10036  11.797  16.123   7.268  0.2420  0.0480  0.1037
  717POPI   C3B10037  11.522  16.349   7.643  0.0100 -0.0760  0.1072
  717POPI   C4B10038  11.279  16.492   7.904 -0.1058  0.0495 -0.3733
  718POPI    C110039   8.283  12.638   5.300  0.0209 -0.0510  0.0706
  718POPI    C210040   8.144  13.003   5.383  0.1951 -0.0156  0.2136
  718POPI    C310041   7.951  12.770   5.121  0.0512  0.1561  0.1649
  718POPI   PO410042   8.387  12.465   5.625  0.0936  0.0097  0.3360
  718POPI   GL110043   8.169  12.340   6.025 -0.0535 -0.2101  0.0883
  718POPI   GL210044   7.856  12.414   6.107  0.0464  0.0483  0.0104
  718POPI   C1A10045   8.057  12.190   6.535 -0.0652  0.1817 -0.1151
  718POPI   D2A10046   7.878  12.121   7.007 -0.2433 -0.0600  0.3990
  718POPI   C3A10047   7.993  11.941   7.427  0.0001 -0.0585 -0.0038
  718POPI   C4A10048   8.084  12.154   7.729  0.0342  0.0548  0.0482
  718POPI   C1B10049   7.676  12.749   6.325  0.0680  0.0240  0.2105
  718POPI   C2B10050   7.569  12.608   6.753  0.3071  0.0226 -0.3089
  718POPI   C3B10051   7.557  12.545   7.156 -0.4697  0.1699 -0.1986
  718POPI   C4B10052   7.287  12.512   7.466 -0.0792 -0.0364 -0.1872
  719POPI    C110053   9.085   0.428   5.977 -0.0355  0.1037 -0.0824
  719POPI    C210054   8.900   0.118   6.148  0.3168 -0.1086 -0.0751
  719POPI    C310055   8.935   0.135   5.750 -0.0463  0.1242 -0.1017
  719POPI   PO410056   9.160   0.556   6.199 -0.2106 -0.0144 -0.0656
  719POPI   GL110057   9.303   0.542   6.652  0.1919  0.1570  0.1517
  719POPI   GL210058   9.594   0.619   6.708 -0.1864  0.1352 -0.4282
  719POPI   C1A10059   9.263   0.821   7.050 -0.2184 -0.1396 -0.0626
  719POPI   D2A10060   9.211   0.672   7.495  0.1368 -0.0902  0.0574
  719POPI   C3A10061   9.387   0.597   7.961 -0.0469  0.0432  0.1503
  719POPI   C4A10062   9.353   0.356   8.429 -0.0237 -0.1532  0.2913
  719POPI   C1B10063   9.832   0.675   7.165 -0.1699 -0.4147 -0.2608
  719POPI   C2B10064   9.748   0.622   7.622 -0.1501  0.3492  0.0690
  719POPI   C3B10065   9.890   0.733   8.037  0.0726 -0.2897  0.0864
  719POPI   C4B10066  10.131   0.990   8.360 -0.0357  0.0019  0.0453
  720POPI    C110067  15.830   9.857   6.016 -0.1635  0.1590 -0.1229
  720POPI    C210068  16.063  10.131   5.841  0.0756 -0.0068 -0.0692
  720POPI    C310069  15.909   9.832   5.625 -0.2055  0.1794 -0.1328
  720POPI   PO410070  15.876   9.985   6.310  0.0931 -0.0091 -0.3069
  720POPI   GL110071  16.059   9.873   6.732 -0.0216  0.0363  0.0011
  720POPI   GL210072  16.276  10.053   6.645 -0.2119 -0.3560  0.0890
  720POPI   C1A10073  16.048   9.942   7.167 -0.0349  0.0116 -0.0282
  720POPI   D2A10074  16.041   9.961   7.628 -0.0728  0.3608  0.1569
  720POPI   C3A10075  16.153  10.315   7.809 -0.1163 -0.1002 -0.0281
  720POPI   C4A10076  16.157  10.534   8.155  0.1318 -0.1718  0.0645
  720POPI   C1B10077  16.715  10.260   6.814  0.0349  0.1310  0.0476
  720POPI   C2B10078  16.826  10.274   7.306 -0.2082 -0.1210 -0.3261
  720POPI   C3B10079  16.722  10.409   7.688  0.0895 -0.2078  0.2380
  720POPI   C4B10080  16.817  10.394   8.061  0.0256 -0.0060  0.0976
  721POPI    C110081   8.362   1.159   5.831  0.0675  0.2339 -0.0101
  721POPI    C210082   8.156   1.420   5.609 -0.0140  0.1408 -0.0450
  721POPI    C310083   7.963   1.167   5.851  0.0582  0.0375 -0.0950
  721POPI   PO410084   8.437   1.218   6.062 -0.0243  0.0235  0.1747
  721POPI   GL110085   8.456   1.186   6.438 -0.0605  0.1108  0.0953
  721POPI   GL210086   8.425   1.449   6.626  0.1633  0.1688 -0.0048
  721POPI   C1A10087   8.217   1.023   6.788  0.0536 -0.0657  0.2581
  721POPI   D2A10088   8.303   1.155   7.194 -0.3515  0.0518 -0.0338
  721POPI   C3A10089   8.319   0.844   7.543 -0.1109 -0.0692  0.1197
  721POPI   C4A10090   8.289   0.607   7.954 -0.0068 -0.4781  0.1005
  721POPI   C1B10091   8.230   1.689   6.990 -0.3616  0.1610  0.0937
  721POPI   C2B10092   8.073   1.610   7.467  0.1391  0.3819  0.1025
  721POPI   C3B10093   8.125   1.288   7.824 -0.3019  0.0044  0.1392
  721POPI   C4B10094   8.016   0.976   8.122 -0.2327 -0.0778 -0.2892
  722POPI    C110095   3.449   5.698   5.435 -0.2644 -0.1529 -0.0984
  722POPI    C210096   3.278   6.043   5.327  0.1056  0.0816  0.0445
  722POPI    C310097   3.183   5.874   5.677  0.1385  0.1911  0.1068
  722POPI   PO410098   3.732   5.819   5.451 -0.1241  0.0148 -0.1522
  722POPI   GL110099   3.826   5.919   5.915 -0.1978  0.1569  0.1241
  722POPI   GL210100   3.873   6.146   6.106  0.3658  0.2244  0.2923
  722POPI   C1A10101   3.445   5.876   6.202  0.1503 -0.0274 -0.0807
  722POPI   D2A10102   3.305   5.802   6.640 -0.0825 -0.1270 -0.2395
  722POPI   C3A10103   2.899   5.732   6.838 -0.0457 -0.2547 -0.1256
  722POPI   C4A10104   2.650   5.781   7.228  0.1482  0.0683 -0.2858
  722POPI   C1B10105   3.805   6.051   6.518  0.2229 -0.2646  0.0111
  722POPI   C2B10106   3.790   5.860   6.923 -0.1376  0.1738 -0.3376
  722POPI   C3B10107   3.497   5.769   7.184  0.0447  0.1928  0.3511
  722POPI   C4B10108   3.404   5.407   7.535  0.0461  0.0974  0.1846
  723POPI    C110109   8.111   9.727   5.678  0.0183 -0.0148 -0.0718
  723POPI    C210110   8.128   9.951   5.347  0.2218 -0.0387 -0.0789
  723POPI    C310111   8.200   9.558   5.326 -0.1704 -0.1147 -0.0725
  723POPI   PO410112   8.004   9.894   5.889  0.0974  0.1811 -0.2743
  723POPI   GL110113   7.990  10.096   6.184 -0.0627  0.0733  0.3034
  723POPI   GL210114   7.776  10.327   6.132  0.0580 -0.0353 -0.1391
  723POPI   C1A10115   8.407  10.165   6.473  0.0041 -0.0466 -0.0597
  723POPI   D2A10116   8.554  10.187   6.861 -0.2733 -0.0800 -0.2404
  723POPI   C3A10117   8.248  10.213   7.118 -0.0810  0.0815 -0.3964
  723POPI   C4A10118   7.724  10.340   6.998  0.0775  0.2971 -0.0765
  723POPI   C1B10119   7.687  10.514   6.497  0.0200  0.2170  0.1601
  723POPI   C2B10120   7.497  10.828   6.759 -0.1652  0.3320  0.0009
  723POPI   C3B10121   7.253  11.106   6.946 -0.1096  0.2054  0.0880
  723POPI   C4B10122   7.401  11.158   7.332  0.0635  0.0487  0.1726
  724POPI    C110123  15.320   3.502   6.249  0.0728 -0.1588 -0.0082
  724POPI    C210124  15.540   3.549   5.918 -0.1206 -0.0126 -0.1182
  724POPI    C310125  15.617   3.771   6.242  0.1832 -0.2798 -0.0017
  724POPI   PO410126  15.140   3.541   6.217 -0.1699 -0.0865  0.2618
  724POPI   GL110127  14.966   3.601   6.577  0.1829 -0.0759 -0.0664
  724POPI   GL210128  14.898   3.346   6.692  0.0925 -0.0124 -0.0767
  724POPI   C1A10129  14.965   3.705   7.032  0.0452  0.0225  0.0651
  724POPI   D2A10130  14.631   3.811   7.284 -0.0301  0.0217  0.2687
  724POPI   C3A10131  14.518   4.237   7.207  0.0031  0.2465 -0.0834
  724POPI   C4A10132  14.500   4.516   7.433 -0.1643  0.2683 -0.0954
  724POPI   C1B10133  14.996   3.205   7.050  0.1144  0.2753  0.0138
  724POPI   C2B10134  15.111   3.077   7.477 -0.4636  0.3166  0.2142
  724POPI   C3B10135  15.245   2.895   7.850 -0.0302 -0.0372 -0.0129
  724POPI   C4B10136  15.276   2.622   8.183  0.2040 -0.2628 -0.3253
  725POPI    C110137  16.162  11.652   5.819  0.0666  0.0893 -0.0390
  725POPI    C210138  16.089  11.974   5.593  0.0294 -0.0524 -0.2316
  725POPI    C310139  16.457  11.819   5.607 -0.0171 -0.1786 -0.3764
  725POPI   PO410140  16.007  11.693   6.048 -0.0310 -0.0743  0.1145
  725POPI   GL110141  15.916  11.895   6.368  0.0522  0.1658 -0.4280
  725POPI   GL210142  15.788  12.191   6.399 -0.1073 -0.0903 -0.0963
  725POPI   C1A10143  16.317  11.735   6.625 -0.0719 -0.1521  0.1826
  725POPI   D2A10144  16.270  11.614   7.047  0.0452  0.0845 -0.0193
  725POPI   C3A10145  16.258  11.657   7.371 -0.3093 -0.2020  0.1029
  725POPI   C4A10146  16.201  11.563   7.831  0.0223 -0.3850  0.0174
  725POPI   C1B10147  15.913  12.198   6.774  0.0364  0.1583 -0.1078
  725POPI   C2B10148  15.950  12.081   7.236  0.0025 -0.3492  0.0578
  725POPI   C3B10149  15.942  11.932   7.655 -0.0937  0.1901 -0.0479
  725POPI   C4B10150  15.850  11.943   8.087  0.0059 -0.1132  0.0938
  726POPI    C110151   4.029  12.861   5.340  0.1407  0.2083  0.1858
  726POPI    C210152   3.708  12.663   5.207  0.1454  0.1041  0.3275
  726POPI    C310153   3.828  12.996   5.022  0.1269 -0.0152  0.0973
  726POPI   PO410154   3.895  12.927   5.610  0.0120 -0.1000 -0.0865
  726POPI   GL110155   4.105  12.985   5.981  0.0786 -0.2644  0.3558
  726POPI   GL210156   3.966  13.260   6.007 -0.1087  0.0675 -0.0020
  726POPI   C1A10157   4.267  13.083   6.380  0.2799  0.0950 -0.0984
  726POPI   D2A10158   4.014  13.158   6.742  0.2526  0.1546  0.0334
  726POPI   C3A10159   4.072  13.268   7.220  0.1341 -0.0275 -0.2435
  726POPI   C4A10160   4.105  13.461   7.518 -0.0291  0.1209  0.1460
  726POPI   C1B10161   3.677  13.249   6.382 -0.3709 -0.1271 -0.1340
  726POPI   C2B10162   3.616  13.478   6.704 -0.2182  0.2033  0.4210
  726POPI   C3B10163   3.655  13.512   7.171 -0.1106 -0.2484  0.0809
  726POPI   C4B10164   3.620  13.561   7.548  0.0559 -0.0659 -0.1726
  727POPI    C110165   6.137  15.251   5.781 -0.0372  0.0286 -0.0874
  727POPI    C210166   6.373  15.574   5.761 -0.1273  0.1270  0.3275
  727POPI    C310167   6.509  15.218   5.639 -0.0121  0.3085 -0.0930
  727POPI   PO410168   5.896  15.406   5.745 -0.2321  0.2471  0.1363
  727POPI   GL110169   5.543  15.341   6.015 -0.0886  0.0078  0.1314
  727POPI   GL210170   5.707  15.082   6.148 -0.1599 -0.0800  0.0148
  727POPI   C1A10171   5.576  15.595   6.404 -0.0681  0.1554  0.0809
  727POPI   D2A10172   5.402  15.594   6.702 -0.1487 -0.2837 -0.0621
  727POPI   C3A10173   5.556  15.470   7.002  0.0749  0.1096 -0.1926
  727POPI   C4A10174   5.682  15.338   7.261 -0.1711  0.0769  0.1288
  727POPI   C1B10175   5.728  15.152   6.624  0.2156  0.0350  0.1099
  727POPI   C2B10176   6.071  15.205   6.958  0.1006 -0.2398 -0.0178
  727POPI   C3B10177   6.528  15.470   6.935 -0.0103  0.3281  0.2823
  727POPI   C4B10178   6.610  15.703   7.170 -0.0028 -0.2124 -0.6883
  728POPI    C110179   5.141   4.871   5.830 -0.1020  0.0305  0.1333
  728POPI    C210180   5.001   4.909   5.457  0.0716 -0.0390  0.0603
  728POPI    C310181   5.256   5.180   5.604  0.0276 -0.0286  0.1177
  728POPI   PO410182   4.931   4.865   6.049 -0.0300  0.0993 -0.1017
  728POPI   GL110183   4.619   5.054   6.363  0.0080  0.1547  0.1120
  728POPI   GL210184   4.544   5.295   6.568 -0.1594  0.0464 -0.0808
  728POPI   C1A10185   4.119   5.148   6.428  0.1638 -0.2259  0.0171
  728POPI   D2A10186   3.801   5.302   6.698  0.0453  0.0871 -0.1303
  728POPI   C3A10187   3.750   5.268   7.100  0.1382 -0.2364  0.0323
  728POPI   C4A10188   3.700   5.059   7.404  0.0326 -0.0621 -0.1445
  728POPI   C1B10189   4.325   5.381   6.971 -0.1033  0.1393 -0.2594
  728POPI   C2B10190   4.059   5.534   7.310  0.2189 -0.2055  0.0247
  728POPI   C3B10191   3.892   5.610   7.602 -0.0976  0.3598  0.0021
  728POPI   C4B10192   4.129   5.632   7.994 -0.1218 -0.0077 -0.1143
  729POPI    C110193   6.051  10.979   5.358 -0.0048 -0.0615 -0.0713
  729POPI    C210194   6.300  11.020   5.048 -0.0602 -0.0578 -0.1153
  729POPI    C310195   6.221  11.333   5.283 -0.0757 -0.0421 -0.1413
  729POPI   PO410196   6.153  10.731   5.553 -0.2217  0.0651 -0.0010
  729POPI   GL110197   5.955  10.689   6.002 -0.0579  0.1933 -0.0574
  729POPI   GL210198   5.836  10.429   6.236 -0.0267 -0.3554  0.1160
  729POPI   C1A10199   6.218  10.986   6.293  0.1487  0.2611  0.1458
  729POPI   D2A10200   6.327  10.982   6.670 -0.1806  0.0845 -0.2415
  729POPI   C3A10201   6.492  10.868   7.130 -0.1310  0.0804  0.1924
  729POPI   C4A10202   6.520  10.913   7.509  0.0419  0.0011 -0.0207
  729POPI   C1B10203   5.857  10.336   6.609  0.1279  0.1239  0.1418
  729POPI   C2B10204   5.971  10.517   6.911 -0.0385  0.3853  0.0057
  729POPI   C3B10205   5.998  10.671   7.279 -0.2800 -0.1873  0.2047
  729POPI   C4B10206   6.220  10.552   7.643 -0.0461  0.0489  0.2589
  730POPI    C110207   3.063   2.464   5.620  0.0403  0.1782 -0.1696
  730POPI    C210208   3.215   2.783   5.434 -0.0489  0.3926  0.1176
  730POPI    C310209   2.829   2.689   5.386  0.0071  0.2502 -0.0678
  730POPI   PO410210   3.142   2.520   5.893 -0.2344  0.1284 -0.0888
  730POPI   GL110211   3.190   2.229   6.267 -0.2496 -0.3697  0.0787
  730POPI   GL210212   3.292   1.944   6.362 -0.0808 -0.2833  0.1124
  730POPI   C1A10213   3.185   2.448   6.665 -0.0691  0.1906 -0.0241
  730POPI   D2A10214   3.364   2.455   7.076  0.0326  0.0903 -0.3328
  730POPI   C3A10215   3.136   2.374   7.521 -0.0422  0.1293  0.0728
  730POPI   C4A10216   3.169   2.389   7.954 -0.2566 -0.0822  0.0246
  730POPI   C1B10217   3.321   1.992   6.857  0.2140  0.1141  0.1589
  730POPI   C2B10218   3.159   1.882   7.353 -0.1075  0.0805 -0.3988
  730POPI   C3B10219   3.114   1.859   7.816 -0.0896  0.0282 -0.1557
  730POPI   C4B10220   3.062   1.766   8.259  0.1067 -0.1812  0.1608
  731POPI    C110221   3.578  14.641   5.461  0.1456 -0.1142  0.0971
  731POPI    C210222   3.652  14.859   5.134  0.0270  0.1378  0.2354
  731POPI    C310223   3.839  14.510   5.188  0.0447  0.0914 -0.1019
  731POPI   PO410224   3.635  14.778   5.620  0.0855  0.3958 -0.1361
  731POPI   GL110225   3.944  14.697   6.009  0.1752  0.3350 -0.3052
  731POPI   GL210226   3.607  14.702   6.194  0.0185  0.0959 -0.1954
  731POPI   C1A10227   4.232  14.658   6.327  0.1286 -0.0879  0.1036
  731POPI   D2A10228   4.578  14.600   6.700  0.1448 -0.1023 -0.0995
  731POPI   C3A10229   4.718  14.971   6.846  0.1282  0.0003  0.3400
  731POPI   C4A10230   4.770  15.074   7.254  0.3061  0.0862 -0.1682
  731POPI   C1B10231   3.806  14.898   6.471 -0.0695 -0.1995  0.0300
  731POPI   C2B10232   4.085  14.778   6.819 -0.0260  0.0843  0.0804
  731POPI   C3B10233   4.360  14.785   7.169  0.0878  0.0241 -0.1617
  731POPI   C4B10234   4.359  14.713   7.618 -0.0887  0.3107  0.0875
  732POPI    C110235  11.569  13.333   5.657 -0.0141 -0.1490  0.0280
  732POPI    C210236  11.426  13.702   5.715  0.1546 -0.0994  0.1346
  732POPI    C310237  11.443  13.551   5.345  0.1568  0.0297  0.0811
  732POPI   PO410238  11.794  13.297   5.790  0.0990  0.0756 -0.2162
  732POPI   GL110239  11.906  13.280   6.292  0.1752  0.0866  0.1221
  732POPI   GL210240  12.066  12.952   6.267  0.2819 -0.2957 -0.0237
  732POPI   C1A10241  11.812  13.346   6.714  0.0032 -0.2408  0.1499
  732POPI   D2A10242  11.667  13.647   7.002 -0.1826  0.3378 -0.3207
  732POPI   C3A10243  11.674  13.843   7.400 -0.3023  0.1632  0.0336
  732POPI   C4A10244  11.698  13.872   7.765  0.0815 -0.1164 -0.0856
  732POPI   C1B10245  12.052  12.542   6.526 -0.1876  0.0171  0.0076
  732POPI   C2B10246  12.000  12.503   6.882 -0.0633  0.0280 -0.2445
  732POPI   C3B10247  11.872  12.403   7.386 -0.1858  0.0158  0.2444
  732POPI   C4B10248  11.932  11.944   7.603  0.1926  0.0661 -0.0428
  733POPI    C110249   2.509   0.234   5.727  0.1108  0.1805 -0.3027
  733POPI    C210250   2.152   0.355   5.863  0.1179  0.0875 -0.1990
  733POPI    C310251   2.343   0.568   5.583  0.0432  0.2108 -0.1571
  733POPI   PO410252   2.618   0.262   5.931 -0.0374  0.0116  0.1658
  733POPI   GL110253   2.825   0.257   6.340  0.1573  0.0844  0.0475
  733POPI   GL210254   2.598   0.419   6.395  0.2997  0.1190  0.1547
  733POPI   C1A10255   2.867   0.463   6.843  0.0973  0.0217 -0.0017
  733POPI   D2A10256   3.084   0.486   7.254 -0.0155  0.1535  0.2687
  733POPI   C3A10257   2.964   0.631   7.645  0.1155  0.0089  0.0958
  733POPI   C4A10258   2.651   0.471   7.946  0.0667 -0.2964 -0.2285
  733POPI   C1B10259   2.387   0.506   6.742 -0.1487  0.0615  0.0444
  733POPI   C2B10260   2.091   0.455   7.158  0.0486 -0.0319 -0.4771
  733POPI   C3B10261   1.786   0.300   7.487 -0.1712  0.2501  0.0914
  733POPI   C4B10262   1.787   0.189   7.876 -0.0726 -0.0961 -0.1615
  734POPI    C110263  12.622   1.390   5.493  0.1666 -0.1788  0.3463
  734POPI    C210264  12.657   0.992   5.494  0.1145 -0.1856  0.1163
  734POPI    C310265  12.791   1.204   5.182 -0.0230 -0.0388  0.1558
  734POPI   PO410266  12.740   1.465   5.797  0.1806 -0.2113  0.2385
  734POPI   GL110267  12.659   1.315   6.252  0.1389  0.2136 -0.1799
  734POPI   GL210268  12.501   1.064   6.556  0.0128 -0.1728  0.0069
  734POPI   C1A10269  12.779   1.553   6.638 -0.0011  0.1907  0.1603
  734POPI   D2A10270  12.776   1.677   7.023 -0.3487  0.1470 -0.2327
  734POPI   C3A10271  13.113   1.573   7.241 -0.2096  0.2960  0.0625
  734POPI   C4A10272  13.132   1.162   7.512 -0.5746  0.1119  0.1427
  734POPI   C1B10273  12.474   1.263   6.976  0.1019  0.1092 -0.0795
  734POPI   C2B10274  12.228   1.159   7.348 -0.2068  0.1409  0.0092
  734POPI   C3B10275  12.217   1.255   7.721  0.1505  0.1924 -0.0807
  734POPI   C4B10276  12.086   1.214   8.226 -0.0692 -0.2694  0.2678
  735POPI    C110277  11.968   7.443   5.942 -0.0701 -0.1109  0.0158
  735POPI    C210278  12.073   7.092   6.103 -0.0821 -0.2142 -0.1983
  735POPI    C310279  11.952   7.109   5.722  0.0499  0.0433 -0.2309
  735POPI   PO410280  11.815   7.496   6.138 -0.1661 -0.0261  0.0090
  735POPI   GL110281  11.656   7.260   6.384  0.2280  0.2341 -0.2700
  735POPI   GL210282  11.361   6.997   6.310 -0.1242  0.0496 -0.1745
  735POPI   C1A10283  11.946   7.329   6.736 -0.0315 -0.0466 -0.0268
  735POPI   D2A10284  12.118   7.250   7.189  0.2299  0.0336  0.1119
  735POPI   C3A10285  12.374   6.913   7.313 -0.1915 -0.1043 -0.0549
  735POPI   C4A10286  12.433   6.877   7.670 -0.1182  0.0278  0.1813
  735POPI   C1B10287  11.470   6.954   6.739  0.0384 -0.1065  0.1791
  735POPI   C2B10288  11.651   7.122   7.094  0.0554  0.0476  0.0194
  735POPI   C3B10289  11.748   7.083   7.510  0.0572  0.0385 -0.2117
  735POPI   C4B10290  12.128   7.337   7.665  0.0027  0.1735  0.1186
  736POPI    C110291  15.653   5.257   6.016 -0.1152 -0.1271 -0.1480
  736POPI    C210292  15.640   4.931   5.784 -0.0771 -0.1824 -0.0728
  736POPI    C310293  15.992   5.086   5.892 -0.0950 -0.1332 -0.0844
  736POPI   PO410294  15.482   5.269   6.137  0.0410 -0.1862  0.1315
  736POPI   GL110295  15.335   5.253   6.478 -0.1534 -0.1697 -0.1748
  736POPI   GL210296  15.411   5.047   6.673  0.0329 -0.2844  0.3704
  736POPI   C1A10297  15.051   5.560   6.601  0.3349 -0.3041 -0.1511
  736POPI   D2A10298  15.109   6.053   6.673  0.0041  0.1939  0.0986
  736POPI   C3A10299  15.391   6.244   6.855 -0.2079  0.3008  0.0670
  736POPI   C4A10300  15.677   6.620   7.005 -0.2024  0.1014 -0.1278
  736POPI   C1B10301  15.220   5.367   7.014  0.0900  0.0705  0.2596
  736POPI   C2B10302  15.314   5.436   7.352  0.4764  0.1364 -0.2633
  736POPI   C3B10303  15.380   5.521   7.856 -0.2446 -0.1562  0.0694
  736POPI   C4B10304  15.565   5.755   8.235 -0.0292  0.2262  0.2930
  737POPI    C110305  10.538   8.368   5.952  0.0368 -0.0531  0.1450
  737POPI    C210306  10.534   8.635   5.654  0.1517 -0.1080  0.0935
  737POPI    C310307  10.224   8.387   5.705 -0.0451  0.1670  0.2629
  737POPI   PO410308  10.573   8.523   6.115 -0.2042  0.1045  0.1903
  737POPI   GL110309  10.432   8.726   6.446  0.0269  0.0138  0.3409
  737POPI   GL210310  10.307   8.393   6.548 -0.0739 -0.0204  0.0702
  737POPI   C1A10311  10.517   8.677   6.880 -0.1260  0.0773  0.0971
  737POPI   D2A10312  10.446   8.490   7.198  0.1543  0.1861  0.0969
  737POPI   C3A10313  10.521   8.626   7.624 -0.5357 -0.1398 -0.2827
  737POPI   C4A10314  10.623   8.908   7.832  0.0257  0.0632 -0.1876
  737POPI   C1B10315  10.481   8.182   6.689  0.0759 -0.0651  0.0082
  737POPI   C2B10316  10.559   7.937   7.057  0.1031 -0.1261 -0.0323
  737POPI   C3B10317  10.545   7.758   7.428 -0.1316  0.4094 -0.0284
  737POPI   C4B10318  10.535   7.593   7.782  0.0625 -0.3841 -0.0710
  738POPI    C110319  15.807   7.535   5.591 -0.2017  0.0556 -0.0426
  738POPI    C210320  16.041   7.839   5.480 -0.0895 -0.0187 -0.0122
  738POPI    C310321  16.060   7.491   5.285 -0.1344 -0.0428  0.0264
  738POPI   PO410322  15.848   7.668   5.907 -0.1081 -0.0827  0.0536
  738POPI   GL110323  16.170   7.630   6.317 -0.0161  0.0563  0.0891
  738POPI   GL210324  16.517   7.796   6.478 -0.0671 -0.0768 -0.1866
  738POPI   C1A10325  15.826   7.660   6.714  0.1120  0.0503  0.4439
  738POPI   D2A10326  15.559   7.649   7.017  0.1046 -0.0803  0.0264
  738POPI   C3A10327  15.721   7.545   7.473  0.1285  0.1094 -0.0060
  738POPI   C4A10328  15.468   7.471   7.763 -0.1880 -0.2086 -0.1172
  738POPI   C1B10329  16.386   7.547   6.822 -0.0287  0.1512 -0.1313
  738POPI   C2B10330  16.120   7.522   7.115 -0.1731  0.4666 -0.2915
  738POPI   C3B10331  16.124   7.222   7.522 -0.1919  0.2196  0.1205
  738POPI   C4B10332  16.355   7.074   7.882  0.1736  0.1797 -0.3003
  739POPI    C110333  13.861  12.271   5.635 -0.0574  0.1042 -0.0000
  739POPI    C210334  13.537  12.296   5.401 -0.0890  0.0185  0.0344
  739POPI    C310335  13.878  12.474   5.291 -0.1403  0.0864 -0.0149
  739POPI   PO410336  13.788  12.404   5.938  0.0494 -0.2601  0.0515
  739POPI   GL110337  13.977  12.317   6.287  0.1701  0.0521 -0.1061
  739POPI   GL210338  14.056  12.019   6.428  0.2634  0.1423 -0.1108
  739POPI   C1A10339  14.034  12.721   6.527  0.0258  0.0269 -0.3646
  739POPI   D2A10340  14.095  12.666   7.041  0.0622  0.1357 -0.0678
  739POPI   C3A10341  14.459  12.861   6.982  0.0450 -0.0162 -0.0629
  739POPI   C4A10342  14.738  13.204   6.983 -0.1300 -0.1288 -0.1046
  739POPI   C1B10343  13.995  12.171   6.853  0.2907  0.2323 -0.0711
  739POPI   C2B10344  13.970  12.291   7.269 -0.0762 -0.2246  0.1068
  739POPI   C3B10345  13.939  12.210   7.671  0.0126  0.1844  0.0001
  739POPI   C4B10346  13.690  12.052   7.951 -0.0329  0.2026 -0.3473
  740POPI    C110347   0.199   1.647   5.328 -0.0101 -0.0596 -0.2564
  740POPI    C210348  -0.093   1.514   5.567  0.3428 -0.0721  0.1805
  740POPI    C310349  -0.030   1.341   5.212 -0.2658  0.0242  0.0153
  740POPI   PO410350   0.430   1.694   5.615  0.0143 -0.0771  0.0090
  740POPI   GL110351   0.658   1.901   6.015  0.1594 -0.1435  0.3633
  740POPI   GL210352   0.748   1.769   6.298 -0.2729  0.0821  0.3383
  740POPI   C1A10353   0.320   2.025   6.347 -0.1153 -0.0425  0.0081
  740POPI   D2A10354   0.147   2.054   6.752  0.1536  0.2782 -0.0152
  740POPI   C3A10355   0.169   2.039   7.165 -0.0126  0.3358  0.0201
  740POPI   C4A10356   0.132   1.841   7.564  0.0223  0.0482 -0.0095
  740POPI   C1B10357   0.732   2.203   6.490  0.0406  0.1336  0.3384
  740POPI   C2B10358   0.582   2.513   6.782  0.0010  0.2952 -0.1558
  740POPI   C3B10359   0.650   2.670   7.188 -0.5157  0.0073 -0.0364
  740POPI   C4B10360   0.661   2.380   7.523 -0.1190  0.1725 -0.1283
  741POPI    C110361   7.042  10.362   5.838 -0.1351 -0.3704  0.0465
  741POPI    C210362   7.037  10.403   5.440  0.0525  0.2772  0.0996
  741POPI    C310363   6.697  10.433   5.649 -0.0661 -0.1917 -0.0143
  741POPI   PO410364   7.199  10.144   5.886 -0.0376 -0.2103 -0.2501
  741POPI   GL110365   7.142   9.883   6.383 -0.1785 -0.0869 -0.1553
  741POPI   GL210366   7.197   9.488   6.423 -0.1062 -0.1997 -0.1932
  741POPI   C1A10367   7.560   9.973   6.436 -0.1773  0.0133  0.0985
  741POPI   D2A10368   7.969  10.002   6.708 -0.0821 -0.0622 -0.1671
  741POPI   C3A10369   8.140   9.675   6.848 -0.1045  0.0187  0.0931
  741POPI   C4A10370   8.465   9.451   7.069  0.1353  0.2314 -0.0017
  741POPI   C1B10371   7.266   9.685   6.837 -0.2058 -0.0278 -0.1287
  741POPI   C2B10372   7.583   9.846   7.065 -0.1058  0.0008 -0.0249
  741POPI   C3B10373   7.860   9.812   7.458 -0.0260 -0.1203 -0.1985
  741POPI   C4B10374   8.132   9.979   7.889  0.2109 -0.1168 -0.2308
  742POPS   CNO10375  14.716   6.074   5.638  0.2185 -0.4065  0.2024
  742POPS   PO410376  14.935   6.119   6.073  0.1590  0.0355 -0.1587
  742POPS   GL110377  14.706   5.862   6.454  0.1618 -0.0582  0.0605
  742POPS   GL210378  14.424   5.638   6.499  0.0568 -0.2371  0.0169
  742POPS   C1A10379  14.697   5.883   6.869  0.0364  0.0086 -0.4707
  742POPS   D2A10380  15.117   5.862   7.095 -0.0469  0.1388  0.0750
  742POPS   C3A10381  15.285   6.202   7.404  0.2403 -0.4179 -0.0551
  742POPS   C4A10382  15.439   6.631   7.599 -0.2452  0.1116 -0.2780
  742POPS   C1B10383  14.284   5.599   6.943  0.0603 -0.1760 -0.0195
  742POPS   C2B10384  14.304   5.680   7.345  0.3363  0.0463  0.0454
  742POPS   C3B10385  14.142   5.625   7.682 -0.3130 -0.0456  0.1546
  742POPS   C4B10386  13.961   5.832   8.129 -0.0713 -0.0933  0.1631
  743POPS   CNO10387   6.365   8.374   5.824  0.1229  0.1884 -0.0535
  743POPS   PO410388   5.860   8.299   5.808  0.0331 -0.0678  0.1798
  743POPS   GL110389   5.603   8.357   6.195  0.1103  0.0678  0.2216
  743POPS   GL210390   5.269   8.281   6.224 -0.0171 -0.1104 -0.4578
  743POPS   C1A10391   5.741   8.610   6.580 -0.0941  0.2720  0.1260
  743POPS   D2A10392   5.648   8.942   6.811  0.1418  0.2189 -0.1065
  743POPS   C3A10393   5.524   8.799   7.225  0.0494  0.1699  0.0577
  743POPS   C4A10394   5.292   9.018   7.612 -0.1551 -0.0089  0.0044
  743POPS   C1B10395   5.328   8.378   6.698  0.1590 -0.0082  0.1663
  743POPS   C2B10396   5.138   8.351   7.151  0.1486 -0.0150  0.2048
  743POPS   C3B10397   5.049   8.569   7.485  0.1731 -0.1121 -0.2493
  743POPS   C4B10398   4.732   8.570   7.773 -0.1530  0.1588 -0.0555
  744POPS   CNO10399   9.997   7.619   5.860  0.4000 -0.1720 -0.2059
  744POPS   PO410400  10.366   7.804   5.762 -0.0850  0.0849  0.2527
  744POPS   GL110401  10.473   7.820   6.131  0.0688 -0.1962  0.0133
  744POPS   GL210402  10.381   7.506   6.223  0.1856 -0.2651 -0.0338
  744POPS   C1A10403  10.806   7.877   6.452 -0.2039  0.0820 -0.0850
  744POPS   D2A10404  11.074   7.824   6.852 -0.2547 -0.1638  0.0520
  744POPS   C3A10405  11.025   7.815   7.231 -0.1787 -0.0297 -0.0436
  744POPS   C4A10406  10.998   7.532   7.589  0.1438 -0.0494 -0.0718
  744POPS   C1B10407  10.332   7.686   6.688 -0.1030  0.3560 -0.0511
  744POPS   C2B10408  10.225   7.597   7.101 -0.0017  0.4289  0.1791
  744POPS   C3B10409  10.096   7.593   7.523 -0.1425  0.1728  0.3837
  744POPS   C4B10410  10.014   7.446   7.959  0.0765  0.0420 -0.0871
  745POPS   CNO10411   0.855   0.891   5.275  0.0205 -0.0704  0.2426
  745POPS   PO410412   1.144   0.627   5.391 -0.2365 -0.1091 -0.0597
  745POPS   GL110413   1.149   0.569   5.939  0.1614  0.2275  0.0375
  745POPS   GL210414   1.208   0.245   6.025  0.1171  0.0997 -0.1703
  745POPS   C1A10415   0.793   0.535   6.268  0.1879  0.0739  0.0296
  745POPS   D2A10416   0.713   0.764   6.685 -0.2741  0.3536 -0.1893
  745POPS   C3A10417   0.977   0.621   7.074  0.0035  0.1746  0.0993
  745POPS   C4A10418   0.978   0.537   7.483 -0.0294  0.1127  0.0928
  745POPS   C1B10419   1.264   0.302   6.414  0.1907  0.1999  0.0955
  745POPS   C2B10420   1.116   0.174   6.748  0.0220  0.0947 -0.0160
  745POPS   C3B10421   0.893   0.146   7.139 -0.0226  0.0106  0.1432
  745POPS   C4B10422   0.836  -0.015   7.575 -0.2040  0.1727  0.0677
  746POPS   CNO10423  13.381  13.237   5.893 -0.2128  0.0368  0.4254
  746POPS   PO410424  13.039  13.298   6.149  0.2860  0.2131  0.1616
  746POPS   GL110425  13.134  13.595   6.438 -0.1648  0.0634  0.1845
  746POPS   GL210426  12.928  13.786   6.442 -0.1865 -0.1904  0.0069
  746POPS   C1A10427  13.444  13.565   6.768  0.3093 -0.2246  0.0746
  746POPS   D2A10428  13.743  13.437   7.138  0.3762 -0.1152 -0.2239
  746POPS   C3A10429  13.779  13.010   7.235  0.0643 -0.1649 -0.2800
  746POPS   C4A10430  13.923  12.754   7.511  0.1605  0.1544 -0.0033
  746POPS   C1B10431  13.159  13.945   6.823  0.0559  0.1535 -0.2077
  746POPS   C2B10432  13.396  13.875   7.171  0.0497  0.1006 -0.0016
  746POPS   C3B10433  13.556  13.814   7.591  0.1895 -0.0494  0.1824
  746POPS   C4B10434  13.378  13.934   8.094  0.0100 -0.0087  0.2985
  747POPS   CNO10435   7.136  10.852   5.101 -0.1354 -0.0446  0.0441
  747POPS   PO410436   7.387  11.076   5.389  0.0937  0.0425 -0.0649
  747POPS   GL110437   7.461  11.076   5.853  0.1191 -0.1919  0.1272
  747POPS   GL210438   7.677  11.256   6.032 -0.0706 -0.0301  0.1389
  747POPS   C1A10439   7.418  10.815   6.211  0.0526 -0.0130 -0.2373
  747POPS   D2A10440   7.275  10.399   6.324  0.2188  0.0085 -0.1730
  747POPS   C3A10441   7.155  10.309   6.695  0.1132  0.0164 -0.2784
  747POPS   C4A10442   7.207  10.109   7.191 -0.0234  0.1086  0.1318
  747POPS   C1B10443   7.484  11.231   6.454  0.1524 -0.1537  0.0054
  747POPS   C2B10444   7.032  11.283   6.546 -0.0114 -0.0491 -0.0360
  747POPS   C3B10445   6.771  11.299   6.850 -0.1859  0.1777  0.2543
  747POPS   C4B10446   6.372  11.335   7.062 -0.1058  0.0302 -0.0450
  748POPS   CNO10447   9.776   4.048   6.289 -0.0429  0.1928 -0.0857
  748POPS   PO410448   9.381   4.217   6.396 -0.0613  0.0049  0.4987
  748POPS   GL110449   9.301   4.070   6.872  0.2512 -0.1653  0.0081
  748POPS   GL210450   9.547   4.248   6.975  0.1256 -0.1234 -0.2972
  748POPS   C1A10451   9.288   3.987   7.360 -0.0210  0.2072 -0.1481
  748POPS   D2A10452   9.097   3.893   7.689  0.0092  0.1373 -0.0608
  748POPS   C3A10453   9.279   3.861   7.979 -0.0234  0.0716  0.0007
  748POPS   C4A10454   9.252   4.040   8.286  0.0443  0.0440  0.0364
  748POPS   C1B10455   9.585   4.438   7.353 -0.1194  0.0009 -0.1310
  748POPS   C2B10456   9.527   4.261   7.775 -0.0208  0.1399 -0.1338
  748POPS   C3B10457   9.708   4.266   8.188  0.0609  0.0948 -0.1956
  748POPS   C4B10458  10.082   4.154   8.447  0.0543  0.2045  0.0613
  749POPS   CNO10459   5.721  11.531   5.783 -0.1649  0.0513  0.1370
  749POPS   PO410460   5.785  11.898   5.901 -0.2118  0.1109 -0.0389
  749POPS   GL110461   5.696  12.063   6.317  0.1004 -0.2250 -0.0583
  749POPS   GL210462   5.638  12.389   6.337  0.2690 -0.2675 -0.3093
  749POPS   C1A10463   5.699  11.979   6.665 -0.0980 -0.0151  0.0173
  749POPS   D2A10464   5.478  11.753   7.051 -0.1034  0.1294 -0.0378
  749POPS   C3A10465   5.672  11.573   7.429 -0.1369  0.1430 -0.0027
  749POPS   C4A10466   5.432  11.596   7.808  0.1776 -0.1796 -0.0690
  749POPS   C1B10467   5.532  12.685   6.703 -0.3394  0.0624 -0.0197
  749POPS   C2B10468   5.705  12.679   7.104  0.1675 -0.1106  0.1988
  749POPS   C3B10469   5.734  12.913   7.543 -0.1194  0.0257  0.0580
  749POPS   C4B10470   5.628  13.279   7.598 -0.3586 -0.2679  0.2606
  750POPS   CNO10471   4.523   0.431   5.722  0.1215 -0.1642  0.1742
  750POPS   PO410472   4.909   0.629   5.839 -0.1490  0.0788 -0.0751
  750POPS   GL110473   4.844   0.382   6.269 -0.0341  0.1370  0.5399
  750POPS   GL210474   5.200   0.373   6.329  0.0301 -0.2174 -0.2914
  750POPS   C1A10475   4.927   0.213   6.706 -0.0636  0.2012 -0.0438
  750POPS   D2A10476   5.141   0.012   7.107 -0.1707  0.0040 -0.2843
  750POPS   C3A10477   4.947   0.081   7.427 -0.1235  0.0583  0.0802
  750POPS   C4A10478   4.809   0.226   7.826 -0.2187 -0.2024  0.1329
  750POPS   C1B10479   5.244   0.564   6.665 -0.1878  0.2118 -0.1188
  750POPS   C2B10480   5.143   0.549   7.121  0.1338 -0.2832  0.1317
  750POPS   C3B10481   5.207   0.619   7.490 -0.0961 -0.2918  0.0218
  750POPS   C4B10482   5.353   0.917   7.898 -0.2504  0.1951 -0.1025
  751POPS   CNO10483  11.799   8.363   5.587  0.2170  0.0744  0.4735
  751POPS   PO410484  12.153   8.254   5.761 -0.2505 -0.1531  0.3505
  751POPS   GL110485  11.973   8.267   6.121  0.0184 -0.2845  0.0413
  751POPS   GL210486  11.871   7.963   6.242 -0.1173  0.1853  0.1088
  751POPS   C1A10487  11.757   8.415   6.499 -0.1057  0.0409  0.1457
  751POPS   D2A10488  11.666   8.173   6.890 -0.2086 -0.1181  0.1313
  751POPS   C3A10489  11.397   8.143   7.056  0.1053 -0.0173 -0.1315
  751POPS   C4A10490  11.335   8.088   7.487 -0.1945 -0.0757  0.1152
  751POPS   C1B10491  12.124   7.967   6.563  0.0004  0.1798 -0.0100
  751POPS   C2B10492  12.238   7.680   6.945  0.2514  0.2833 -0.3563
  751POPS   C3B10493  12.175   7.763   7.384 -0.1284  0.1382  0.1318
  751POPS   C4B10494  12.361   7.709   7.852 -0.1369 -0.0203  0.0915
  752POPS   CNO10495  17.634  15.164   6.211  0.1053 -0.0510  0.0276
  752POPS   PO410496  17.282  15.143   6.007  0.1436  0.0210  0.3215
  752POPS   GL110497  17.089  15.453   6.322 -0.1695  0.1626 -0.4050
  752POPS   GL210498  17.037  15.768   6.397 -0.0221 -0.1638  0.0763
  752POPS   C1A10499  16.918  15.247   6.651 -0.1969 -0.0611 -0.0146
  752POPS   D2A10500  16.753  15.341   7.073 -0.1347  0.0242  0.3993
  752POPS   C3A10501  16.832  15.121   7.448  0.0933 -0.2886  0.4015
  752POPS   C4A10502  16.804  15.007   7.916  0.0333  0.0584  0.2103
  752POPS   C1B10503  17.171  15.674   6.802 -0.1526  0.1690  0.1430
  752POPS   C2B10504  17.264  15.699   7.226  0.3301 -0.1117 -0.0820
  752POPS   C3B10505  17.474  15.637   7.599 -0.2236  0.0941  0.0318
  752POPS   C4B10506  17.454  15.715   7.965  0.1828  0.0768  0.1718
  753POPS   CNO10507   6.854   9.123   5.557 -0.3324  0.0887  0.0563
  753POPS   PO410508   6.715   9.546   5.503  0.3237  0.1219  0.0936
  753POPS   GL110509   6.496   9.647   5.853 -0.0332  0.0916  0.0233
  753POPS   GL210510   6.545  10.001   5.915  0.2422 -0.2473  0.3604
  753POPS   C1A10511   6.357   9.537   6.234 -0.1082 -0.0105  0.0218
  753POPS   D2A10512   6.298   9.560   6.683  0.0109  0.0241 -0.1522
  753POPS   C3A10513   6.431   9.433   7.089 -0.0455 -0.4761  0.1347
  753POPS   C4A10514   6.580   9.552   7.539  0.0295 -0.0700 -0.0699
  753POPS   C1B10515   6.378  10.327   6.060  0.3673  0.2551 -0.1446
  753POPS   C2B10516   6.317  10.526   6.502  0.0448 -0.3134  0.1458
  753POPS   C3B10517   6.478  10.443   6.933 -0.0403  0.1750 -0.1649
  753POPS   C4B10518   6.709  10.407   7.294  0.1208 -0.3285 -0.0875
  754POPS   CNO10519  12.646   7.061   6.238 -0.0487 -0.0977 -0.0359
  754POPS   PO410520  12.388   6.705   5.935 -0.0123  0.0141  0.2821
  754POPS   GL110521  12.257   6.707   6.290  0.0140 -0.1685 -0.1719
  754POPS   GL210522  12.435   6.463   6.352 -0.1106 -0.0250 -0.3596
  754POPS   C1A10523  11.927   6.834   6.553 -0.1297  0.0232 -0.0335
  754POPS   D2A10524  11.941   6.706   6.975  0.1020  0.0437  0.0332
  754POPS   C3A10525  11.533   6.675   7.228 -0.0340  0.0031 -0.4205
  754POPS   C4A10526  11.106   6.553   7.194 -0.2928 -0.0200 -0.0034
  754POPS   C1B10527  12.021   6.260   6.447 -0.1555 -0.0090 -0.1272
  754POPS   C2B10528  11.652   6.454   6.568  0.2411  0.1211  0.1252
  754POPS   C3B10529  11.271   6.433   6.638  0.0574 -0.1819 -0.3476
  754POPS   C4B10530  10.906   6.240   6.755 -0.1819  0.1390 -0.1187
  755POPS   CNO10531  13.780  14.644   5.849 -0.2752  0.1228  0.3519
  755POPS   PO410532  13.872  15.068   5.837 -0.2722 -0.0571 -0.0777
  755POPS   GL110533  14.051  14.961   6.151  0.2544 -0.3397 -0.1548
  755POPS   GL210534  14.231  14.744   6.048 -0.0743  0.1373 -0.2460
  755POPS   C1A10535  13.928  14.844   6.519  0.1925 -0.4532 -0.1327
  755POPS   D2A10536  13.787  14.816   6.849  0.0319  0.1535  0.2116
  755POPS   C3A10537  13.712  14.753   7.316  0.0272  0.0804  0.3523
  755POPS   C4A10538  13.387  14.872   7.517  0.0947 -0.1854  0.1451
  755POPS   C1B10539  14.402  14.707   6.490 -0.2587 -0.0569 -0.1589
  755POPS   C2B10540  14.306  14.661   6.871 -0.1548  0.0195 -0.0514
  755POPS   C3B10541  14.185  14.628   7.180  0.0322 -0.1364 -0.1075
  755POPS   C4B10542  14.166  14.589   7.617 -0.1502  0.2025  0.0196
  756POPS   CNO10543   9.732  14.707   5.814 -0.0821  0.0296 -0.1305
  756POPS   PO410544   9.439  15.114   5.700 -0.1936 -0.0554 -0.0440
  756POPS   GL110545   9.554  15.087   6.150  0.0941 -0.2059 -0.1813
  756POPS   GL210546   9.912  15.110   6.071 -0.0199  0.0007 -0.0699
  756POPS   C1A10547   9.255  15.014   6.509  0.0218 -0.1516  0.2560
  756POPS   D2A10548   9.132  14.789   6.834 -0.1541  0.1090 -0.0451
  756POPS   C3A10549   9.132  14.972   7.177 -0.0818  0.2384 -0.0620
  756POPS   C4A10550   9.272  14.809   7.504 -0.0522  0.1579 -0.1951
  756POPS   C1B10551   9.894  15.013   6.472  0.1592 -0.1360  0.2346
  756POPS   C2B10552  10.027  14.958   6.985  0.0801 -0.1356  0.1622
  756POPS   C3B10553  10.089  15.063   7.409  0.0302 -0.2370  0.0986
  756POPS   C4B10554  10.060  15.366   7.699 -0.1014  0.0047 -0.4221
  757POPS   CNO10555  14.553   7.771   6.182 -0.0632 -0.0876  0.0448
  757POPS   PO410556  14.379   8.205   6.116  0.0111  0.2030  0.2864
  757POPS   GL110557  14.065   8.090   6.321 -0.1324  0.1683 -0.0321
  757POPS   GL210558  14.139   8.323   6.589 -0.1148  0.0097 -0.2109
  757POPS   C1A10559  13.774   7.992   6.690 -0.0756 -0.0366 -0.1552
  757POPS   D2A10560  13.737   7.612   6.837 -0.0831  0.2499  0.0037
  757POPS   C3A10561  13.631   7.597   7.233 -0.2254 -0.2013  0.0716
  757POPS   C4A10562  13.562   7.629   7.746  0.0784 -0.0396  0.0198
  757POPS   C1B10563  14.227   8.342   6.924  0.0861 -0.3388 -0.0047
  757POPS   C2B10564  14.451   8.412   7.216 -0.0629 -0.4437  0.4878
  757POPS   C3B10565  14.430   8.302   7.596  0.2163  0.2182  0.0791
  757POPS   C4B10566  14.199   8.157   8.018  0.1155 -0.1139  0.3869
  758POPS   CNO10567   4.691  16.338   5.759  0.1096 -0.1273 -0.1360
  758POPS   PO410568   5.065  16.328   5.955 -0.1219  0.1400 -0.3343
  758POPS   GL110569   5.168  16.346   6.379 -0.2036  0.1449 -0.0552
  758POPS   GL210570   5.154  16.631   6.479  0.0112 -0.1236 -0.1608
  758POPS   C1A10571   5.144  16.106   6.747  0.0614  0.0567  0.1895
  758POPS   D2A10572   4.998  15.917   7.053 -0.2168 -0.0003  0.3237
  758POPS   C3A10573   5.281  15.839   7.241  0.3369  0.0055  0.2861
  758POPS   C4A10574   5.348  15.670   7.692  0.1078  0.1988 -0.0714
  758POPS   C1B10575   4.983  16.569   6.835  0.0029 -0.0430  0.1362
  758POPS   C2B10576   5.025  16.413   7.277  0.0908 -0.0003  0.2120
  758POPS   C3B10577   4.994  16.600   7.746  0.1926 -0.1112 -0.0006
  758POPS   C4B10578   5.082  16.693   8.159 -0.1173  0.0345  0.0564
  759POPS   CNO10579   5.176   6.399   6.176  0.2336 -0.3617  0.0630
  759POPS   PO410580   4.781   6.371   5.963 -0.0059  0.1352 -0.1184
  759POPS   GL110581   4.774   6.179   6.401 -0.0577  0.1536 -0.1537
  759POPS   GL210582   4.759   5.854   6.511  0.0623 -0.1211 -0.0995
  759POPS   C1A10583   4.796   6.256   6.858 -0.0650 -0.0415  0.0863
  759POPS   D2A10584   4.655   6.253   7.242 -0.1182  0.0992  0.1187
  759POPS   C3A10585   4.445   6.463   7.468  0.1023  0.1676 -0.2242
  759POPS   C4A10586   4.373   6.619   7.857 -0.0904  0.3910  0.0071
  759POPS   C1B10587   4.536   5.859   6.972 -0.1228  0.3192  0.1235
  759POPS   C2B10588   4.433   5.880   7.456 -0.3106 -0.1330  0.0591
  759POPS   C3B10589   4.609   5.829   7.900 -0.0099 -0.1009  0.1307
  759POPS   C4B10590   4.941   5.730   8.010 -0.2592  0.0224  0.3198
  760POPS   CNO10591   6.533   6.633   6.222  0.1127 -0.1124  0.1312
  760POPS   PO410592   6.370   7.044   6.292  0.3502  0.4787  0.2369
  760POPS   GL110593   6.560   6.989   6.635 -0.1710 -0.2859 -0.1718
  760POPS   GL210594   6.756   6.754   6.726  0.0316  0.1148 -0.0455
  760POPS   C1A10595   6.606   7.006   7.124 -0.1346  0.0571 -0.2041
  760POPS   D2A10596   6.354   6.936   7.444 -0.2558 -0.2109  0.2529
  760POPS   C3A10597   6.370   7.082   7.900 -0.1656 -0.4364 -0.0099
  760POPS   C4A10598   6.297   7.311   8.145  0.1280 -0.1261 -0.0541
  760POPS   C1B10599   6.594   6.463   7.092 -0.1830  0.0938 -0.0238
  760POPS   C2B10600   6.470   6.457   7.564  0.1407 -0.0666 -0.0595
  760POPS   C3B10601   6.431   6.601   7.947  0.0317  0.2530 -0.3655
  760POPS   C4B10602   6.201   6.682   8.288 -0.1285 -0.0013 -0.1055
  761POPS   CNO10603  12.671   4.001   5.701 -0.1115  0.0964 -0.1363
  761POPS   PO410604  12.794   4.036   6.078 -0.2053  0.0976 -0.3818
  761POPS   GL110605  12.688   4.212   6.493 -0.2210 -0.0694  0.0275
  761POPS   GL210606  12.824   4.393   6.682  0.0005 -0.2418 -0.0800
  761POPS   C1A10607  12.490   4.098   6.858  0.3265  0.2410 -0.0442
  761POPS   D2A10608  12.509   4.071   7.276  0.0299 -0.1429 -0.0159
  761POPS   C3A10609  12.211   4.370   7.310 -0.0390  0.1853 -0.3166
  761POPS   C4A10610  11.772   4.529   7.396  0.1012  0.3099 -0.2269
  761POPS   C1B10611  12.888   4.357   7.144 -0.1061 -0.3430  0.2093
  761POPS   C2B10612  12.843   4.368   7.503  0.2360  0.2702  0.0416
  761POPS   C3B10613  12.865   4.545   7.934  0.1578 -0.3173 -0.0237
  761POPS   C4B10614  12.998   4.975   8.141  0.0417 -0.2348  0.0162
  762POPS   CNO10615   9.181  10.833   6.191 -0.1145 -0.0140 -0.0016
  762POPS   PO410616   9.127  11.259   6.071  0.0746 -0.0494  0.0741
  762POPS   GL110617   9.250  11.214   6.456 -0.2973 -0.3503 -0.1127
  762POPS   GL210618   9.403  11.495   6.662 -0.1661 -0.1954  0.2048
  762POPS   C1A10619   9.041  11.030   6.813  0.3955  0.2524  0.0636
  762POPS   D2A10620   9.049  10.716   7.131  0.3609 -0.1545  0.0027
  762POPS   C3A10621   8.965  10.768   7.564  0.1296 -0.1051 -0.2468
  762POPS   C4A10622   8.689  10.981   7.995 -0.0206  0.1472 -0.1243
  762POPS   C1B10623   9.156  11.492   6.933  0.1841 -0.1258 -0.2173
  762POPS   C2B10624   9.278  11.269   7.297 -0.1820  0.0761 -0.1054
  762POPS   C3B10625   9.400  10.964   7.674 -0.0597 -0.0121  0.0681
  762POPS   C4B10626   9.390  10.518   7.554  0.0860  0.1604  0.0783
  763POPS   CNO10627   3.026  17.704   5.281 -0.3183  0.1277  0.0131
  763POPS   PO410628   3.134  17.539   5.710  0.1295 -0.2530  0.1039
  763POPS   GL110629   3.211  17.448   6.134  0.1098  0.0923  0.2925
  763POPS   GL210630   3.404  17.660   6.173  0.0842 -0.0819  0.0309
  763POPS   C1A10631   3.090  17.621   6.580 -0.1215 -0.5283  0.1392
  763POPS   D2A10632   3.105  17.665   6.912 -0.1244  0.0376 -0.1694
  763POPS   C3A10633   3.293  17.673   7.399  0.2065  0.1030  0.2281
  763POPS   C4A10634   3.090  17.794   7.782 -0.0715  0.2685 -0.0270
  763POPS   C1B10635   3.566  17.834   6.597  0.2775 -0.1570  0.2452
  763POPS   C2B10636   3.663  17.982   7.009  0.0165 -0.0586  0.4961
  763POPS   C3B10637   3.581  18.116   7.380  0.0645  0.0243 -0.2478
  763POPS   C4B10638   3.478  18.447   7.672 -0.2002  0.1821  0.0247
  764POPS   CNO10639  15.812  16.612   5.620 -0.0431  0.1750 -0.1495
  764POPS   PO410640  15.643  16.657   6.015  0.1959 -0.1179  0.2169
  764POPS   GL110641  15.833  16.879   6.276 -0.0397 -0.0882  0.2116
  764POPS   GL210642  15.786  16.680   6.518 -0.0380  0.0611  0.1938
  764POPS   C1A10643  16.031  17.092   6.587 -0.1344  0.0084  0.0589
  764POPS   D2A10644  15.794  17.284   6.840  0.1258 -0.0532  0.4972
  764POPS   C3A10645  15.855  16.918   7.190  0.0087 -0.1630 -0.0387
  764POPS   C4A10646  15.597  16.786   7.478  0.2481  0.0633 -0.1014
  764POPS   C1B10647  15.710  16.494   6.870 -0.1221 -0.1351  0.1814
  764POPS   C2B10648  15.765  16.320   7.254 -0.1783 -0.1098  0.0391
  764POPS   C3B10649  15.872  16.207   7.647 -0.3242 -0.6040  0.1958
  764POPS   C4B10650  16.038  16.107   7.984  0.0063  0.1095  0.1641
  765POPS   CNO10651   2.169   7.335   5.824  0.1475  0.1098  0.0145
  765POPS   PO410652   1.882   7.040   5.832 -0.1236 -0.1180 -0.1125
  765POPS   GL110653   1.755   7.181   6.150 -0.2487 -0.2142  0.0598
  765POPS   GL210654   1.376   7.327   6.216  0.0405 -0.0006  0.0299
  765POPS   C1A10655   1.849   7.558   6.366 -0.2757 -0.1111  0.1911
  765POPS   D2A10656   1.624   7.815   6.788 -0.1460  0.3108 -0.0515
  765POPS   C3A10657   1.675   7.973   7.238 -0.1901  0.3355  0.0761
  765POPS   C4A10658   1.905   8.147   7.466 -0.2248  0.0913 -0.2882
  765POPS   C1B10659   1.328   7.482   6.555  0.1123  0.1466  0.2725
  765POPS   C2B10660   1.290   7.451   6.999 -0.0841 -0.1540 -0.0844
  765POPS   C3B10661   1.324   7.318   7.452 -0.1702 -0.0931  0.1492
  765POPS   C4B10662   1.083   7.439   7.876  0.1811  0.0679  0.2116
  766POPS   CNO10663   1.901   6.229   5.278  0.0064  0.1937 -0.0258
  766POPS   PO410664   1.854   5.859   5.571  0.1580 -0.0655  0.3159
  766POPS   GL110665   2.220   5.711   5.781  0.1023  0.0050 -0.3270
  766POPS   GL210666   2.261   5.930   5.985  0.3303  0.0929  0.2779
  766POPS   C1A10667   2.489   5.431   6.083  0.1132 -0.1244  0.2187
  766POPS   D2A10668   2.681   5.405   6.535 -0.1093 -0.2741 -0.0227
  766POPS   C3A10669   2.480   5.361   6.949  0.2234 -0.1336  0.3363
  766POPS   C4A10670   2.462   5.373   7.362 -0.1710  0.1600 -0.0386
  766POPS   C1B10671   2.011   5.884   6.423 -0.1989 -0.0489  0.4775
  766POPS   C2B10672   1.858   5.843   6.853 -0.1135  0.2820  0.1051
  766POPS   C3B10673   1.702   6.092   7.268  0.0003 -0.1839  0.0257
  766POPS   C4B10674   1.483   6.330   7.591 -0.0598 -0.0681  0.1376
  767POPS   CNO10675  15.716  16.195   5.827 -0.2075 -0.0609 -0.1053
  767POPS   PO410676  15.469  16.022   6.114  0.0007  0.1524 -0.2180
  767POPS   GL110677  15.641  16.185   6.389  0.3233 -0.0776  0.2107
  767POPS   GL210678  15.969  16.247   6.370  0.1668 -0.0230  0.0047
  767POPS   C1A10679  15.791  15.962   6.764  0.2737  0.3013  0.0534
  767POPS   D2A10680  15.856  15.830   7.281 -0.0787  0.0318  0.0476
  767POPS   C3A10681  15.844  15.706   7.724 -0.1856 -0.3069 -0.0363
  767POPS   C4A10682  16.177  15.556   7.948 -0.4029  0.0359  0.1019
  767POPS   C1B10683  16.183  16.311   6.697 -0.0507 -0.0508  0.1673
  767POPS   C2B10684  16.222  16.173   7.094 -0.0608  0.1030  0.1657
  767POPS   C3B10685  16.319  16.001   7.503 -0.1074  0.0684  0.0779
  767POPS   C4B10686  16.399  16.351   7.764 -0.1937  0.2062 -0.0752
  768POPS   CNO10687   9.556   6.789   6.105 -0.0589 -0.0200  0.0170
  768POPS   PO410688   9.084   7.059   6.147 -0.3535 -0.0429 -0.1610
  768POPS   GL110689   9.269   7.150   6.517  0.3973  0.1358  0.2840
  768POPS   GL210690   8.987   6.854   6.640  0.1647  0.2598  0.2208
  768POPS   C1A10691   9.262   7.502   6.729 -0.1443  0.0924 -0.0938
  768POPS   D2A10692   9.169   7.576   7.201 -0.1202 -0.0185  0.1474
  768POPS   C3A10693   8.809   7.369   7.203 -0.0341  0.3060  0.0492
  768POPS   C4A10694   8.480   7.220   6.964  0.1959 -0.1050  0.1024
  768POPS   C1B10695   9.117   7.036   7.011  0.0155  0.0849 -0.1846
  768POPS   C2B10696   9.254   7.179   7.520 -0.1298 -0.1746  0.0385
  768POPS   C3B10697   9.371   7.210   7.979 -0.1347 -0.0963  0.1067
  768POPS   C4B10698   9.149   7.520   8.217 -0.1573 -0.0160  0.1248
  769POPS   CNO10699   4.526   6.692   5.677 -0.3034  0.0461 -0.0333
  769POPS   PO410700   4.322   7.079   5.813  0.0954  0.0212 -0.1653
  769POPS   GL110701   4.139   7.024   6.255  0.0244 -0.2324 -0.2070
  769POPS   GL210702   4.475   7.153   6.313 -0.0813 -0.0736 -0.0609
  769POPS   C1A10703   3.910   7.059   6.580 -0.0707  0.0753  0.0478
  769POPS   D2A10704   3.789   7.189   6.932  0.2732  0.0068 -0.0622
  769POPS   C3A10705   4.202   7.379   7.214 -0.1404 -0.0586 -0.0281
  769POPS   C4A10706   4.306   7.583   7.545  0.1046 -0.0235 -0.1674
  769POPS   C1B10707   4.390   7.149   6.748  0.0246 -0.1891  0.1789
  769POPS   C2B10708   4.167   6.894   7.119  0.0454 -0.3586 -0.2586
  769POPS   C3B10709   3.901   6.705   7.463  0.1074 -0.1975  0.0324
  769POPS   C4B10710   3.871   6.424   7.938  0.1608 -0.1156 -0.2738
  770POPS   CNO10711   9.448  17.520   5.841 -0.1152  0.2160  0.1809
  770POPS   PO410712   9.362  17.256   6.208  0.1911 -0.2746 -0.2802
  770POPS   GL110713   9.305  17.350   6.614 -0.0343  0.2620 -0.1234
  770POPS   GL210714   9.123  17.602   6.610  0.0588 -0.2912  0.0954
  770POPS   C1A10715   9.398  17.169   7.050 -0.0457 -0.0603 -0.2018
  770POPS   D2A10716   9.325  17.157   7.482  0.0503  0.2796  0.2810
  770POPS   C3A10717   9.594  17.064   7.836  0.0541 -0.1573  0.2170
  770POPS   C4A10718   9.689  17.189   8.301  0.0416  0.0535  0.0313
  770POPS   C1B10719   8.866  17.454   6.916 -0.1182 -0.1211 -0.0860
  770POPS   C2B10720   8.928  17.491   7.417  0.1206  0.1761  0.2938
  770POPS   C3B10721   9.018  17.431   7.845 -0.1045  0.1746  0.0315
  770POPS   C4B10722   8.939  17.761   8.007  0.0559 -0.1040  0.1765
  771POPS   CNO10723  16.416   7.130   5.549  0.2585  0.0419  0.2804
  771POPS   PO410724  16.740   7.210   5.706 -0.1737 -0.2128 -0.2149
  771POPS   GL110725  16.485   7.238   6.143  0.1608 -0.0519 -0.2711
  771POPS   GL210726  16.698   7.199   6.472 -0.0355 -0.2530 -0.5148
  771POPS   C1A10727  16.210   7.109   6.383 -0.2720  0.1925 -0.0928
  771POPS   D2A10728  16.110   6.644   6.443 -0.3293  0.1665 -0.0369
  771POPS   C3A10729  16.186   6.527   6.821 -0.2543  0.1125 -0.0177
  771POPS   C4A10730  16.400   6.339   7.166  0.1240  0.0339  0.2505
  771POPS   C1B10731  16.987   7.097   6.854 -0.3612 -0.1141  0.0698
  771POPS   C2B10732  17.019   6.918   7.330  0.0033  0.0465  0.0525
  771POPS   C3B10733  16.917   6.826   7.734  0.1584  0.0040 -0.1295
  771POPS   C4B10734  16.673   6.634   8.101 -0.1226  0.0143 -0.1026
  772POPS   CNO10735  11.783   1.632   6.614  0.2909  0.3160 -0.1039
  772POPS   PO410736  12.103   1.345   6.303 -0.1053 -0.3544  0.1881
  772POPS   GL110737  12.266   1.541   6.609  0.1714 -0.0397 -0.1478
  772POPS   GL210738  12.350   1.787   6.554  0.1828  0.1642 -0.1567
  772POPS   C1A10739  12.038   1.575   7.069  0.0007 -0.0578 -0.0133
  772POPS   D2A10740  12.182   1.681   7.469  0.0248  0.0803  0.0179
  772POPS   C3A10741  12.356   1.956   7.681  0.3122  0.2322  0.0771
  772POPS   C4A10742  12.508   2.069   8.045  0.1268 -0.2180  0.0137
  772POPS   C1B10743  12.502   2.164   6.642  0.0870 -0.0231 -0.0149
  772POPS   C2B10744  12.655   2.480   6.867  0.2301 -0.2859  0.3025
  772POPS   C3B10745  13.051   2.765   7.102 -0.1597  0.0338  0.0768
  772POPS   C4B10746  13.088   2.794   7.550  0.0049  0.0765 -0.0500
  773POPS   CNO10747  11.585  12.263   5.822  0.0522 -0.0479  0.1317
  773POPS   PO410748  11.266  12.547   5.749 -0.1616  0.2198 -0.0117
  773POPS   GL110749  11.528  12.660   6.206 -0.0971  0.1167 -0.0709
  773POPS   GL210750  11.330  12.728   6.360 -0.1154  0.1505 -0.0516
  773POPS   C1A10751  11.687  12.849   6.658  0.1350 -0.3212 -0.1380
  773POPS   D2A10752  11.633  12.813   7.017  0.0791  0.2481 -0.2816
  773POPS   C3A10753  11.647  13.110   7.252  0.1532  0.0811 -0.0470
  773POPS   C4A10754  11.632  13.409   7.585  0.3498  0.2482  0.0391
  773POPS   C1B10755  11.171  12.701   6.729 -0.0039  0.1533  0.1021
  773POPS   C2B10756  11.130  12.696   7.135  0.1506 -0.1939  0.0579
  773POPS   C3B10757  11.391  12.740   7.509 -0.0738  0.0694  0.1499
  773POPS   C4B10758  11.252  12.915   7.879 -0.4753  0.2218  0.0555
  774POPS   CNO10759  17.363  10.919   5.518 -0.3970 -0.2284 -0.0314
  774POPS   PO410760  17.479  10.937   5.936  0.0672 -0.1091 -0.1973
  774POPS   GL110761  17.296  10.890   6.328  0.0748 -0.2234 -0.2263
  774POPS   GL210762  16.906  10.733   6.300  0.0046 -0.1049  0.2453
  774POPS   C1A10763  17.237  11.017   6.725  0.1220 -0.0549 -0.6210
  774POPS   D2A10764  17.184  11.090   7.140 -0.3611 -0.1642  0.0469
  774POPS   C3A10765  17.160  11.385   7.480  0.0275  0.5228  0.0246
  774POPS   C4A10766  17.441  11.394   7.861 -0.1110 -0.1751 -0.2024
  774POPS   C1B10767  16.748  10.787   6.675 -0.0182 -0.0603  0.0706
  774POPS   C2B10768  16.867  10.779   7.046  0.4125  0.1642 -0.2247
  774POPS   C3B10769  16.891  10.874   7.496  0.1699 -0.1517  0.2342
  774POPS   C4B10770  16.768  10.850   7.977  0.1191  0.1082 -0.1425
  775POPS   CNO10771  16.924   5.062   5.856 -0.0854  0.0979  0.0424
  775POPS   PO410772  17.225   5.326   5.914  0.0018 -0.1527 -0.0652
  775POPS   GL110773  17.538   5.558   6.272  0.0110  0.3109  0.1607
  775POPS   GL210774  17.688   5.197   6.299 -0.0830 -0.1716  0.0100
  775POPS   C1A10775  17.643   5.734   6.687  0.0109 -0.0184  0.3238
  775POPS   D2A10776  17.795   5.587   7.010 -0.2964 -0.1076  0.0301
  775POPS   C3A10777  17.692   5.596   7.443  0.0754  0.1064 -0.0421
  775POPS   C4A10778  17.548   5.480   7.896 -0.3434  0.1081 -0.0434
  775POPS   C1B10779  17.825   5.091   6.712 -0.0781  0.1601 -0.0439
  775POPS   C2B10780  17.971   5.020   7.152  0.0180  0.3318  0.1645
  775POPS   C3B10781  18.151   5.011   7.511  0.2381 -0.0506  0.1779
  775POPS   C4B10782  17.996   5.403   7.791  0.1525  0.0916  0.0756
  776POPS   CNO10783  12.374  18.006   6.288 -0.1259  0.1159 -0.1245
  776POPS   PO410784  12.147  17.732   6.082  0.4410  0.1222  0.1019
  776POPS   GL110785  11.996  17.705   6.506  0.0045 -0.1451  0.2011
  776POPS   GL210786  12.014  17.953   6.667  0.1559 -0.0826 -0.1370
  776POPS   C1A10787  12.038  17.448   6.976  0.4077  0.0154 -0.1261
  776POPS   D2A10788  12.147  17.224   7.320  0.0149 -0.0032 -0.0552
  776POPS   C3A10789  12.430  17.074   7.254 -0.1197  0.0310  0.1394
  776POPS   C4A10790  12.531  16.661   7.211 -0.0672 -0.1575  0.0833
  776POPS   C1B10791  12.186  17.889   7.068  0.2783  0.0495 -0.1854
  776POPS   C2B10792  12.308  17.718   7.374 -0.0630 -0.2145 -0.3706
  776POPS   C3B10793  12.592  17.466   7.513  0.1059 -0.1199 -0.1397
  776POPS   C4B10794  12.792  17.068   7.671  0.0586 -0.0002  0.1027
  777POPS   CNO10795  13.654   5.731   6.065  0.0934 -0.0115  0.0207
  777POPS   PO410796  13.278   5.536   6.105 -0.2484 -0.2720 -0.0589
  777POPS   GL110797  12.985   5.383   6.565  0.0100  0.1510 -0.0398
  777POPS   GL210798  13.078   5.255   6.759  0.1188 -0.2544  0.0919
  777POPS   C1A10799  12.707   5.465   7.049 -0.1539 -0.1398  0.0305
  777POPS   D2A10800  12.688   5.564   7.493  0.1062  0.2983  0.3070
  777POPS   C3A10801  12.525   5.892   7.782 -0.0794  0.1576 -0.3701
  777POPS   C4A10802  12.471   5.888   8.279 -0.1817 -0.0119  0.0659
  777POPS   C1B10803  13.187   5.328   7.196  0.2664 -0.1275  0.0286
  777POPS   C2B10804  13.099   5.262   7.653 -0.0531  0.1379  0.2408
  777POPS   C3B10805  13.288   5.406   8.101  0.0969 -0.1095 -0.2493
  777POPS   C4B10806  13.437   5.600   8.476  0.0853  0.1010 -0.0087
  778POPS   CNO10807  16.874  12.780   5.888  0.0575  0.2375 -0.1804
  778POPS   PO410808  16.428  12.619   5.951 -0.0223 -0.0568  0.1285
  778POPS   GL110809  16.385  12.539   6.336 -0.0371  0.1889  0.0037
  778POPS   GL210810  16.370  12.234   6.521  0.1364 -0.2832  0.3007
  778POPS   C1A10811  16.548  12.640   6.734  0.1657  0.1264 -0.0169
  778POPS   D2A10812  16.554  12.740   7.185 -0.0146 -0.1440  0.3906
  778POPS   C3A10813  16.424  12.945   7.548 -0.2431 -0.2678 -0.2578
  778POPS   C4A10814  16.413  12.806   8.046 -0.0434  0.0072 -0.1350
  778POPS   C1B10815  16.373  12.191   6.947  0.2635  0.0923 -0.0334
  778POPS   C2B10816  16.383  12.271   7.363 -0.1481 -0.1028  0.3743
  778POPS   C3B10817  16.421  12.088   7.768  0.2659 -0.3847  0.0575
  778POPS   C4B10818  16.404  12.085   8.180 -0.1857 -0.2440 -0.3546
  779POPS   CNO10819  14.004  10.422   5.821  0.1300 -0.2167  0.2125
  779POPS   PO410820  13.752  10.807   5.973  0.0920 -0.0933 -0.0152
  779POPS   GL110821  13.964  10.588   6.306  0.0199 -0.2060  0.1046
  779POPS   GL210822  14.243  10.592   6.215  0.1745 -0.3487 -0.1663
  779POPS   C1A10823  14.074  10.401   6.629 -0.3023 -0.4985  0.0307
  779POPS   D2A10824  14.221  10.156   6.930  0.0917 -0.1777 -0.1816
  779POPS   C3A10825  14.233  10.352   7.311  0.0701  0.1313 -0.1302
  779POPS   C4A10826  14.093  10.523   7.646  0.1836  0.2033 -0.0269
  779POPS   C1B10827  14.580  10.463   6.570  0.1421 -0.0730 -0.1817
  779POPS   C2B10828  14.656  10.403   6.944 -0.0542 -0.1232  0.0410
  779POPS   C3B10829  14.694  10.483   7.322 -0.0240 -0.2402  0.0556
  779POPS   C4B10830  14.598  10.461   7.789 -0.1221 -0.0553  0.2081
  780POPS   CNO10831   8.960  12.564   5.828 -0.0352 -0.2440  0.1725
  780POPS   PO410832   8.920  12.203   6.067 -0.2242 -0.1765  0.0317
  780POPS   GL110833   9.104  12.354   6.509 -0.2406 -0.0670  0.2890
  780POPS   GL210834   9.358  12.512   6.564  0.1030  0.0466  0.3355
  780POPS   C1A10835   8.994  12.381   6.949  0.1768 -0.0075 -0.1351
  780POPS   D2A10836   9.042  12.580   7.264  0.0653  0.2920 -0.2943
  780POPS   C3A10837   8.967  12.361   7.632 -0.2826 -0.1044  0.2693
  780POPS   C4A10838   8.933  12.478   8.072  0.0323  0.1429  0.1241
  780POPS   C1B10839   9.461  12.706   6.935 -0.2268  0.1347  0.0156
  780POPS   C2B10840   9.555  12.685   7.327 -0.0732  0.2444 -0.4619
  780POPS   C3B10841   9.830  12.705   7.684  0.0875  0.2275 -0.0063
  780POPS   C4B10842   9.990  12.350   7.967  0.0645  0.0896 -0.0793
  781POPS   CNO10843   7.008   4.259   5.626 -0.1831 -0.2420  0.0953
  781POPS   PO410844   7.172   4.306   6.043 -0.0897  0.0565  0.2702
  781POPS   GL110845   7.024   4.575   6.431 -0.2933 -0.1455 -0.2479
  781POPS   GL210846   7.088   4.870   6.478  0.2388  0.0731  0.0938
  781POPS   C1A10847   6.971   4.450   6.826 -0.3109 -0.0221 -0.0084
  781POPS   D2A10848   6.679   4.491   7.194  0.2028 -0.2663 -0.0124
  781POPS   C3A10849   6.484   4.325   7.628 -0.0991 -0.1599  0.4022
  781POPS   C4A10850   6.647   4.134   8.064 -0.2269  0.2937 -0.0744
  781POPS   C1B10851   7.308   5.117   6.805  0.2283  0.0411 -0.2315
  781POPS   C2B10852   7.352   5.120   7.235 -0.0720 -0.0856  0.1116
  781POPS   C3B10853   7.259   5.238   7.687  0.1659 -0.0593 -0.0924
  781POPS   C4B10854   7.085   5.102   8.036 -0.2553  0.0117 -0.1703
  782POPS   CNO10855  12.995   2.843   6.142  0.2175 -0.2606 -0.0302
  782POPS   PO410856  12.815   3.174   5.981 -0.1115  0.0751 -0.1687
  782POPS   GL110857  12.761   3.159   6.475  0.1147  0.0460 -0.1451
  782POPS   GL210858  12.950   3.283   6.658  0.1818  0.1046  0.2697
  782POPS   C1A10859  12.528   3.025   6.912 -0.2719 -0.0161  0.2562
  782POPS   D2A10860  12.614   2.829   7.322  0.1493  0.0380  0.0090
  782POPS   C3A10861  12.576   2.341   7.366 -0.2707  0.1003  0.2240
  782POPS   C4A10862  12.393   2.009   7.081 -0.0995 -0.4290  0.0570
  782POPS   C1B10863  12.917   3.224   7.123  0.4901  0.0809  0.2421
  782POPS   C2B10864  12.692   3.217   7.550  0.1092 -0.0913 -0.0392
  782POPS   C3B10865  12.507   2.989   7.962  0.2277  0.1802 -0.0877
  782POPS   C4B10866  12.442   2.646   8.261  0.1092 -0.0911 -0.1567
  783POPS   CNO10867  14.327   6.222   6.210 -0.1066  0.1098 -0.3839
  783POPS   PO410868  14.120   5.974   6.106 -0.3382 -0.1713 -0.0221
  783POPS   GL110869  13.915   5.956   6.488  0.1368  0.1166 -0.3160
  783POPS   GL210870  14.188   6.035   6.660  0.1716 -0.2447  0.0214
  783POPS   C1A10871  13.576   6.130   6.850  0.2814 -0.0228 -0.1582
  783POPS   D2A10872  13.540   6.158   7.307 -0.5369  0.1560 -0.0614
  783POPS   C3A10873  13.204   6.247   7.598 -0.1976 -0.3465 -0.2942
  783POPS   C4A10874  13.204   6.308   8.006  0.0064 -0.1166 -0.3342
  783POPS   C1B10875  14.014   6.042   7.100 -0.0049 -0.2358  0.2879
  783POPS   C2B10876  14.124   6.141   7.537  0.3776  0.3948 -0.1864
  783POPS   C3B10877  14.115   6.303   7.995 -0.1842  0.0619  0.0099
  783POPS   C4B10878  14.253   6.255   8.355  0.0592 -0.1602 -0.0325
  784POPS   CNO10879   1.650  14.813   5.965 -0.2596 -0.0238 -0.0595
  784POPS   PO410880   1.316  14.929   5.871 -0.0110 -0.1001  0.0852
  784POPS   GL110881   1.300  15.031   6.309 -0.0288 -0.1724 -0.0457
  784POPS   GL210882   1.195  15.316   6.449  0.3441  0.3938  0.0024
  784POPS   C1A10883   1.122  14.877   6.728  0.0226 -0.2751 -0.0246
  784POPS   D2A10884   1.094  14.985   7.137  0.2133  0.0600  0.0039
  784POPS   C3A10885   1.019  15.319   7.424 -0.2713  0.0454  0.3126
  784POPS   C4A10886   1.289  15.630   7.627  0.0998  0.1895 -0.0463
  784POPS   C1B10887   1.373  15.419   6.807  0.4625  0.1868  0.0070
  784POPS   C2B10888   1.521  15.366   7.221 -0.0053  0.1038 -0.0793
  784POPS   C3B10889   1.524  15.197   7.603  0.2130  0.0561 -0.2196
  784POPS   C4B10890   1.622  15.191   7.990  0.1099  0.1561 -0.0488
  785POPS   CNO10891   9.652   6.308   6.056 -0.2365  0.1510  0.0445
  785POPS   PO410892   9.174   6.183   6.222 -0.0685  0.3005  0.4170
  785POPS   GL110893   9.312   6.475   6.484  0.2107 -0.1373  0.1674
  785POPS   GL210894   9.558   6.200   6.557  0.0882  0.2065 -0.1476
  785POPS   C1A10895   9.368   6.485   6.905 -0.1362 -0.2196  0.0342
  785POPS   D2A10896   9.601   6.317   7.274  0.2166  0.0752 -0.0089
  785POPS   C3A10897   9.518   6.210   7.636  0.2018  0.1145  0.0986
  785POPS   C4A10898   9.642   6.238   8.043  0.1192  0.0982 -0.2392
  785POPS   C1B10899   9.851   6.003   6.933  0.1219  0.0588 -0.2248
  785POPS   C2B10900   9.853   5.848   7.282  0.3681 -0.1509 -0.3312
  785POPS   C3B10901  10.012   6.025   7.697 -0.0861  0.0151 -0.2556
  785POPS   C4B10902  10.274   6.360   7.832 -0.0372  0.0633  0.1494
  786POPS   CNO10903   3.828  18.044   5.452 -0.5756 -0.1099  0.3005
  786POPS   PO410904   3.606  18.365   5.744  0.0877 -0.0232 -0.0466
  786POPS   GL110905   3.616  18.309   6.172  0.0397 -0.2665  0.0288
  786POPS   GL210906   3.397  18.165   6.285  0.0364 -0.1005  0.0449
  786POPS   C1A10907   3.870  18.257   6.541  0.0688 -0.0881 -0.1580
  786POPS   D2A10908   4.090  18.333   6.985 -0.0509  0.3351  0.0205
  786POPS   C3A10909   4.046  18.207   7.372 -0.1324 -0.1470  0.0369
  786POPS   C4A10910   3.917  18.190   7.802  0.0646 -0.0387  0.3198
  786POPS   C1B10911   3.146  18.104   6.609  0.1365  0.0468 -0.2012
  786POPS   C2B10912   3.226  18.169   6.999  0.1186  0.0914 -0.1924
  786POPS   C3B10913   3.049  18.168   7.398 -0.2065  0.1041 -0.1483
  786POPS   C4B10914   3.044  18.326   7.902  0.0296 -0.2522 -0.1598
  787POPS   CNO10915  15.065  15.426   5.551 -0.1199  0.0978 -0.0135
  787POPS   PO410916  14.783  15.510   5.866 -0.0866 -0.2707  0.0887
  787POPS   GL110917  14.737  15.616   6.266  0.1335 -0.1002  0.0045
  787POPS   GL210918  14.934  15.359   6.439  0.1505 -0.1173  0.1408
  787POPS   C1A10919  14.688  15.764   6.723  0.0284  0.0520  0.1682
  787POPS   D2A10920  14.771  15.682   7.106  0.0956 -0.3252 -0.0341
  787POPS   C3A10921  14.405  15.597   7.414 -0.1187 -0.4422  0.1328
  787POPS   C4A10922  14.049  15.771   7.387 -0.1812 -0.1720  0.0164
  787POPS   C1B10923  15.094  15.352   6.869  0.2533  0.1572 -0.1487
  787POPS   C2B10924  15.062  15.299   7.211 -0.1602 -0.0047  0.1866
  787POPS   C3B10925  15.084  15.118   7.470 -0.1212  0.0402 -0.3508
  787POPS   C4B10926  14.980  14.902   7.803  0.1974  0.3892  0.2541
  788POPS   CNO10927  13.603   1.894   5.720  0.1721  0.0923 -0.1390
  788POPS   PO410928  13.949   1.982   5.576  0.1637 -0.2933 -0.0187
  788POPS   GL110929  14.011   1.821   5.964  0.5347 -0.0974  0.0119
  788POPS   GL210930  13.756   1.699   6.195  0.2356  0.0494 -0.2372
  788POPS   C1A10931  14.233   1.746   6.279 -0.0640  0.1939  0.3313
  788POPS   D2A10932  14.306   1.536   6.746  0.1495 -0.0701  0.1845
  788POPS   C3A10933  14.475   1.269   7.094 -0.1541 -0.0333 -0.0313
  788POPS   C4A10934  14.766   1.207   7.327  0.1028 -0.1251  0.1020
  788POPS   C1B10935  13.828   1.569   6.572  0.0715 -0.1000 -0.3798
  788POPS   C2B10936  13.954   1.636   7.109 -0.0354  0.0742  0.2722
  788POPS   C3B10937  13.636   1.504   7.362  0.1618  0.1029 -0.1351
  788POPS   C4B10938  13.349   1.644   7.731 -0.0759  0.2214  0.0253
  789POPS   CNO10939  13.342   2.058   6.137 -0.1931 -0.0006 -0.0634
  789POPS   PO410940  13.010   2.307   5.947 -0.2482  0.1612 -0.1318
  789POPS   GL110941  12.902   2.287   6.356 -0.0896 -0.0854  0.0718
  789POPS   GL210942  13.109   2.538   6.573 -0.2907  0.1077  0.1645
  789POPS   C1A10943  13.005   2.066   6.733 -0.1419 -0.4981  0.2717
  789POPS   D2A10944  12.957   2.123   7.175  0.0639 -0.0494 -0.0682
  789POPS   C3A10945  12.783   1.890   7.514 -0.0414 -0.0408 -0.2030
  789POPS   C4A10946  12.630   1.467   7.447 -0.0658  0.2254  0.0548
  789POPS   C1B10947  13.365   2.440   6.926 -0.0252 -0.1953  0.1743
  789POPS   C2B10948  13.422   2.458   7.297  0.0504 -0.1205 -0.0386
  789POPS   C3B10949  13.639   2.519   7.585  0.0970 -0.1151 -0.3478
  789POPS   C4B10950  13.806   2.624   7.920 -0.3244  0.1238 -0.0173
  790POPS   CNO10951   3.118   0.396   5.913  0.1047  0.0530 -0.0898
  790POPS   PO410952   3.049   0.816   6.037  0.2590  0.1850 -0.2608
  790POPS   GL110953   2.884   0.829   6.416 -0.0237  0.0655  0.2082
  790POPS   GL210954   2.769   1.165   6.380 -0.3127 -0.3091 -0.0180
  790POPS   C1A10955   2.697   0.901   6.751 -0.0395 -0.0102  0.1025
  790POPS   D2A10956   2.570   0.820   7.058  0.0645 -0.0740 -0.0727
  790POPS   C3A10957   2.230   0.862   7.398  0.1925 -0.0796 -0.1632
  790POPS   C4A10958   2.143   0.599   7.788 -0.0942  0.0829  0.0020
  790POPS   C1B10959   2.932   1.366   6.728  0.0785 -0.2019  0.0153
  790POPS   C2B10960   3.278   1.486   7.037  0.0504 -0.0399 -0.3972
  790POPS   C3B10961   3.315   1.429   7.473  0.0673  0.5282 -0.0529
  790POPS   C4B10962   3.347   1.416   7.963 -0.1306 -0.2222  0.1471
  791POPS   CNO10963   8.184  11.632   5.678 -0.3591 -0.0523 -0.0159
  791POPS   PO410964   7.917  11.988   5.722 -0.2324  0.0855 -0.0262
  791POPS   GL110965   7.711  11.804   6.000  0.1019 -0.0047 -0.1123
  791POPS   GL210966   7.567  11.980   6.222 -0.2325 -0.1232  0.3504
  791POPS   C1A10967   7.239  11.541   6.124 -0.1536 -0.0627  0.1079
  791POPS   D2A10968   6.886  11.319   6.018 -0.0599  0.0379  0.3171
  791POPS   C3A10969   6.508  11.351   6.213  0.1135  0.0103 -0.0525
  791POPS   C4A10970   6.309  11.478   6.505 -0.0602 -0.1753 -0.1218
  791POPS   C1B10971   7.578  12.149   6.571  0.0765 -0.1903 -0.0611
  791POPS   C2B10972   7.377  12.076   6.996 -0.2715 -0.1041 -0.1233
  791POPS   C3B10973   7.511  12.081   7.411 -0.0207  0.0195  0.3371
  791POPS   C4B10974   7.669  11.805   7.779 -0.2563 -0.2409 -0.1748
  792POPS   CNO10975  14.537  12.884   5.785  0.0452  0.3386 -0.0654
  792POPS   PO410976  14.399  12.468   5.832 -0.1940  0.2298  0.0235
  792POPS   GL110977  14.476  12.434   6.206 -0.0004 -0.2146 -0.3495
  792POPS   GL210978  14.541  12.155   6.336 -0.4402  0.0604  0.0250
  792POPS   C1A10979  14.418  12.422   6.707  0.2116  0.3271  0.1995
  792POPS   D2A10980  14.524  12.428   7.169 -0.0629  0.1322 -0.2265
  792POPS   C3A10981  14.359  12.492   7.527  0.1367 -0.0346  0.1912
  792POPS   C4A10982  14.236  12.557   7.932 -0.0537 -0.2796 -0.0169
  792POPS   C1B10983  14.825  12.143   6.677  0.0078  0.1343 -0.0285
  792POPS   C2B10984  14.981  12.197   7.158 -0.0032 -0.0630  0.2271
  792POPS   C3B10985  14.836  12.345   7.545 -0.3159 -0.4297 -0.2133
  792POPS   C4B10986  15.111  12.400   7.910  0.2102  0.0413 -0.0592
  793POPS   CNO10987  11.970   3.437   6.040 -0.0749 -0.0475  0.2782
  793POPS   PO410988  11.760   2.952   6.234  0.2613 -0.1683  0.0710
  793POPS   GL110989  12.099   2.933   6.490  0.1124  0.0528  0.1494
  793POPS   GL210990  12.154   2.532   6.566  0.0627 -0.0937 -0.0672
  793POPS   C1A10991  12.028   3.155   6.920  0.1710 -0.2561  0.1579
  793POPS   D2A10992  12.205   3.297   7.268 -0.3064 -0.0971 -0.0223
  793POPS   C3A10993  12.193   3.106   7.625  0.0811 -0.3550 -0.1284
  793POPS   C4A10994  11.935   3.092   7.953 -0.0545 -0.1577  0.0014
  793POPS   C1B10995  12.142   2.623   6.979 -0.0622 -0.1264 -0.0216
  793POPS   C2B10996  12.118   2.652   7.325 -0.2160  0.1094  0.0729
  793POPS   C3B10997  12.260   2.605   7.741  0.0269 -0.4234 -0.0249
  793POPS   C4B10998  12.656   2.506   7.825  0.1483 -0.0679 -0.0214
  794POPS   CNO10999  14.822   4.281   5.908  0.1055 -0.0198  0.0748
  794POPS   PO411000  15.021   4.425   6.199 -0.0475 -0.0057  0.2315
  794POPS   GL111001  14.962   4.759   6.536  0.3908 -0.4701  0.1982
  794POPS   GL211002  14.862   5.082   6.569 -0.0122  0.2075  0.2186
  794POPS   C1A11003  15.152   4.807   6.969  0.1194  0.1033 -0.1551
  794POPS   D2A11004  15.075   4.975   7.314  0.3344  0.1470  0.1705
  794POPS   C3A11005  14.916   4.745   7.642  0.0041 -0.0629  0.0842
  794POPS   C4A11006  15.076   4.747   8.100  0.2950  0.0324 -0.0688
  794POPS   C1B11007  14.715   5.302   6.910  0.1619 -0.1597  0.1220
  794POPS   C2B11008  14.832   5.536   7.291 -0.0229  0.0824 -0.0370
  794POPS   C3B11009  14.934   5.773   7.527  0.1245  0.0659  0.1167
  794POPS   C4B11010  14.994   5.918   7.964 -0.1052 -0.1691  0.1282
  795POPS   CNO11011   2.833   4.133   5.240 -0.2025  0.0233  0.0383
  795POPS   PO411012   2.640   4.504   5.367  0.3231 -0.1667 -0.1119
  795POPS   GL111013   2.631   4.573   5.827 -0.0498  0.2439  0.0513
  795POPS   GL211014   2.897   4.440   5.938  0.2059 -0.1942  0.0999
  795POPS   C1A11015   2.426   4.448   6.141 -0.1369  0.1523  0.2160
  795POPS   D2A11016   2.222   4.529   6.511 -0.0471 -0.2954 -0.2875
  795POPS   C3A11017   2.407   4.651   6.895  0.3694  0.0888 -0.2176
  795POPS   C4A11018   2.452   4.554   7.311 -0.0174 -0.0907 -0.3123
  795POPS   C1B11019   3.057   4.713   6.225 -0.1318  0.0423  0.1129
  795POPS   C2B11020   3.025   5.002   6.545  0.2446  0.1767 -0.1372
  795POPS   C3B11021   2.855   5.029   6.957  0.2147  0.1963  0.1324
  795POPS   C4B11022   2.723   4.943   7.402  0.3816  0.0182 -0.3951
  796POPS   CNO11023  15.504  14.074   5.647 -0.1158  0.1204 -0.1348
  796POPS   PO411024  15.166  14.169   5.817 -0.1496  0.2399 -0.1639
  796POPS   GL111025  14.993  14.236   6.180 -0.1594 -0.3709 -0.0030
  796POPS   GL211026  14.739  14.436   6.224  0.2222  0.0830  0.4878
  796POPS   C1A11027  15.285  14.378   6.546 -0.0442  0.0671  0.0491
  796POPS   D2A11028  15.488  14.575   6.888  0.0935  0.2497 -0.0122
  796POPS   C3A11029  15.296  14.596   7.214  0.0692 -0.0995 -0.1229
  796POPS   C4A11030  15.197  14.512   7.583 -0.1206 -0.1127 -0.0880
  796POPS   C1B11031  14.754  14.327   6.643 -0.1225 -0.0426 -0.3065
  796POPS   C2B11032  14.840  14.291   7.030 -0.0456  0.1787 -0.0290
  796POPS   C3B11033  14.739  14.004   7.439  0.0146 -0.2157 -0.0268
  796POPS   C4B11034  14.986  14.075   7.826  0.0248 -0.0742  0.1647
  797POPS   CNO11035   2.152  13.046   5.483 -0.0923  0.0281  0.1303
  797POPS   PO411036   2.442  12.863   5.684 -0.3486  0.1858  0.1369
  797POPS   GL111037   2.610  12.668   5.996  0.0525 -0.0960 -0.0244
  797POPS   GL211038   2.422  12.338   6.008  0.0234 -0.0152 -0.0957
  797POPS   C1A11039   2.833  12.382   6.348 -0.2312 -0.1857  0.1791
  797POPS   D2A11040   3.185  12.436   6.694 -0.1529 -0.4994  0.2484
  797POPS   C3A11041   3.130  12.200   7.132 -0.0807  0.2243  0.1960
  797POPS   C4A11042   3.428  11.993   7.495 -0.0970 -0.1598  0.1324
  797POPS   C1B11043   2.365  12.493   6.502 -0.2777 -0.0641 -0.1767
  797POPS   C2B11044   2.240  12.692   6.813  0.2899 -0.0852 -0.0624
  797POPS   C3B11045   2.103  12.672   7.204 -0.0554  0.0667 -0.2772
  797POPS   C4B11046   1.864  12.732   7.583 -0.0992 -0.1064  0.0994
  798POPS   CNO11047  16.113   1.857   5.406  0.2176  0.2696  0.2832
  798POPS   PO411048  16.368   1.939   5.596 -0.0795  0.2874  0.1156
  798POPS   GL111049  16.361   1.649   5.833 -0.0772  0.2444 -0.0804
  798POPS   GL211050  16.751   1.670   5.973  0.2043 -0.0640  0.0840
  798POPS   C1A11051  16.033   1.473   6.115 -0.0582  0.3017  0.1554
  798POPS   D2A11052  15.615   1.285   6.031  0.2911  0.1117  0.1494
  798POPS   C3A11053  15.481   0.959   5.900 -0.2737 -0.1784 -0.0409
  798POPS   C4A11054  15.540   0.658   6.115 -0.2260  0.2848 -0.1613
  798POPS   C1B11055  16.623   1.519   6.290  0.0771 -0.1635 -0.2113
  798POPS   C2B11056  16.724   1.627   6.696 -0.0952 -0.0269 -0.0815
  798POPS   C3B11057  16.603   1.444   7.030 -0.2135 -0.1381  0.0130
  798POPS   C4B11058  16.556   1.283   7.540  0.1105  0.1594 -0.1734
  799POPS   CNO11059   1.397   2.806   5.933  0.2955  0.3991 -0.2026
  799POPS   PO411060   1.702   3.105   5.836  0.1078  0.1271  0.3727
  799POPS   GL111061   1.958   3.194   6.108  0.1781 -0.1729  0.0319
  799POPS   GL211062   2.291   3.139   6.009  0.0456  0.0912 -0.1660
  799POPS   C1A11063   1.845   3.325   6.591  0.1354  0.3152  0.0869
  799POPS   D2A11064   1.792   3.371   6.992 -0.0256  0.0615  0.0043
  799POPS   C3A11065   1.725   2.996   7.286  0.0010  0.0283  0.2168
  799POPS   C4A11066   1.566   2.791   7.669 -0.2357 -0.1618  0.0331
  799POPS   C1B11067   2.372   3.209   6.451  0.2497  0.2728  0.2214
  799POPS   C2B11068   2.542   3.304   6.858  0.0837  0.0418  0.3173
  799POPS   C3B11069   2.559   3.525   7.224 -0.0230 -0.1903  0.2706
  799POPS   C4B11070   2.590   3.618   7.631 -0.0144 -0.2857  0.0810
  800POPS   CNO11071  16.172   9.512   5.970 -0.2850 -0.4065 -0.2769
  800POPS   PO411072  16.022   9.129   6.067 -0.1729 -0.0846  0.0712
  800POPS   GL111073  16.190   9.051   6.557 -0.0272 -0.0838 -0.1009
  800POPS   GL211074  15.988   9.151   6.777 -0.0038 -0.1025 -0.0593
  800POPS   C1A11075  16.368   9.342   6.967 -0.2261  0.4772  0.1146
  800POPS   D2A11076  16.389   9.273   7.346  0.2722  0.1126 -0.0684
  800POPS   C3A11077  16.320   9.441   7.676 -0.0855  0.1185  0.0467
  800POPS   C4A11078  16.047   9.565   7.959 -0.0166 -0.0529  0.0278
  800POPS   C1B11079  16.193   8.865   7.104  0.0793 -0.0595 -0.0888
  800POPS   C2B11080  16.354   8.762   7.364 -0.0864 -0.1431 -0.0854
  800POPS   C3B11081  16.600   8.541   7.682 -0.0483  0.1381 -0.2710
  800POPS   C4B11082  16.963   8.612   7.735  0.0499 -0.1394  0.0572
  801POPS   CNO11083   8.845   1.302   5.823 -0.0885 -0.0444  0.0629
  801POPS   PO411084   9.192   1.434   6.134 -0.1316 -0.1136  0.1069
  801POPS   GL111085   9.142   1.315   6.600  0.0867 -0.1009 -0.2009
  801POPS   GL211086   8.948   1.604   6.804 -0.3737  0.1528  0.0500
  801POPS   C1A11087   8.840   1.156   6.905  0.1947  0.0098 -0.0945
  801POPS   D2A11088   8.720   1.481   7.184 -0.1321 -0.2702 -0.0781
  801POPS   C3A11089   8.585   1.295   7.588 -0.1319 -0.0462  0.0049
  801POPS   C4A11090   8.508   1.080   7.978  0.1021  0.0338 -0.1476
  801POPS   C1B11091   9.228   1.382   7.075 -0.0746  0.1954 -0.3373
  801POPS   C2B11092   9.073   1.164   7.405  0.3087 -0.3057 -0.2267
  801POPS   C3B11093   8.980   1.022   7.818 -0.0114 -0.1598 -0.0049
  801POPS   C4B11094   8.863   0.710   8.155  0.1369  0.1324  0.0960
  802POPS   CNO11095   1.061  13.524   5.482 -0.2013  0.1142 -0.5102
  802POPS   PO411096   0.940  13.142   5.769  0.1998 -0.2535  0.1204
  802POPS   GL111097   0.864  13.300   6.177 -0.0405 -0.0004 -0.2927
  802POPS   GL211098   1.114  13.389   6.327 -0.0464  0.1777 -0.3280
  802POPS   C1A11099   0.584  13.536   6.393 -0.2296  0.1828 -0.1268
  802POPS   D2A11100   0.514  13.372   6.815 -0.1428 -0.5300  0.3281
  802POPS   C3A11101   0.692  13.612   7.178 -0.3174 -0.3021 -0.4420
  802POPS   C4A11102   0.918  13.837   7.478  0.1182 -0.1062 -0.0920
  802POPS   C1B11103   0.994  13.437   6.725 -0.3905 -0.1457  0.1146
  802POPS   C2B11104   1.001  13.240   7.152  0.0557 -0.2987  0.2013
  802POPS   C3B11105   0.892  13.242   7.518 -0.0014  0.2775  0.0789
  802POPS   C4B11106   0.552  13.188   7.785 -0.1366  0.2003 -0.0347
  803POPS   CNO11107  10.192  10.095   5.194  0.0116 -0.0126  0.0006
  803POPS   PO411108   9.859  10.078   5.434  0.3048  0.0895 -0.0812
  803POPS   GL111109   9.904   9.907   5.890  0.1728 -0.1698 -0.0277
  803POPS   GL211110   9.786   9.641   5.904 -0.0469  0.1688 -0.1974
  803POPS   C1A11111   9.620   9.980   6.281  0.0764  0.1690  0.2983
  803POPS   D2A11112   9.245   9.843   6.584  0.0310 -0.0458  0.3078
  803POPS   C3A11113   9.338   9.740   6.883  0.1308 -0.1137 -0.2100
  803POPS   C4A11114   9.564   9.614   7.250  0.0647 -0.1991 -0.0497
  803POPS   C1B11115   9.906   9.594   6.334  0.3696 -0.0606  0.1052
  803POPS   C2B11116   9.847   9.740   6.708  0.0029 -0.0800  0.0864
  803POPS   C3B11117   9.898  10.027   7.045 -0.2359  0.0196  0.0580
  803POPS   C4B11118   9.656  10.047   7.474  0.0785 -0.1260  0.1095
  804POPS   CNO11119  11.298   9.087   6.076  0.0494  0.2264  0.0623
  804POPS   PO411120  11.355   9.518   6.086 -0.0965 -0.1225  0.1591
  804POPS   GL111121  11.194   9.399   6.438 -0.1677 -0.3010  0.2577
  804POPS   GL211122  11.399   9.112   6.578  0.0099  0.0746  0.0448
  804POPS   C1A11123  11.391   9.534   6.774 -0.4171 -0.0116 -0.0751
  804POPS   D2A11124  11.394   9.555   7.235  0.2535 -0.2864  0.0667
  804POPS   C3A11125  11.018   9.623   7.327  0.0425  0.2127  0.0023
  804POPS   C4A11126  10.621   9.444   7.096 -0.0461  0.2700 -0.1108
  804POPS   C1B11127  11.378   9.003   7.003  0.0793 -0.0290 -0.0897
  804POPS   C2B11128  11.450   9.077   7.361  0.1232  0.1413 -0.1219
  804POPS   C3B11129  11.591   9.042   7.760 -0.1577 -0.0524  0.1100
  804POPS   C4B11130  11.396   8.829   8.039  0.0779  0.0357 -0.2727
  805POPS   CNO11131   2.286   3.994   5.305  0.0169 -0.0653 -0.2506
  805POPS   PO411132   1.888   3.938   5.174 -0.2297 -0.2681 -0.1649
  805POPS   GL111133   1.910   3.887   5.653 -0.3368 -0.1083 -0.2494
  805POPS   GL211134   1.875   3.636   5.931  0.2101  0.0030  0.1354
  805POPS   C1A11135   2.155   4.067   5.999 -0.2139 -0.2687  0.0609
  805POPS   D2A11136   2.359   4.048   6.483  0.1770 -0.1082  0.1313
  805POPS   C3A11137   2.226   4.172   6.900 -0.1382 -0.1945 -0.1657
  805POPS   C4A11138   1.989   4.229   7.286 -0.0554  0.4061  0.4143
  805POPS   C1B11139   2.057   3.662   6.323 -0.1785  0.0806 -0.1163
  805POPS   C2B11140   2.186   3.658   6.756 -0.0549  0.1715  0.0082
  805POPS   C3B11141   2.144   3.730   7.148  0.1656 -0.2090 -0.1656
  805POPS   C4B11142   2.179   3.896   7.627 -0.0585 -0.0659  0.1714
  806POPS   CNO11143  10.836   3.747   6.207 -0.0581 -0.1430  0.1247
  806POPS   PO411144  10.556   3.452   6.506 -0.2272 -0.3885  0.2115
  806POPS   GL111145  10.231   3.536   6.779  0.1187  0.1770  0.1907
  806POPS   GL211146   9.901   3.410   6.953  0.2353  0.2007  0.0002
  806POPS   C1A11147  10.248   3.657   7.202  0.2245  0.3140 -0.1931
  806POPS   D2A11148  10.266   3.797   7.547 -0.0258  0.0337 -0.3039
  806POPS   C3A11149  10.637   3.846   7.709  0.1230 -0.0931  0.0996
  806POPS   C4A11150  10.781   3.829   8.126  0.0359 -0.1336  0.1158
  806POPS   C1B11151   9.900   3.364   7.337  0.2592  0.1272  0.4136
  806POPS   C2B11152   9.944   3.367   7.791  0.4632  0.0726 -0.1378
  806POPS   C3B11153   9.649   3.478   8.067 -0.1738 -0.2170 -0.1471
  806POPS   C4B11154   9.659   3.784   8.382 -0.1233  0.0498 -0.1553
  807POPS   CNO11155   5.384   8.260   5.681 -0.2412  0.1782  0.0769
  807POPS   PO411156   5.187   7.887   5.946  0.0818  0.0512 -0.0859
  807POPS   GL111157   5.128   7.751   6.395  0.2052 -0.3203  0.0972
  807POPS   GL211158   5.430   7.836   6.404  0.1083 -0.0054  0.2088
  807POPS   C1A11159   4.988   7.847   6.837 -0.1977  0.0721  0.0773
  807POPS   D2A11160   4.806   7.913   7.194 -0.0312 -0.0532 -0.0102
  807POPS   C3A11161   4.441   7.967   7.145 -0.0494  0.0138 -0.2561
  807POPS   C4A11162   4.010   7.842   7.230 -0.2575 -0.0247 -0.4662
  807POPS   C1B11163   5.477   7.847   6.868  0.0605 -0.0322  0.0729
  807POPS   C2B11164   5.311   7.908   7.257  0.1494 -0.1162 -0.0196
  807POPS   C3B11165   5.303   8.168   7.596  0.0501  0.2040 -0.0102
  807POPS   C4B11166   5.199   8.450   7.946 -0.1740 -0.0257 -0.1279
  808POPS   CNO11167   6.896   6.963   6.291  0.0359  0.1661 -0.0184
  808POPS   PO411168   7.132   7.284   6.145  0.1537  0.1618  0.0229
  808POPS   GL111169   7.233   7.268   6.606  0.1320  0.1509 -0.1636
  808POPS   GL211170   7.530   7.311   6.703 -0.1744  0.2441 -0.0712
  808POPS   C1A11171   6.953   7.262   6.867  0.0351  0.0093  0.1090
  808POPS   D2A11172   6.989   7.290   7.276 -0.0377  0.1043 -0.1483
  808POPS   C3A11173   6.700   7.331   7.611  0.1034  0.0912  0.0507
  808POPS   C4A11174   6.525   7.605   7.900 -0.1592  0.0309 -0.0754
  808POPS   C1B11175   7.442   7.289   7.099  0.0220  0.0419  0.1125
  808POPS   C2B11176   7.522   7.504   7.520  0.2062 -0.3330  0.0137
  808POPS   C3B11177   7.453   7.685   7.922  0.0050  0.1905  0.0125
  808POPS   C4B11178   7.301   8.111   7.909 -0.0998 -0.0749 -0.0367
  809POPS   CNO11179   6.976  12.621   5.733  0.1042 -0.1575  0.1389
  809POPS   PO411180   7.010  12.234   5.563 -0.0263 -0.0578 -0.3146
  809POPS   GL111181   6.950  12.193   6.019  0.0624  0.0531 -0.1175
  809POPS   GL211182   6.749  12.398   6.153 -0.1294  0.1421  0.0420
  809POPS   C1A11183   7.115  12.090   6.416  0.0492  0.0179 -0.2219
  809POPS   D2A11184   7.296  11.736   6.674 -0.1183  0.1932  0.2899
  809POPS   C3A11185   7.170  11.596   7.040 -0.1749  0.0600  0.1520
  809POPS   C4A11186   6.944  11.422   7.329 -0.0204  0.2385  0.1036
  809POPS   C1B11187   6.595  12.294   6.518 -0.4363  0.2549 -0.1739
  809POPS   C2B11188   6.459  12.228   6.976 -0.2840 -0.1687 -0.0512
  809POPS   C3B11189   6.397  12.183   7.407 -0.1078 -0.0360  0.1985
  809POPS   C4B11190   6.732  11.897   7.710 -0.1348 -0.3076 -0.1387
  810POPS   CNO11191   3.419   4.600   5.803  0.0071  0.0066 -0.0453
  810POPS   PO411192   3.803   4.454   5.857 -0.0919  0.0104 -0.0056
  810POPS   GL111193   3.742   4.335   6.312  0.0179 -0.0056  0.1244
  810POPS   GL211194   3.370   4.344   6.359 -0.0496 -0.2539  0.1531
  810POPS   C1A11195   3.919   4.395   6.788  0.1045  0.0573 -0.0458
  810POPS   D2A11196   3.953   4.492   7.203  0.0846  0.2363 -0.0151
  810POPS   C3A11197   3.545   4.518   7.553  0.0260  0.0709 -0.1430
  810POPS   C4A11198   3.531   4.757   7.853 -0.0299  0.2091 -0.1896
  810POPS   C1B11199   3.423   4.232   6.706 -0.0523 -0.1707  0.1259
  810POPS   C2B11200   3.305   4.253   7.109 -0.0594 -0.4236 -0.1517
  810POPS   C3B11201   3.185   4.129   7.536 -0.1282  0.0799  0.0937
  810POPS   C4B11202   3.002   3.845   7.922 -0.0116  0.1571  0.1424
  811POPS   CNO11203  16.987  11.036   5.889 -0.3576 -0.2904 -0.3899
  811POPS   PO411204  16.535  10.860   5.958  0.1579 -0.0398 -0.1159
  811POPS   GL111205  16.256  10.894   6.259 -0.0605 -0.0655 -0.1393
  811POPS   GL211206  16.122  11.208   6.360 -0.2322 -0.0276 -0.3897
  811POPS   C1A11207  16.225  10.748   6.696 -0.2128  0.4239 -0.0584
  811POPS   D2A11208  16.428  10.573   7.084 -0.4557 -0.0166  0.0277
  811POPS   C3A11209  16.256  10.323   7.337 -0.2100  0.0168 -0.0982
  811POPS   C4A11210  15.846  10.332   7.404  0.0983 -0.3243  0.0729
  811POPS   C1B11211  16.324  11.235   6.720  0.0399  0.0354  0.0137
  811POPS   C2B11212  16.409  11.092   7.115 -0.0142 -0.0273 -0.0854
  811POPS   C3B11213  16.369  10.742   7.618  0.2190 -0.0493 -0.3253
  811POPS   C4B11214  15.885  10.748   7.684 -0.1591  0.0995  0.1406
  812YOPS   CNO11215  11.348   6.368   6.153  0.3732  0.3513  0.0202
  812YOPS   PO411216  11.275   5.981   5.954 -0.2342  0.0118 -0.3832
  812YOPS   GL111217  11.313   5.916   6.480  0.2761 -0.0818  0.0162
  812YOPS   GL211218  11.568   5.969   6.622 -0.0053  0.1193 -0.0382
  812YOPS   C1A11219  11.189   5.779   6.844 -0.0641 -0.0742 -0.2253
  812YOPS   D2A11220  11.300   5.657   7.279 -0.1407 -0.1228  0.2805
  812YOPS   C3A11221  11.215   5.309   7.557 -0.3978 -0.2710 -0.3010
  812YOPS   C4A11222  11.331   5.374   8.023 -0.2169 -0.1588  0.0173
  812YOPS   C1B11223  11.401   6.168   7.081 -0.1511  0.4273  0.0696
  812YOPS   C2B11224  11.396   6.270   7.541  0.0426 -0.2154  0.0747
  812YOPS   D3B11225  11.683   6.130   7.831  0.1025  0.2404  0.0509
  812YOPS   C4B11226  12.151   6.235   7.977  0.0768  0.0993  0.1391
  813YOPS   CNO11227   1.560  12.553   6.003 -0.2462  0.2571  0.2079
  813YOPS   PO411228   1.910  12.326   6.163 -0.1897  0.1241  0.0899
  813YOPS   GL111229   1.857  12.604   6.470 -0.2530 -0.1040  0.0269
  813YOPS   GL211230   1.768  12.929   6.511  0.1700 -0.0412  0.1131
  813YOPS   C1A11231   1.653  12.612   6.839 -0.0701  0.1215  0.1638
  813YOPS   D2A11232   1.565  12.557   7.203 -0.0358 -0.0376 -0.0770
  813YOPS   C3A11233   1.571  12.301   7.567  0.0310  0.1095  0.0647
  813YOPS   C4A11234   1.223  12.039   7.667  0.3451  0.0645 -0.2273
  813YOPS   C1B11235   1.911  13.037   6.939 -0.1067  0.2936 -0.1180
  813YOPS   C2B11236   1.957  13.152   7.346  0.2034 -0.1783 -0.2397
  813YOPS   D3B11237   1.961  13.176   7.846 -0.0633  0.0484  0.0398
  813YOPS   C4B11238   1.653  12.825   8.022 -0.2692  0.0073 -0.0953
  814YOPS   CNO11239  14.187  12.001   5.933 -0.0205 -0.0174  0.1930
  814YOPS   PO411240  14.530  11.624   6.101 -0.3437 -0.2061 -0.3118
  814YOPS   GL111241  14.462  11.715   6.523  0.0248  0.3380  0.1864
  814YOPS   GL211242  14.305  11.503   6.667  0.0227 -0.0634  0.0808
  814YOPS   C1A11243  14.676  11.757   6.967  0.2920 -0.0279 -0.1262
  814YOPS   D2A11244  14.856  11.760   7.371  0.0063 -0.0338  0.1643
  814YOPS   C3A11245  14.985  11.911   7.808 -0.0737 -0.0191 -0.2756
  814YOPS   C4A11246  15.348  11.858   7.957  0.0807  0.2740  0.0309
  814YOPS   C1B11247  14.127  11.667   6.990  0.2686  0.3110 -0.2241
  814YOPS   C2B11248  14.003  11.599   7.373 -0.0372 -0.0585  0.1499
  814YOPS   D3B11249  13.733  11.489   7.722  0.1436 -0.0074  0.1736
  814YOPS   C4B11250  14.023  11.679   8.049 -0.1664  0.2026 -0.1426
  815YOPS   CNO11251  11.874  17.228   6.155  0.3605 -0.1032 -0.0653
  815YOPS   PO411252  11.350  17.243   6.221 -0.3137 -0.0823 -0.1405
  815YOPS   GL111253  11.430  17.119   6.526 -0.0554  0.3801 -0.0413
  815YOPS   GL211254  11.564  17.398   6.712  0.0408 -0.0330 -0.1567
  815YOPS   C1A11255  11.363  17.055   6.996 -0.0183  0.2081 -0.1502
  815YOPS   D2A11256  11.669  17.252   7.289 -0.2515  0.1616 -0.0739
  815YOPS   C3A11257  11.816  17.295   7.662  0.0442 -0.0336 -0.1454
  815YOPS   C4A11258  12.249  17.159   7.813  0.1348 -0.3655 -0.1392
  815YOPS   C1B11259  11.571  17.706   6.982  0.2404 -0.1360 -0.0601
  815YOPS   C2B11260  11.618  17.774   7.329  0.4236  0.1652  0.2359
  815YOPS   D3B11261  11.869  17.818   7.700  0.2407 -0.1383  0.1755
  815YOPS   C4B11262  11.907  18.059   7.979 -0.0406  0.3258  0.1112
  816YOPS   CNO11263   6.326  13.403   5.350 -0.1665 -0.1653 -0.1653
  816YOPS   PO411264   6.333  13.631   5.694 -0.0965  0.1148 -0.0338
  816YOPS   GL111265   6.641  13.585   5.909  0.0743 -0.0538 -0.1135
  816YOPS   GL211266   6.970  13.741   5.888 -0.2131  0.1407  0.0964
  816YOPS   C1A11267   6.765  13.523   6.291 -0.1214 -0.0322 -0.2211
  816YOPS   D2A11268   6.869  13.786   6.688  0.2937 -0.2295  0.0727
  816YOPS   C3A11269   6.870  13.868   7.152 -0.0762 -0.0321 -0.0438
  816YOPS   C4A11270   6.702  13.944   7.558  0.0860 -0.0651  0.1066
  816YOPS   C1B11271   6.867  14.047   6.204 -0.0206 -0.1259  0.0010
  816YOPS   C2B11272   7.049  14.425   6.258 -0.1767  0.1102  0.2384
  816YOPS   D3B11273   7.435  14.617   6.333 -0.1122  0.1344 -0.1931
  816YOPS   C4B11274   7.811  14.482   6.285  0.1350  0.0242 -0.4223
  817YOPS   CNO11275   0.781   5.096   5.869 -0.0820  0.1687 -0.2351
  817YOPS   PO411276   0.941   5.500   5.636 -0.3317  0.1438  0.2867
  817YOPS   GL111277   1.175   5.424   5.949  0.2319  0.1921 -0.0700
  817YOPS   GL211278   1.110   5.367   6.315  0.2360 -0.0464 -0.1763
  817YOPS   C1A11279   1.604   5.334   6.247  0.1225 -0.2488  0.1035
  817YOPS   D2A11280   1.969   5.253   6.077  0.0561 -0.0231  0.1547
  817YOPS   C3A11281   2.141   4.878   6.010 -0.1497 -0.0660  0.3054
  817YOPS   C4A11282   1.918   4.522   6.067  0.2545 -0.3080 -0.0640
  817YOPS   C1B11283   1.320   5.429   6.716  0.1802 -0.3203 -0.1840
  817YOPS   C2B11284   1.480   5.595   7.120 -0.0235  0.0274  0.0333
  817YOPS   D3B11285   1.609   5.767   7.598 -0.2405  0.4026 -0.2216
  817YOPS   C4B11286   1.346   6.015   7.952 -0.0313  0.0451  0.3227
  818YOPS   CNO11287   5.203  18.038   5.361 -0.0124 -0.2169 -0.0944
  818YOPS   PO411288   5.146  17.779   5.759  0.1547  0.0816  0.2827
  818YOPS   GL111289   5.192  17.861   6.138  0.3466 -0.2260  0.2236
  818YOPS   GL211290   5.447  18.044   6.308  0.0942  0.2095 -0.2037
  818YOPS   C1A11291   4.841  17.935   6.389 -0.2987 -0.5714 -0.2759
  818YOPS   D2A11292   4.543  17.608   6.502 -0.1129 -0.1354 -0.0389
  818YOPS   C3A11293   4.588  17.278   6.719  0.3120  0.1592 -0.0854
  818YOPS   C4A11294   4.496  17.186   7.068 -0.0631 -0.2174  0.1487
  818YOPS   C1B11295   5.403  18.138   6.670 -0.0689  0.0499 -0.0716
  818YOPS   C2B11296   5.605  18.275   7.028 -0.0969  0.1432  0.1913
  818YOPS   D3B11297   5.568  18.268   7.345  0.1364 -0.0745  0.4149
  818YOPS   C4B11298   5.826  18.208   7.643 -0.2455  0.2274 -0.0742
  819YOPS   CNO11299  14.499   3.555   6.296 -0.4846 -0.0668  0.2465
  819YOPS   PO411300  14.162   3.854   6.373 -0.0941 -0.2610 -0.1092
  819YOPS   GL111301  13.899   3.701   6.733  0.0647 -0.0378 -0.2087
  819YOPS   GL211302  13.626   3.860   6.932  0.0271 -0.0070  0.2959
  819YOPS   C1A11303  13.879   3.459   7.111 -0.1483 -0.0848 -0.0319
  819YOPS   D2A11304  13.832   3.379   7.619  0.0406  0.0468 -0.1123
  819YOPS   C3A11305  13.704   3.587   7.943 -0.0984 -0.1605  0.1633
  819YOPS   C4A11306  13.406   3.402   8.191 -0.3362 -0.0667 -0.0397
  819YOPS   C1B11307  13.654   3.836   7.330  0.1314  0.2530  0.0395
  819YOPS   C2B11308  13.743   4.033   7.714  0.0799 -0.1023 -0.2607
  819YOPS   D3B11309  14.098   3.957   7.986 -0.0753 -0.0965  0.0700
  819YOPS   C4B11310  14.425   4.095   7.748 -0.2153  0.1138  0.0310
  820YOPS   CNO11311  11.066   4.779   5.861  0.0598  0.1277 -0.1256
  820YOPS   PO411312  11.239   5.141   6.052  0.0065  0.0029  0.1816
  820YOPS   GL111313  11.281   5.154   6.509 -0.0919  0.0269  0.1202
  820YOPS   GL211314  11.446   5.438   6.615 -0.1717  0.0043 -0.0940
  820YOPS   C1A11315  11.172   5.201   6.955  0.0724  0.0883 -0.1930
  820YOPS   D2A11316  10.868   5.280   7.248 -0.2511 -0.2935 -0.3299
  820YOPS   C3A11317  10.773   5.537   7.529 -0.2277 -0.0473  0.0396
  820YOPS   C4A11318  10.844   5.597   8.004 -0.0788 -0.3320 -0.1162
  820YOPS   C1B11319  11.666   5.587   6.930  0.2082  0.0517 -0.0666
  820YOPS   C2B11320  11.811   5.734   7.226 -0.2219 -0.2969  0.2609
  820YOPS   D3B11321  12.045   5.937   7.578 -0.0588 -0.1039 -0.1290
  820YOPS   C4B11322  12.327   6.398   7.416 -0.0228  0.0825 -0.2833
  821YOPS   CNO11323  11.152   2.192   6.192 -0.0154 -0.1105 -0.0734
  821YOPS   PO411324  11.514   1.998   6.434 -0.1227 -0.2218 -0.0997
  821YOPS   GL111325  11.285   1.983   6.775 -0.1719  0.1392  0.2387
  821YOPS   GL211326  11.497   1.828   7.003  0.0096  0.1719  0.2260
  821YOPS   C1A11327  11.052   2.102   7.126  0.1838 -0.0819  0.1006
  821YOPS   D2A11328  10.785   2.203   7.513 -0.0117 -0.1244  0.0528
  821YOPS   C3A11329  10.834   2.229   7.963 -0.0453 -0.0613  0.0766
  821YOPS   C4A11330  11.101   2.433   8.243 -0.0365 -0.3632 -0.0915
  821YOPS   C1B11331  11.389   2.015   7.456 -0.0659 -0.1085  0.1668
  821YOPS   C2B11332  11.142   1.878   7.793 -0.1846  0.1844  0.3179
  821YOPS   D3B11333  11.142   1.886   8.251 -0.2834 -0.2777 -0.0396
  821YOPS   C4B11334  10.832   2.085   8.485  0.0438  0.1513 -0.3425
  822YOPS   CNO11335  13.083   8.816   6.048 -0.2350  0.0468 -0.3617
  822YOPS   PO411336  12.692   8.961   6.037  0.1050  0.0425  0.0630
  822YOPS   GL111337  12.787   9.040   6.521 -0.0875  0.2826 -0.0030
  822YOPS   GL211338  12.745   9.328   6.567 -0.0835  0.1497  0.0537
  822YOPS   C1A11339  12.772   8.820   6.850 -0.1060  0.2226 -0.1442
  822YOPS   D2A11340  12.739   8.581   7.214  0.0026  0.0676 -0.1183
  822YOPS   C3A11341  12.828   8.358   7.529  0.1185  0.0143  0.0304
  822YOPS   C4A11342  12.730   7.919   7.567 -0.0518 -0.0947  0.0981
  822YOPS   C1B11343  12.649   9.277   7.030 -0.1004  0.0601 -0.1180
  822YOPS   C2B11344  12.386   9.225   7.501  0.1410 -0.0944  0.1434
  822YOPS   D3B11345  12.370   9.390   7.911 -0.1370 -0.0127  0.3806
  822YOPS   C4B11346  12.749   9.515   8.167 -0.1083  0.2146  0.0012
  823YOPS   CNO11347   7.558   6.506   6.108 -0.2457 -0.1058  0.1262
  823YOPS   PO411348   7.459   6.897   6.326 -0.0612  0.0571 -0.0713
  823YOPS   GL111349   7.264   6.778   6.670 -0.0899  0.4626 -0.1495
  823YOPS   GL211350   7.431   6.404   6.567 -0.1525  0.2585  0.1317
  823YOPS   C1A11351   7.137   6.850   7.064 -0.1072 -0.1954  0.0529
  823YOPS   D2A11352   6.861   6.829   7.580  0.0671 -0.1844 -0.1738
  823YOPS   C3A11353   6.913   6.903   7.997 -0.1294 -0.4509  0.1176
  823YOPS   C4A11354   7.269   6.937   8.153  0.0799  0.0460  0.1775
  823YOPS   C1B11355   7.467   6.352   6.976 -0.0012 -0.0809 -0.2549
  823YOPS   C2B11356   7.362   6.465   7.332  0.1332 -0.0004  0.0693
  823YOPS   D3B11357   7.386   6.550   7.773 -0.3830  0.5459  0.0489
  823YOPS   C4B11358   7.522   6.278   8.057 -0.0446  0.0828 -0.2544
  824YOPS   CNO11359  16.967  11.251   5.442 -0.0231  0.1758  0.0527
  824YOPS   PO411360  16.925  11.569   5.825 -0.0328 -0.0013 -0.2057
  824YOPS   GL111361  16.938  11.567   6.276 -0.1062 -0.0676  0.2956
  824YOPS   GL211362  16.877  11.258   6.413 -0.0596  0.0366  0.1121
  824YOPS   C1A11363  16.828  11.779   6.714 -0.2207  0.0120  0.1158
  824YOPS   D2A11364  16.690  11.848   7.066 -0.0602 -0.0534  0.0790
  824YOPS   C3A11365  16.784  11.988   7.387  0.1797  0.1036  0.0241
  824YOPS   C4A11366  16.732  11.711   7.646  0.1957  0.0497  0.0431
  824YOPS   C1B11367  16.846  11.281   6.826 -0.0024 -0.2014 -0.1199
  824YOPS   C2B11368  16.743  11.394   7.251  0.0513 -0.1207  0.0650
  824YOPS   D3B11369  16.638  11.238   7.711  0.1298  0.0244 -0.1939
  824YOPS   C4B11370  16.962  11.387   8.024  0.1436 -0.3459 -0.0095
  825YOPS   CNO11371  12.458   3.508   5.733  0.1756 -0.1019 -0.0601
  825YOPS   PO411372  12.359   3.768   6.094  0.1834  0.3417 -0.0367
  825YOPS   GL111373  12.146   3.788   6.555  0.1701 -0.1736  0.0942
  825YOPS   GL211374  12.214   3.503   6.635 -0.0287  0.3657 -0.0537
  825YOPS   C1A11375  12.072   3.851   6.959  0.1264 -0.1949 -0.1178
  825YOPS   D2A11376  12.120   3.785   7.392  0.0485  0.3589 -0.0123
  825YOPS   C3A11377  12.255   3.959   7.717  0.1967 -0.1315 -0.2227
  825YOPS   C4A11378  12.705   4.106   7.887 -0.0030 -0.1638  0.3161
  825YOPS   C1B11379  12.538   3.592   6.863  0.2148 -0.0631  0.3903
  825YOPS   C2B11380  12.598   3.585   7.254 -0.1593 -0.2427 -0.0465
  825YOPS   D3B11381  12.640   3.682   7.646 -0.0508 -0.1192  0.1569
  825YOPS   C4B11382  12.377   3.496   7.930 -0.0532  0.2507  0.0097
  826YOPS   CNO11383  13.515  15.759   5.497 -0.1645 -0.0964  0.1237
  826YOPS   PO411384  13.462  15.408   5.779 -0.2088 -0.0400  0.0997
  826YOPS   GL111385  13.675  15.516   6.070 -0.1643 -0.0657  0.0848
  826YOPS   GL211386  13.967  15.457   6.197 -0.0111 -0.1218  0.1336
  826YOPS   C1A11387  13.521  15.773   6.415 -0.1152 -0.0095  0.1810
  826YOPS   D2A11388  13.786  15.805   6.782  0.3580 -0.1200  0.1429
  826YOPS   C3A11389  13.594  15.745   7.204 -0.0273  0.1574  0.0331
  826YOPS   C4A11390  13.502  16.039   7.603 -0.0135 -0.1468  0.3913
  826YOPS   C1B11391  13.842  15.361   6.606 -0.0612 -0.2976 -0.3178
  826YOPS   C2B11392  13.900  15.332   7.041 -0.0777 -0.0436 -0.0224
  826YOPS   D3B11393  13.944  15.192   7.411  0.0312  0.1201  0.2171
  826YOPS   C4B11394  13.939  15.005   7.819 -0.1410  0.1136 -0.1479
  827YOPS   CNO11395   6.758   2.479   6.019  0.0011 -0.1020 -0.0060
  827YOPS   PO411396   6.477   2.504   6.242 -0.0272  0.3376 -0.0090
  827YOPS   GL111397   6.368   2.135   6.548 -0.0247  0.0682 -0.0031
  827YOPS   GL211398   6.174   1.934   6.649 -0.3198 -0.1808 -0.0450
  827YOPS   C1A11399   6.464   1.908   7.071  0.0421 -0.0132 -0.1747
  827YOPS   D2A11400   6.549   1.843   7.513 -0.1436  0.0922 -0.0574
  827YOPS   C3A11401   6.483   1.736   7.976 -0.2763 -0.3886  0.1633
  827YOPS   C4A11402   6.136   1.520   8.073 -0.0514  0.0082 -0.0417
  827YOPS   C1B11403   5.997   1.772   7.026  0.1280  0.1905  0.0274
  827YOPS   C2B11404   5.865   1.971   7.320  0.2768 -0.1672  0.1182
  827YOPS   D3B11405   5.783   2.313   7.539 -0.4480  0.0971 -0.1793
  827YOPS   C4B11406   5.599   2.278   7.942  0.0070  0.0959 -0.1774
  828YOPS   CNO11407  16.078   3.744   6.506  0.1201 -0.0219 -0.0016
  828YOPS   PO411408  16.056   4.153   6.328 -0.2477  0.0599  0.1799
  828YOPS   GL111409  16.258   4.289   6.673 -0.0085  0.4608 -0.1497
  828YOPS   GL211410  16.376   4.120   6.870  0.1226  0.2213  0.0897
  828YOPS   C1A11411  16.291   4.488   7.145  0.0459 -0.1648  0.0341
  828YOPS   D2A11412  16.587   4.301   7.546  0.2551 -0.1077  0.2831
  828YOPS   C3A11413  16.809   4.338   7.921  0.4816 -0.2541 -0.1820
  828YOPS   C4A11414  16.556   4.245   8.352 -0.3920  0.0254  0.3651
  828YOPS   C1B11415  16.271   4.032   7.252 -0.0719 -0.0862 -0.2332
  828YOPS   C2B11416  16.073   4.149   7.579  0.1313  0.1177  0.1091
  828YOPS   D3B11417  15.815   4.298   8.041 -0.2199  0.0924  0.1055
  828YOPS   C4B11418  16.069   4.431   8.374 -0.2191 -0.0539  0.2408
  829YOPS   CNO11419  14.029   2.840   6.191  0.1150  0.1413  0.0278
  829YOPS   PO411420  14.323   3.070   6.103 -0.2000 -0.1078  0.0095
  829YOPS   GL111421  14.428   2.930   6.458 -0.0676 -0.1796  0.0851
  829YOPS   GL211422  14.322   2.654   6.576  0.1888  0.2099 -0.0938
  829YOPS   C1A11423  14.667   2.919   6.802 -0.1154  0.1211  0.1451
  829YOPS   D2A11424  14.723   2.733   7.193 -0.3240 -0.2097  0.1047
  829YOPS   C3A11425  14.799   2.584   7.584  0.1740 -0.2796 -0.1060
  829YOPS   C4A11426  15.177   2.411   7.739 -0.1370  0.1454  0.0473
  829YOPS   C1B11427  14.385   2.478   6.930  0.0531 -0.1387 -0.1609
  829YOPS   C2B11428  14.416   2.319   7.428 -0.0715  0.0143 -0.0374
  829YOPS   D3B11429  14.661   2.126   7.796 -0.3441 -0.0869  0.1941
  829YOPS   C4B11430  14.731   1.758   7.980 -0.0468 -0.0444  0.2783
  830YOPS   CNO11431  14.414  17.264   5.843  0.1252  0.1376 -0.2588
  830YOPS   PO411432  14.222  16.886   5.897 -0.0739  0.1113 -0.0448
  830YOPS   GL111433  14.515  17.015   6.264 -0.0525 -0.3327 -0.0788
  830YOPS   GL211434  14.447  17.388   6.326 -0.2129 -0.1448 -0.1309
  830YOPS   C1A11435  14.924  17.132   6.371  0.0027 -0.1497  0.0623
  830YOPS   D2A11436  15.301  16.950   6.473 -0.0605  0.0324  0.0640
  830YOPS   C3A11437  15.424  16.951   6.894 -0.0755 -0.3365  0.1052
  830YOPS   C4A11438  15.397  17.178   7.212 -0.5373 -0.2775 -0.1959
  830YOPS   C1B11439  14.275  17.403   6.654  0.0900  0.4233  0.0036
  830YOPS   C2B11440  14.415  17.528   7.039  0.2169  0.1101 -0.1005
  830YOPS   D3B11441  14.521  17.822   7.394  0.0346  0.2795  0.1001
  830YOPS   C4B11442  14.433  17.751   7.815  0.1338  0.0202 -0.0898
  831YOPS   CNO11443   4.336  11.147   5.525 -0.0685  0.0338  0.1003
  831YOPS   PO411444   4.300  10.842   5.854 -0.1677 -0.1114  0.0257
  831YOPS   GL111445   4.631  10.960   6.238 -0.3596 -0.3595 -0.0998
  831YOPS   GL211446   5.033  10.825   6.342 -0.2630 -0.0294  0.0132
  831YOPS   C1A11447   4.767  11.298   6.640  0.0069  0.2348  0.0527
  831YOPS   D2A11448   4.682  11.241   7.067 -0.1268 -0.0151 -0.0124
  831YOPS   C3A11449   4.710  11.496   7.431 -0.0525 -0.2160  0.0287
  831YOPS   C4A11450   4.861  11.471   7.756 -0.4521 -0.2332  0.1796
  831YOPS   C1B11451   5.048  10.840   6.796  0.1753 -0.0930  0.0918
  831YOPS   C2B11452   4.968  10.819   7.201 -0.1136  0.4428 -0.1335
  831YOPS   D3B11453   4.746  10.866   7.489 -0.0716  0.0332  0.0462
  831YOPS   C4B11454   4.424  10.848   7.187 -0.0308  0.3140 -0.1446
  832YOPS   CNO11455   6.817  13.490   5.462  0.1651 -0.1167  0.3871
  832YOPS   PO411456   7.102  13.118   5.479  0.2356  0.0260  0.0538
  832YOPS   GL111457   7.095  13.238   5.947  0.1937 -0.0639  0.0981
  832YOPS   GL211458   6.797  13.012   6.140 -0.4102 -0.2389 -0.0617
  832YOPS   C1A11459   7.308  13.091   6.327  0.1749 -0.2036 -0.1771
  832YOPS   D2A11460   7.287  13.040   6.766  0.0060  0.1302 -0.0122
  832YOPS   C3A11461   7.295  12.958   7.100  0.1304 -0.1204 -0.0637
  832YOPS   C4A11462   6.894  12.887   7.321 -0.1639 -0.1676  0.2369
  832YOPS   C1B11463   6.860  13.108   6.558 -0.0637  0.2488 -0.1069
  832YOPS   C2B11464   6.862  13.352   6.932  0.0567  0.1408  0.2026
  832YOPS   D3B11465   7.073  13.376   7.304 -0.0053  0.3090  0.3686
  832YOPS   C4B11466   7.281  13.775   7.393 -0.0857 -0.0290  0.1173
  833YOPS   CNO11467   7.998  13.497   5.334  0.1408  0.0356  0.2185
  833YOPS   PO411468   7.847  13.304   5.735 -0.0913 -0.1519  0.0167
  833YOPS   GL111469   7.827  13.162   6.182 -0.2646  0.2341  0.2804
  833YOPS   GL211470   8.124  13.205   6.301 -0.1960 -0.2056  0.0645
  833YOPS   C1A11471   7.792  13.122   6.742 -0.1576  0.0655  0.2903
  833YOPS   D2A11472   7.818  12.996   7.178  0.0067  0.0900 -0.1468
  833YOPS   C3A11473   7.634  12.917   7.562  0.3511  0.1510 -0.0003
  833YOPS   C4A11474   7.212  13.024   7.648  0.0400 -0.1928 -0.4126
  833YOPS   C1B11475   8.018  13.518   6.594  0.1082  0.1758 -0.0642
  833YOPS   C2B11476   8.002  13.477   6.987 -0.2420 -0.2273  0.1594
  833YOPS   D3B11477   8.149  13.691   7.306 -0.2892 -0.1725  0.1672
  833YOPS   C4B11478   8.083  13.649   7.688  0.0994 -0.0940  0.1417
  834YOPS   CNO11479   2.716   2.274   6.019 -0.2342 -0.2977  0.0444
  834YOPS   PO411480   2.429   2.677   6.074 -0.0785  0.0728 -0.0741
  834YOPS   GL111481   2.184   2.641   6.404 -0.1845  0.1075 -0.1320
  834YOPS   GL211482   1.942   2.815   6.399  0.1413 -0.1821 -0.3210
  834YOPS   C1A11483   2.185   2.453   6.740 -0.0045  0.0058  0.0903
  834YOPS   D2A11484   1.954   2.569   7.203  0.0393 -0.0709  0.1477
  834YOPS   C3A11485   2.042   2.704   7.618  0.1974 -0.1501  0.0855
  834YOPS   C4A11486   1.972   2.969   7.948  0.3511 -0.1321  0.1151
  834YOPS   C1B11487   2.077   2.935   6.812 -0.1928  0.2263  0.1727
  834YOPS   C2B11488   2.203   3.036   7.200  0.0391 -0.4192 -0.1522
  834YOPS   D3B11489   2.154   3.294   7.509  0.0767  0.0406  0.1224
  834YOPS   C4B11490   1.809   3.616   7.463 -0.3038 -0.0810 -0.1303
  835YOPS   CNO11491  18.083  17.591   5.625 -0.1596 -0.3067  0.0286
  835YOPS   PO411492  17.861  17.688   5.954  0.0584 -0.2073  0.0423
  835YOPS   GL111493  17.847  17.477   6.189 -0.4296 -0.3485  0.1177
  835YOPS   GL211494  17.654  17.203   6.121 -0.4107 -0.1082  0.0812
  835YOPS   C1A11495  18.131  17.331   6.512 -0.2993  0.1527 -0.1037
  835YOPS   D2A11496  18.301  17.184   6.937 -0.0433  0.0968 -0.1173
  835YOPS   C3A11497  18.496  17.008   7.152 -0.1945 -0.0127 -0.4040
  835YOPS   C4A11498  18.760  17.167   7.353  0.0017 -0.1899  0.3575
  835YOPS   C1B11499  17.627  17.239   6.597  0.0253  0.2472 -0.1189
  835YOPS   C2B11500  17.745  17.143   6.979  0.1492  0.4098 -0.0538
  835YOPS   D3B11501  17.717  17.220   7.458 -0.1458 -0.2337 -0.2955
  835YOPS   C4B11502  17.336  17.277   7.710 -0.2236 -0.0453  0.1357
  836YOPS   CNO11503   4.927  10.619   5.878  0.1144  0.2093 -0.0423
  836YOPS   PO411504   5.208  10.724   5.555  0.4523 -0.2495 -0.1972
  836YOPS   GL111505   5.447  10.651   6.016  0.1836 -0.1711 -0.0771
  836YOPS   GL211506   5.354  10.422   6.107 -0.0722  0.1916  0.0044
  836YOPS   C1A11507   5.494  10.724   6.494  0.2612 -0.0478  0.0320
  836YOPS   D2A11508   5.535  10.830   6.824 -0.0171  0.3303  0.1246
  836YOPS   C3A11509   5.525  10.775   7.346  0.0505 -0.0803  0.2256
  836YOPS   C4A11510   5.716  10.504   7.743 -0.1821  0.1683  0.2089
  836YOPS   C1B11511   5.400  10.204   6.523 -0.0105 -0.1603  0.3068
  836YOPS   C2B11512   5.376  10.278   6.921  0.0214 -0.3451 -0.0334
  836YOPS   D3B11513   5.040  10.333   7.184 -0.0290 -0.1954  0.3466
  836YOPS   C4B11514   5.129  10.507   7.596 -0.1605  0.0335 -0.0057
  837YOPS   CNO11515   9.861  16.516   5.649  0.0415  0.3123 -0.0164
  837YOPS   PO411516   9.685  16.301   6.025  0.0070 -0.1868 -0.1511
  837YOPS   GL111517   9.429  16.252   6.369  0.0681 -0.0041  0.2344
  837YOPS   GL211518   9.220  16.015   6.490  0.1189  0.0011  0.0652
  837YOPS   C1A11519   9.381  16.395   6.820 -0.1194 -0.0199  0.3316
  837YOPS   D2A11520   9.367  16.695   7.199 -0.1568  0.0748 -0.1289
  837YOPS   C3A11521   9.361  16.598   7.626 -0.1197 -0.0526  0.1531
  837YOPS   C4A11522   8.982  16.419   7.641 -0.0774 -0.2200 -0.4253
  837YOPS   C1B11523   9.197  15.749   6.868 -0.1857 -0.2782  0.0224
  837YOPS   C2B11524   9.287  15.674   7.222 -0.0916 -0.1104  0.0787
  837YOPS   D3B11525   9.203  15.408   7.515  0.1385 -0.1479 -0.2912
  837YOPS   C4B11526   8.977  15.596   7.901  0.1495 -0.0251 -0.3099
  838YOPS   CNO11527  13.508  12.768   5.711  0.4159 -0.1747 -0.0261
  838YOPS   PO411528  13.318  12.279   5.933 -0.0288 -0.2519 -0.2411
  838YOPS   GL111529  13.264  12.436   6.407 -0.1685 -0.1419 -0.0692
  838YOPS   GL211530  13.598  12.488   6.522 -0.0130 -0.0406  0.0023
  838YOPS   C1A11531  13.082  12.464   6.809 -0.1363  0.0434  0.1982
  838YOPS   D2A11532  13.049  12.439   7.186 -0.0093  0.1730  0.4584
  838YOPS   C3A11533  13.050  12.701   7.567 -0.2761  0.1419  0.1443
  838YOPS   C4A11534  12.977  13.129   7.769  0.1649  0.0593 -0.0331
  838YOPS   C1B11535  13.610  12.539   6.916 -0.2268 -0.1218  0.0084
  838YOPS   C2B11536  13.516  12.523   7.383  0.2789 -0.1305 -0.0331
  838YOPS   D3B11537  13.368  12.304   7.629 -0.2118  0.2230  0.0793
  838YOPS   C4B11538  12.952  12.235   7.718  0.4089  0.1648 -0.2899
  839YOPS   CNO11539   6.953   5.575   5.828  0.0802 -0.0421  0.0477
  839YOPS   PO411540   7.131   5.223   5.937 -0.2098 -0.0836 -0.0209
  839YOPS   GL111541   7.078   5.444   6.334 -0.0659 -0.2307  0.0186
  839YOPS   GL211542   6.917   5.665   6.436 -0.1156 -0.0698  0.1633
  839YOPS   C1A11543   7.004   5.493   6.863 -0.5730  0.1243 -0.1658
  839YOPS   D2A11544   6.976   5.441   7.252  0.0569 -0.0297  0.0015
  839YOPS   C3A11545   6.995   5.731   7.690  0.0579 -0.0144 -0.1643
  839YOPS   C4A11546   7.285   6.026   7.648  0.1792 -0.1423 -0.0204
  839YOPS   C1B11547   6.577   5.454   6.564  0.0541 -0.2553  0.3367
  839YOPS   C2B11548   6.669   5.120   6.725 -0.1694  0.3345  0.0219
  839YOPS   D3B11549   6.956   4.877   7.072  0.1278  0.2787 -0.2281
  839YOPS   C4B11550   6.988   4.829   7.467  0.1016 -0.1678  0.0816
  840YOPS   CNO11551   7.220   8.372   5.803  0.2469 -0.0814  0.0873
  840YOPS   PO411552   7.398   7.997   5.856 -0.1459 -0.0303  0.1158
  840YOPS   GL111553   7.241   8.164   6.262  0.0455  0.2005  0.0266
  840YOPS   GL211554   7.497   8.261   6.470  0.0685 -0.2707  0.0749
  840YOPS   C1A11555   6.949   8.357   6.578 -0.0477 -0.2176  0.1561
  840YOPS   D2A11556   6.782   8.392   7.020  0.0687  0.1946 -0.2438
  840YOPS   C3A11557   6.655   8.217   7.360 -0.0405 -0.1940  0.1110
  840YOPS   C4A11558   6.587   7.799   7.412 -0.2698 -0.1935 -0.1761
  840YOPS   C1B11559   7.351   8.305   6.906 -0.0619 -0.0835  0.1882
  840YOPS   C2B11560   7.130   8.363   7.341 -0.1905 -0.1583  0.1063
  840YOPS   D3B11561   7.026   8.599   7.742 -0.0178 -0.1394  0.0619
  840YOPS   C4B11562   7.262   8.850   7.905  0.2857 -0.0486  0.5052
  841YOPS   CNO11563   2.340  15.933   6.005 -0.0044 -0.0082  0.1161
  841YOPS   PO411564   2.283  15.601   5.728 -0.2379  0.1365 -0.2353
  841YOPS   GL111565   2.427  15.439   6.182 -0.0722 -0.0678  0.4270
  841YOPS   GL211566   2.217  15.345   6.347  0.1352 -0.0423 -0.1497
  841YOPS   C1A11567   2.589  15.490   6.645  0.0493 -0.0054  0.1561
  841YOPS   D2A11568   2.592  15.514   6.968  0.1928 -0.3288  0.0622
  841YOPS   C3A11569   2.733  15.653   7.328 -0.2516 -0.0470  0.3537
  841YOPS   C4A11570   3.072  15.820   7.438 -0.0283 -0.1105  0.0952
  841YOPS   C1B11571   2.238  15.126   6.707  0.0788  0.1395  0.0932
  841YOPS   C2B11572   2.404  15.070   7.065  0.2285 -0.0489 -0.1776
  841YOPS   D3B11573   2.626  14.909   7.444 -0.0505  0.0128  0.0123
  841YOPS   C4B11574   2.682  15.176   7.679 -0.1276  0.0983  0.1306
  842POPE   NH311575   8.321   8.144   5.966 -0.2231 -0.1985  0.1803
  842POPE   PO411576   8.670   8.270   5.775 -0.1791  0.0066  0.0005
  842POPE   GL111577   8.713   8.349   6.179  0.1421 -0.1024  0.1544
  842POPE   GL211578   8.738   8.628   6.214 -0.2696  0.0227  0.2405
  842POPE   C1A11579   8.786   8.309   6.657 -0.1270 -0.2043 -0.1275
  842POPE   D2A11580   8.971   8.124   7.054  0.1298 -0.0546 -0.0413
  842POPE   C3A11581   8.995   8.238   7.413 -0.2822 -0.1609  0.3280
  842POPE   C4A11582   9.050   8.249   7.912 -0.3531 -0.1992  0.0433
  842POPE   C1B11583   8.815   8.811   6.641 -0.0862  0.0424  0.0484
  842POPE   C2B11584   8.937   8.705   6.971  0.0828  0.3873  0.3013
  842POPE   C3B11585   9.054   8.775   7.274 -0.0746 -0.0308 -0.1327
  842POPE   C4B11586   9.153   8.732   7.724  0.0949 -0.3438 -0.3687
  843POPE   NH311587  13.913   7.323   6.303  0.1625 -0.0188  0.0507
  843POPE   PO411588  13.685   6.930   6.150  0.1450  0.1140 -0.2231
  843POPE   GL111589  13.787   6.973   6.689 -0.0890  0.2652 -0.0865
  843POPE   GL211590  14.143   7.100   6.692 -0.1100  0.0720 -0.0357
  843POPE   C1A11591  13.736   7.045   7.108 -0.0446  0.0602  0.0342
  843POPE   D2A11592  13.705   7.180   7.468  0.0826  0.2653 -0.1322
  843POPE   C3A11593  13.451   7.150   7.778 -0.0796  0.0212 -0.2096
  843POPE   C4A11594  13.046   7.057   7.718  0.0849  0.0508  0.1825
  843POPE   C1B11595  14.145   7.350   6.962  0.2118  0.0147  0.4801
  843POPE   C2B11596  14.108   7.502   7.364 -0.0035 -0.0049 -0.1619
  843POPE   C3B11597  14.401   7.648   7.820  0.1825 -0.0637 -0.1835
  843POPE   C4B11598  14.480   7.663   8.274  0.2544 -0.0122 -0.1062
  844POPE   NH311599   9.688  13.765   5.941 -0.0723  0.1061  0.3905
  844POPE   PO411600   9.872  14.239   5.834 -0.1138 -0.0769  0.2421
  844POPE   GL111601  10.005  14.097   6.218  0.1369  0.2000  0.2787
  844POPE   GL211602  10.105  13.755   6.237 -0.0166 -0.1945  0.2514
  844POPE   C1A11603   9.833  14.174   6.520  0.0133 -0.1292 -0.3740
  844POPE   D2A11604   9.782  14.245   6.954  0.0785  0.0083 -0.0589
  844POPE   C3A11605   9.621  14.006   7.371 -0.0959 -0.0622 -0.1240
  844POPE   C4A11606   9.611  13.671   7.716  0.2228  0.0773  0.1463
  844POPE   C1B11607   9.911  13.684   6.623  0.1012 -0.1131  0.1144
  844POPE   C2B11608   9.812  13.742   7.013 -0.2787 -0.2479  0.0454
  844POPE   C3B11609   9.961  13.636   7.309  0.1000 -0.0086  0.1133
  844POPE   C4B11610  10.162  13.652   7.745  0.0054 -0.0850 -0.1150
  845POPE   NH311611  16.700  17.343   5.961 -0.1081 -0.2044  0.0093
  845POPE   PO411612  16.517  16.909   6.061  0.0047 -0.1584  0.2258
  845POPE   GL111613  16.306  16.737   6.390 -0.4022  0.1799 -0.2618
  845POPE   GL211614  16.554  16.566   6.454 -0.1259  0.1557  0.1644
  845POPE   C1A11615  16.282  16.766   6.885  0.3667 -0.1623  0.0774
  845POPE   D2A11616  16.207  16.620   7.307 -0.1087 -0.2255  0.2690
  845POPE   C3A11617  16.114  16.810   7.803 -0.0103  0.0323  0.2616
  845POPE   C4A11618  16.148  17.242   8.051 -0.0817  0.0866 -0.3970
  845POPE   C1B11619  16.636  16.432   6.911 -0.1714  0.2417 -0.0280
  845POPE   C2B11620  16.650  16.354   7.320  0.0309 -0.0766  0.3666
  845POPE   C3B11621  16.953  16.554   7.661 -0.0178 -0.1414  0.0436
  845POPE   C4B11622  17.056  16.958   7.941 -0.0599  0.0145  0.0427
  846POPE   NH311623   4.813   8.222   6.044  0.0533 -0.1229 -0.0879
  846POPE   PO411624   4.577   8.642   5.807 -0.1546 -0.0696  0.0728
  846POPE   GL111625   4.591   8.720   6.176  0.2746 -0.0743 -0.1351
  846POPE   GL211626   4.506   8.914   6.287  0.0874 -0.0372  0.3302
  846POPE   C1A11627   4.991   8.756   6.441 -0.2015  0.0391  0.3021
  846POPE   D2A11628   5.178   8.826   6.806 -0.1172 -0.1614 -0.0930
  846POPE   C3A11629   5.023   8.991   7.216  0.2076 -0.0238 -0.1051
  846POPE   C4A11630   4.760   9.035   7.523  0.2373  0.0166 -0.1457
  846POPE   C1B11631   4.602   8.988   6.742  0.1623 -0.1551  0.1375
  846POPE   C2B11632   4.528   9.206   7.064  0.1121 -0.0689 -0.0683
  846POPE   C3B11633   4.490   9.465   7.386 -0.0251 -0.0803  0.1890
  846POPE   C4B11634   4.489   9.504   7.825 -0.0857 -0.0024  0.1275
  847POPE   NH311635   5.663   5.245   6.340  0.0177 -0.1873  0.0043
  847POPE   PO411636   5.848   4.866   6.257 -0.1139  0.0385  0.1681
  847POPE   GL111637   5.797   4.816   6.662 -0.1308  0.2303 -0.0638
  847POPE   GL211638   6.020   4.531   6.712  0.4624  0.0674 -0.1267
  847POPE   C1A11639   5.799   4.683   7.176 -0.1655  0.1635 -0.1425
  847POPE   D2A11640   5.757   4.659   7.581 -0.0961  0.0213 -0.0593
  847POPE   C3A11641   6.116   4.762   7.904 -0.0113 -0.0395 -0.0858
  847POPE   C4A11642   6.453   4.585   8.166 -0.1464 -0.1180 -0.2034
  847POPE   C1B11643   6.325   4.751   6.965  0.3559 -0.1916 -0.0049
  847POPE   C2B11644   6.232   4.826   7.405 -0.3807 -0.4045 -0.1100
  847POPE   C3B11645   6.533   4.883   7.735 -0.0094 -0.0807  0.1502
  847POPE   C4B11646   6.614   5.041   8.161 -0.0016 -0.0621 -0.1119
  848POPE   NH311647   5.986   4.361   6.246 -0.2306  0.0520  0.1252
  848POPE   PO411648   5.686   4.139   6.125  0.0208  0.2035 -0.3871
  848POPE   GL111649   5.606   4.274   6.574 -0.0102 -0.0705 -0.0451
  848POPE   GL211650   5.327   4.414   6.689  0.0081  0.3887 -0.0323
  848POPE   C1A11651   5.654   4.216   7.027  0.2064  0.0263  0.1891
  848POPE   D2A11652   5.461   4.278   7.468  0.1618 -0.0321 -0.2367
  848POPE   C3A11653   5.418   4.456   7.896 -0.2799 -0.0686 -0.1325
  848POPE   C4A11654   5.608   4.572   8.276 -0.1334 -0.2224  0.0423
  848POPE   C1B11655   5.278   4.562   7.038 -0.1319  0.0141 -0.0106
  848POPE   C2B11656   5.093   4.612   7.551 -0.0119  0.0981  0.1231
  848POPE   C3B11657   4.938   4.603   7.959 -0.1821 -0.0738  0.3416
  848POPE   C4B11658   5.118   4.436   8.348 -0.1972  0.1533 -0.1051
  849POPE   NH311659  12.346  17.257   5.943 -0.0993 -0.0663 -0.1672
  849POPE   PO411660  12.723  17.167   5.963  0.3583  0.0265  0.1616
  849POPE   GL111661  12.854  17.109   6.336 -0.3301  0.2519 -0.0614
  849POPE   GL211662  13.172  17.021   6.278 -0.0551  0.1575 -0.1528
  849POPE   C1A11663  13.062  17.286   6.677  0.1291  0.1618 -0.1587
  849POPE   D2A11664  13.319  17.326   7.020 -0.3124  0.1392 -0.2868
  849POPE   C3A11665  13.261  17.181   7.552  0.0846 -0.1687  0.0516
  849POPE   C4A11666  13.467  17.006   7.825 -0.0029  0.0476  0.1427
  849POPE   C1B11667  13.366  16.907   6.689  0.0302 -0.1615  0.0630
  849POPE   C2B11668  13.433  16.871   7.148  0.0859  0.1079  0.3475
  849POPE   C3B11669  13.730  16.758   7.414 -0.1441 -0.1326 -0.0563
  849POPE   C4B11670  13.743  16.629   7.761  0.1859  0.0176  0.0176
  850POPE   NH311671   5.695  10.516   5.585  0.1895 -0.0305 -0.1649
  850POPE   PO411672   5.679   9.989   5.509  0.1034 -0.1804  0.1341
  850POPE   GL111673   5.746   9.991   5.919 -0.0014 -0.1979  0.2882
  850POPE   GL211674   6.009   9.895   5.988  0.1002 -0.0478  0.1374
  850POPE   C1A11675   5.671   9.844   6.329 -0.1969  0.0424 -0.3219
  850POPE   D2A11676   5.710   9.899   6.778 -0.0759  0.0077 -0.1005
  850POPE   C3A11677   5.931   9.683   7.105 -0.1345 -0.3228 -0.0977
  850POPE   C4A11678   5.990   9.625   7.541 -0.0867 -0.2479 -0.0787
  850POPE   C1B11679   6.166   9.969   6.416 -0.2993 -0.0566 -0.0320
  850POPE   C2B11680   6.221  10.058   6.850 -0.1533  0.0651 -0.0377
  850POPE   C3B11681   6.299  10.004   7.274 -0.3026  0.0246 -0.1268
  850POPE   C4B11682   6.283  10.007   7.718  0.2607 -0.1506  0.0698
  851POPE   NH311683   2.547   0.726   6.006  0.0447  0.1865  0.2395
  851POPE   PO411684   2.061   0.812   5.927  0.0513 -0.1849  0.2879
  851POPE   GL111685   1.810   0.952   6.265  0.0343 -0.3018  0.1720
  851POPE   GL211686   1.414   0.898   6.233 -0.1619  0.2776  0.0044
  851POPE   C1A11687   1.576   1.093   6.673  0.0078 -0.2457 -0.3059
  851POPE   D2A11688   1.421   1.433   6.747 -0.1204  0.2118  0.0884
  851POPE   C3A11689   1.497   1.725   6.961  0.0739 -0.0285 -0.2933
  851POPE   C4A11690   1.369   2.153   7.001 -0.0057 -0.0015  0.2819
  851POPE   C1B11691   1.172   0.815   6.599 -0.4237 -0.3217  0.4488
  851POPE   C2B11692   1.250   1.025   7.054 -0.2112 -0.1129 -0.2303
  851POPE   C3B11693   1.453   1.260   7.264  0.2503 -0.2198 -0.0144
  851POPE   C4B11694   1.541   1.705   7.453  0.0937  0.0480  0.3001
  852POPE   NH311695  17.967   0.966   5.503 -0.0983  0.1825  0.3558
  852POPE   PO411696  17.606   0.765   5.501  0.3780 -0.4160  0.2181
  852POPE   GL111697  17.589   0.806   5.926  0.3527 -0.5000 -0.0513
  852POPE   GL211698  17.862   0.625   5.945  0.0314  0.1893  0.1595
  852POPE   C1A11699  17.464   0.979   6.369  0.1384 -0.0403  0.1484
  852POPE   D2A11700  17.412   0.949   6.766 -0.0623  0.0392  0.0451
  852POPE   C3A11701  17.075   0.807   6.821  0.2660 -0.0038  0.1537
  852POPE   C4A11702  16.881   0.952   7.119  0.1179 -0.2388 -0.3026
  852POPE   C1B11703  17.815   0.533   6.376 -0.0115 -0.1888  0.0676
  852POPE   C2B11704  17.742   0.558   6.858  0.1008  0.1383  0.0645
  852POPE   C3B11705  17.871   0.341   7.275 -0.2363 -0.1840 -0.0339
  852POPE   C4B11706  18.004   0.436   7.669  0.1142  0.0929  0.1611
  853POPE   NH311707  18.044   2.034   5.551 -0.2383 -0.2000 -0.0539
  853POPE   PO411708  17.796   2.310   5.585 -0.2134 -0.0324 -0.1599
  853POPE   GL111709  17.553   2.437   5.987  0.0493 -0.2336 -0.0148
  853POPE   GL211710  17.471   2.198   6.050  0.4891  0.1189  0.1503
  853POPE   C1A11711  17.486   2.826   6.283  0.0924 -0.1198  0.0154
  853POPE   D2A11712  17.619   3.270   6.541 -0.2027 -0.1315 -0.0572
  853POPE   C3A11713  17.938   3.291   6.964 -0.1477  0.1378 -0.1123
  853POPE   C4A11714  18.075   3.127   7.342  0.2473 -0.0782 -0.1675
  853POPE   C1B11715  17.566   1.957   6.388  0.1714  0.0036  0.2019
  853POPE   C2B11716  17.751   2.031   6.813  0.2576 -0.2046 -0.1839
  853POPE   C3B11717  17.728   2.007   7.219  0.0644  0.0557  0.1129
  853POPE   C4B11718  17.927   2.257   7.622 -0.0598 -0.2781 -0.0566
  854POPE   NH311719   0.547   8.710   5.652  0.0509  0.0902 -0.2492
  854POPE   PO411720   0.487   8.287   5.528 -0.1462  0.0398  0.1871
  854POPE   GL111721   0.714   8.263   5.929  0.4878 -0.2899 -0.0393
  854POPE   GL211722   0.656   7.950   5.910 -0.0322 -0.0041 -0.0811
  854POPE   C1A11723   0.821   8.091   6.375 -0.0594 -0.3630  0.2401
  854POPE   D2A11724   0.961   8.236   6.720  0.0127 -0.1086 -0.3148
  854POPE   C3A11725   0.599   8.380   7.038 -0.0535 -0.0326 -0.1021
  854POPE   C4A11726   0.546   8.266   7.550 -0.0510 -0.2197 -0.0603
  854POPE   C1B11727   0.904   7.642   6.239  0.2444  0.0163  0.2456
  854POPE   C2B11728   0.872   7.697   6.714 -0.0275  0.1627  0.1305
  854POPE   C3B11729   0.742   7.744   7.138 -0.1278 -0.3867 -0.2322
  854POPE   C4B11730   0.793   7.489   7.489  0.2342  0.0399 -0.1608
  855POPE   NH311731   9.407  12.357   6.106  0.0285 -0.1335 -0.3573
  855POPE   PO411732   9.351  11.913   6.134 -0.3129 -0.0310  0.3333
  855POPE   GL111733   9.086  11.754   6.347 -0.1102 -0.2403 -0.1908
  855POPE   GL211734   8.657  11.830   6.311 -0.0952  0.2352 -0.1384
  855POPE   C1A11735   8.952  11.919   6.717  0.1244  0.0660  0.1166
  855POPE   D2A11736   8.946  11.876   7.174 -0.1069 -0.1604  0.1576
  855POPE   C3A11737   9.091  11.697   7.485  0.1301 -0.1535 -0.1332
  855POPE   C4A11738   9.177  11.922   7.791 -0.1384 -0.1864 -0.3518
  855POPE   C1B11739   8.357  11.811   6.626  0.2325 -0.0330  0.1918
  855POPE   C2B11740   8.276  11.750   7.065 -0.2059  0.1034 -0.0791
  855POPE   C3B11741   8.410  11.555   7.457 -0.0905 -0.0809  0.2504
  855POPE   C4B11742   8.128  11.652   7.850  0.1200 -0.1085  0.0423
  856POPE   NH311743   8.451   6.602   5.978  0.0949  0.0125  0.1805
  856POPE   PO411744   8.268   6.408   6.247  0.1602 -0.0369  0.3887
  856POPE   GL111745   8.079   6.467   6.644 -0.0807 -0.1033  0.1733
  856POPE   GL211746   8.045   6.381   6.870  0.0184  0.3060 -0.3745
  856POPE   C1A11747   8.327   6.762   6.951  0.0837 -0.0490 -0.0855
  856POPE   D2A11748   8.229   6.837   7.339 -0.0530 -0.0779  0.2471
  856POPE   C3A11749   8.332   7.277   7.465  0.2492  0.0375 -0.2956
  856POPE   C4A11750   8.455   7.532   7.725 -0.1208 -0.1438 -0.0275
  856POPE   C1B11751   7.866   6.478   7.247  0.0459  0.0421 -0.1391
  856POPE   C2B11752   7.868   6.544   7.632 -0.1384  0.1993 -0.0761
  856POPE   C3B11753   7.791   6.745   8.092  0.2514 -0.0713  0.1116
  856POPE   C4B11754   7.605   6.550   8.548  0.0562  0.2699 -0.1091
  857POPE   NH311755   4.874   1.594   6.004  0.0768 -0.0200  0.1238
  857POPE   PO411756   4.535   1.773   5.887  0.2705 -0.0334  0.0347
  857POPE   GL111757   4.279   1.790   6.246  0.0056  0.0957 -0.4586
  857POPE   GL211758   3.992   1.575   6.138 -0.1191 -0.1491 -0.0908
  857POPE   C1A11759   4.069   1.856   6.548 -0.0020 -0.0919  0.0299
  857POPE   D2A11760   3.748   1.764   6.762 -0.0323 -0.2433  0.1864
  857POPE   C3A11761   3.656   1.718   7.212  0.2548 -0.1100 -0.4302
  857POPE   C4A11762   3.644   1.749   7.633  0.0439  0.1406  0.1776
  857POPE   C1B11763   3.744   1.369   6.452  0.1336 -0.1499  0.1525
  857POPE   C2B11764   3.715   1.161   6.891  0.2982 -0.1987 -0.1192
  857POPE   C3B11765   3.665   1.107   7.221  0.0009 -0.1692  0.1414
  857POPE   C4B11766   3.426   0.936   7.604 -0.1502 -0.0123  0.0658
  858POPE   NH311767   9.658   1.511   6.341 -0.0433  0.0409 -0.1013
  858POPE   PO411768  10.086   1.653   6.281  0.0226 -0.1205  0.0095
  858POPE   GL111769  10.100   1.448   6.689  0.1111  0.0295 -0.0876
  858POPE   GL211770  10.477   1.322   6.805 -0.0773 -0.3086 -0.3548
  858POPE   C1A11771  10.060   1.564   7.126  0.0595  0.2964 -0.0118
  858POPE   D2A11772  10.067   1.455   7.576 -0.3258  0.1943 -0.1346
  858POPE   C3A11773  10.154   1.729   7.895 -0.2360 -0.1062 -0.3322
  858POPE   C4A11774   9.929   1.838   8.288 -0.0029 -0.0746 -0.1690
  858POPE   C1B11775  10.654   1.256   7.176 -0.2799  0.1110  0.2632
  858POPE   C2B11776  10.598   1.166   7.583  0.2239  0.1260  0.2785
  858POPE   C3B11777  10.326   1.272   7.946  0.0796  0.2073 -0.1178
  858POPE   C4B11778  10.307   1.521   8.346 -0.3331  0.0157 -0.1277
  859POPE   NH311779   3.464   7.474   5.524 -0.0048  0.0867  0.0872
  859POPE   PO411780   3.323   7.181   5.790 -0.3627 -0.1316 -0.0106
  859POPE   GL111781   3.400   7.352   6.102  0.2579 -0.0178  0.0312
  859POPE   GL211782   3.495   7.770   6.139  0.0159  0.0192  0.2023
  859POPE   C1A11783   3.452   7.398   6.517 -0.1300  0.2361 -0.0326
  859POPE   D2A11784   3.473   7.618   6.866  0.0780  0.0285 -0.1262
  859POPE   C3A11785   3.617   7.518   7.263  0.0230  0.1882 -0.0536
  859POPE   C4A11786   3.842   7.462   7.565 -0.0107 -0.0135  0.1784
  859POPE   C1B11787   3.304   7.991   6.475 -0.0517  0.6035 -0.0745
  859POPE   C2B11788   3.072   7.971   6.875  0.1375  0.1629 -0.0713
  859POPE   C3B11789   3.081   7.700   7.197  0.0655 -0.1099  0.1632
  859POPE   C4B11790   3.051   7.429   7.467 -0.2327 -0.2056 -0.1185
  860POPE   NH311791  15.733  15.735   5.697  0.2001  0.0222  0.0735
  860POPE   PO411792  15.549  15.394   5.676  0.3014  0.0076 -0.2354
  860POPE   GL111793  15.688  15.293   6.086 -0.1301  0.2037  0.1407
  860POPE   GL211794  15.528  15.136   6.266 -0.2264 -0.1008  0.1920
  860POPE   C1A11795  15.600  15.489   6.539  0.1938 -0.1260 -0.2441
  860POPE   D2A11796  15.658  15.490   6.974 -0.0441 -0.0659 -0.2746
  860POPE   C3A11797  15.565  15.432   7.437 -0.3144  0.0953 -0.2523
  860POPE   C4A11798  15.244  15.366   7.814 -0.0612  0.0138  0.1464
  860POPE   C1B11799  15.509  15.045   6.699 -0.1791  0.2094 -0.1769
  860POPE   C2B11800  15.475  15.079   7.152  0.0915  0.1032  0.1323
  860POPE   C3B11801  15.535  14.880   7.601 -0.0906  0.0695 -0.1364
  860POPE   C4B11802  15.909  14.745   7.873  0.2304  0.0227  0.3116
  861POPE   NH311803   9.522   8.277   5.971 -0.1514  0.2985 -0.3521
  861POPE   PO411804   9.483   7.822   5.946  0.2027  0.0350 -0.4205
  861POPE   GL111805   9.600   7.944   6.354  0.1415 -0.4999  0.0886
  861POPE   GL211806   9.810   7.656   6.381 -0.0361  0.1164 -0.2496
  861POPE   C1A11807   9.489   7.983   6.864  0.0229 -0.0651 -0.0006
  861POPE   D2A11808   9.407   8.003   7.215  0.0696  0.1791 -0.0962
  861POPE   C3A11809   9.248   7.885   7.662 -0.0091 -0.2548  0.0960
  861POPE   C4A11810   8.978   7.658   7.751 -0.1278  0.0718  0.2389
  861POPE   C1B11811   9.840   7.411   6.806 -0.0701  0.1021  0.1564
  861POPE   C2B11812   9.668   7.326   7.249 -0.3165 -0.0579 -0.0887
  861POPE   C3B11813   9.605   7.520   7.637  0.1974 -0.0141 -0.1166
  861POPE   C4B11814   9.597   7.674   8.044  0.1714  0.2697  0.1297
  862POPE   NH311815   0.708   0.344   5.372 -0.2003 -0.3590 -0.0757
  862POPE   PO411816   0.392   0.254   5.667 -0.3805  0.0229 -0.2350
  862POPE   GL111817   0.397   0.353   6.075  0.0985  0.1736 -0.1689
  862POPE   GL211818   0.121   0.359   6.190  0.0907  0.0261 -0.0423
  862POPE   C1A11819   0.282   0.661   6.498 -0.0154 -0.1225 -0.1667
  862POPE   D2A11820   0.131   0.654   6.933 -0.0872 -0.0172 -0.0503
  862POPE   C3A11821   0.214   0.804   7.371  0.0572  0.0226 -0.0723
  862POPE   C4A11822   0.095   0.919   7.795 -0.1589  0.0957  0.0420
  862POPE   C1B11823   0.107   0.175   6.575 -0.1009  0.3591 -0.0090
  862POPE   C2B11824   0.108   0.076   6.955 -0.0266  0.1068 -0.2570
  862POPE   C3B11825   0.392  -0.047   7.327 -0.0686 -0.0850  0.0965
  862POPE   C4B11826   0.408  -0.257   7.650  0.3032 -0.1503 -0.0346
  863POPE   NH311827   0.371  12.293   5.772  0.0603 -0.0833  0.1444
  863POPE   PO411828   0.722  12.062   5.981  0.2284  0.1552 -0.2277
  863POPE   GL111829   0.428  11.985   6.346 -0.0748  0.0725  0.0706
  863POPE   GL211830   0.703  11.879   6.536  0.2326  0.1261 -0.3248
  863POPE   C1A11831   0.322  12.062   6.768  0.5311 -0.0919  0.1287
  863POPE   D2A11832   0.317  12.087   7.212 -0.0624 -0.2566  0.2811
  863POPE   C3A11833   0.598  12.260   7.566 -0.0591  0.1322  0.1486
  863POPE   C4A11834   0.879  12.263   7.932  0.0269  0.0643 -0.1170
  863POPE   C1B11835   0.625  11.702   6.969  0.1215 -0.0956  0.2591
  863POPE   C2B11836   0.771  11.744   7.450  0.1339 -0.4008 -0.1072
  863POPE   C3B11837   0.719  11.785   7.805  0.0473  0.3830  0.3374
  863POPE   C4B11838   0.672  11.932   8.208  0.0385  0.1283  0.1664
  864POPE   NH311839   8.240   5.957   6.472 -0.0088 -0.0847  0.3011
  864POPE   PO411840   7.852   6.103   6.375 -0.4927 -0.0591 -0.0332
  864POPE   GL111841   7.764   5.983   6.794 -0.0501  0.2449 -0.0273
  864POPE   GL211842   8.015   5.811   6.924  0.1837  0.4060  0.1304
  864POPE   C1A11843   7.701   5.982   7.281 -0.2550 -0.3161  0.0725
  864POPE   D2A11844   7.895   6.091   7.751 -0.1626  0.4294  0.3450
  864POPE   C3A11845   8.182   6.020   7.950  0.1111  0.3383  0.0834
  864POPE   C4A11846   8.365   5.813   8.301 -0.0882 -0.1197  0.1343
  864POPE   C1B11847   8.416   5.775   7.198  0.3161  0.0324 -0.1892
  864POPE   C2B11848   8.527   5.905   7.561  0.2295 -0.0172 -0.1297
  864POPE   C3B11849   8.636   6.146   7.955 -0.2114  0.1711 -0.1127
  864POPE   C4B11850   8.299   6.396   8.272  0.0342  0.2757  0.0674
  865POPE   NH311851   8.078   1.523   6.213  0.1269 -0.3135  0.0761
  865POPE   PO411852   7.783   1.783   6.220 -0.2148  0.0004  0.4011
  865POPE   GL111853   7.856   1.778   6.628  0.1888  0.0044 -0.0988
  865POPE   GL211854   7.892   1.505   6.703  0.1702  0.1644 -0.2648
  865POPE   C1A11855   7.718   1.919   7.066 -0.2778  0.3446  0.3559
  865POPE   D2A11856   7.643   1.857   7.492  0.0455 -0.3016 -0.0827
  865POPE   C3A11857   7.413   1.444   7.629  0.3743 -0.0971 -0.1417
  865POPE   C4A11858   7.552   1.159   7.980 -0.3291  0.0400  0.1964
  865POPE   C1B11859   7.845   1.336   7.104  0.0025  0.0210  0.0756
  865POPE   C2B11860   7.787   1.132   7.484  0.1796 -0.0057 -0.1528
  865POPE   C3B11861   7.799   0.730   7.698 -0.2312 -0.1139  0.1655
  865POPE   C4B11862   7.791   0.370   8.017  0.2933 -0.2410  0.0907
  866POPE   NH311863  18.083  17.043   5.706  0.2062 -0.0705 -0.0852
  866POPE   PO411864  17.665  16.798   5.650  0.1036 -0.0777 -0.2479
  866POPE   GL111865  17.882  16.760   6.108  0.2621 -0.1371 -0.2363
  866POPE   GL211866  17.875  16.406   6.135  0.0031 -0.0737 -0.3253
  866POPE   C1A11867  18.049  16.821   6.552 -0.1779 -0.1033  0.0642
  866POPE   D2A11868  18.066  16.678   6.961  0.0265  0.1707  0.0873
  866POPE   C3A11869  18.071  16.869   7.292  0.1481  0.0086 -0.1143
  866POPE   C4A11870  18.391  16.848   7.647 -0.0263 -0.0401  0.2375
  866POPE   C1B11871  17.792  16.444   6.631 -0.2898 -0.1629 -0.0044
  866POPE   C2B11872  17.687  16.365   6.996 -0.0152 -0.1452 -0.2297
  866POPE   C3B11873  17.880  16.418   7.421  0.1632  0.3036  0.0207
  866POPE   C4B11874  18.240  16.324   7.736  0.1138  0.0788 -0.1919
  867POPE   NH311875  15.992   2.341   5.816  0.1537 -0.1288 -0.0867
  867POPE   PO411876  16.333   2.639   6.057  0.0523 -0.0604 -0.1109
  867POPE   GL111877  16.429   2.526   6.364  0.0889 -0.0395 -0.0778
  867POPE   GL211878  16.392   2.795   6.635 -0.1507  0.0835  0.1742
  867POPE   C1A11879  16.713   2.270   6.439 -0.0295  0.0655 -0.0121
  867POPE   D2A11880  16.904   2.275   6.847 -0.0982 -0.3207  0.2631
  867POPE   C3A11881  16.751   1.953   7.167 -0.1246 -0.1724 -0.3955
  867POPE   C4A11882  16.439   1.852   7.439  0.0050 -0.1898 -0.0736
  867POPE   C1B11883  16.359   2.445   6.939 -0.2141  0.1539 -0.0422
  867POPE   C2B11884  16.424   2.379   7.437 -0.1892 -0.3290  0.0771
  867POPE   C3B11885  16.233   2.514   7.828 -0.2507 -0.3058 -0.1144
  867POPE   C4B11886  16.269   2.702   8.243  0.1699 -0.1561 -0.0335
  868POPE   NH311887  12.658   9.442   6.103 -0.0941  0.2159  0.0267
  868POPE   PO411888  12.390   9.761   6.061 -0.2108  0.0815 -0.3352
  868POPE   GL111889  12.214   9.683   6.428 -0.0841  0.2986  0.2206
  868POPE   GL211890  11.988   9.888   6.631  0.0869 -0.0564 -0.0075
  868POPE   C1A11891  12.417   9.677   6.794 -0.2189 -0.2232  0.1442
  868POPE   D2A11892  12.350   9.791   7.202 -0.1468 -0.0348  0.0410
  868POPE   C3A11893  12.319   9.832   7.603  0.2824 -0.3648 -0.0146
  868POPE   C4A11894  12.204   9.829   8.031 -0.0805 -0.0869  0.0624
  868POPE   C1B11895  11.863   9.837   7.066  0.0917 -0.1821 -0.2523
  868POPE   C2B11896  11.823   9.759   7.398 -0.0518 -0.2622 -0.0071
  868POPE   C3B11897  11.763  10.003   7.831 -0.4848 -0.2791  0.2477
  868POPE   C4B11898  11.703  10.151   8.259  0.1202  0.1581  0.3724
  869POPE   NH311899  16.405   9.911   6.182  0.0762 -0.2635  0.1150
  869POPE   PO411900  16.715   9.568   6.065 -0.0692  0.1547  0.0366
  869POPE   GL111901  16.887   9.382   6.430  0.1149 -0.1727  0.0269
  869POPE   GL211902  17.145   9.508   6.595  0.0362 -0.1984 -0.1601
  869POPE   C1A11903  16.694   9.096   6.676 -0.0186  0.1044  0.1461
  869POPE   D2A11904  16.787   9.075   7.175 -0.2348  0.0799  0.0362
  869POPE   C3A11905  17.216   8.952   7.316  0.0374 -0.2064 -0.2733
  869POPE   C4A11906  17.546   8.813   7.198 -0.1451  0.2212 -0.1649
  869POPE   C1B11907  17.207   9.415   7.056  0.1693 -0.0202 -0.4421
  869POPE   C2B11908  17.106   9.402   7.527  0.0160 -0.2688 -0.2356
  869POPE   C3B11909  16.992   9.564   7.875  0.1003  0.2996  0.0524
  869POPE   C4B11910  16.654   9.413   8.106 -0.2260  0.3451  0.0081
  870POPE   NH311911  15.437   7.751   6.225  0.0892 -0.2130  0.1690
  870POPE   PO411912  14.994   7.882   6.090  0.0053 -0.1973 -0.0951
  870POPE   GL111913  14.900   7.903   6.507  0.0931 -0.0786 -0.0957
  870POPE   GL211914  14.576   8.054   6.620 -0.0067  0.1251 -0.2762
  870POPE   C1A11915  15.038   7.669   6.814  0.0764  0.3053 -0.0785
  870POPE   D2A11916  15.161   7.629   7.295 -0.3417  0.0286 -0.0246
  870POPE   C3A11917  14.927   7.489   7.707  0.0796 -0.2779  0.0053
  870POPE   C4A11918  14.526   7.222   7.993 -0.1945  0.1392  0.1912
  870POPE   C1B11919  14.697   7.926   7.049  0.2268  0.2673  0.1616
  870POPE   C2B11920  14.735   7.910   7.459 -0.1125  0.2763 -0.0971
  870POPE   C3B11921  14.691   8.011   7.947 -0.0180  0.0273 -0.0955
  870POPE   C4B11922  14.905   8.011   8.371  0.1849  0.0959 -0.0688
  871POPE   NH311923   9.230   4.667   6.256  0.0597 -0.0946  0.3071
  871POPE   PO411924   8.947   4.728   5.886  0.1244  0.1223  0.0186
  871POPE   GL111925   8.761   4.840   6.210  0.3338  0.1330 -0.0161
  871POPE   GL211926   8.920   4.986   6.497  0.2469 -0.0414  0.0281
  871POPE   C1A11927   8.489   4.785   6.557  0.2066  0.0079 -0.0927
  871POPE   D2A11928   8.130   4.585   6.745 -0.1086  0.0887  0.0802
  871POPE   C3A11929   8.177   4.389   7.131 -0.0589  0.1234 -0.2867
  871POPE   C4A11930   8.049   4.383   7.546  0.0657 -0.1833 -0.3365
  871POPE   C1B11931   8.997   4.962   6.950  0.0005  0.1925  0.0695
  871POPE   C2B11932   8.946   4.987   7.388 -0.0797 -0.0388 -0.3673
  871POPE   C3B11933   9.147   4.890   7.777  0.0913 -0.0247  0.0826
  871POPE   C4B11934   9.179   4.816   8.219  0.0855 -0.2228  0.0398
  872YOPE   NH311935   4.273   9.578   5.811 -0.1990 -0.1524 -0.1592
  872YOPE   PO411936   3.974   9.280   5.789 -0.3118 -0.1723 -0.1242
  872YOPE   GL111937   3.796   9.668   6.095 -0.0899  0.0166  0.0049
  872YOPE   GL211938   3.993   9.631   6.312 -0.3251  0.0490  0.2967
  872YOPE   C1A11939   3.325   9.767   6.124  0.1677 -0.2390 -0.2679
  872YOPE   D2A11940   3.031   9.482   6.333  0.3644 -0.0468 -0.1069
  872YOPE   C3A11941   2.812   9.341   6.682  0.1008  0.1163 -0.1090
  872YOPE   C4A11942   2.468   9.531   6.894  0.1542 -0.4874  0.0564
  872YOPE   C1B11943   3.980   9.836   6.679  0.0329 -0.0559 -0.0308
  872YOPE   C2B11944   4.004  10.040   7.126  0.0053 -0.0716 -0.1948
  872YOPE   D3B11945   4.055  10.433   7.330 -0.0237 -0.1797  0.0608
  872YOPE   C4B11946   4.033  10.821   7.519 -0.1615 -0.0681 -0.0028
  873YOPE   NH311947   7.928   3.006   6.227 -0.0947  0.2635 -0.2217
  873YOPE   PO411948   8.088   2.672   6.056 -0.1079 -0.0137 -0.0734
  873YOPE   GL111949   7.732   2.602   6.420 -0.2729 -0.0523 -0.0708
  873YOPE   GL211950   7.506   2.312   6.392 -0.0290 -0.0525 -0.3268
  873YOPE   C1A11951   7.707   2.483   6.856  0.0292 -0.0328 -0.1801
  873YOPE   D2A11952   7.641   2.390   7.307 -0.0850  0.0063  0.1978
  873YOPE   C3A11953   7.688   2.361   7.791  0.0896  0.4349  0.0122
  873YOPE   C4A11954   7.826   2.168   8.195 -0.2674  0.1156  0.2040
  873YOPE   C1B11955   7.357   2.113   6.674  0.1517 -0.3612 -0.0592
  873YOPE   C2B11956   7.097   1.970   7.082  0.0797  0.0626 -0.1808
  873YOPE   D3B11957   7.079   1.787   7.466 -0.2151 -0.0283  0.1380
  873YOPE   C4B11958   7.002   1.609   7.896  0.1980  0.0600 -0.0970
  874YOPE   NH311959   0.091  11.804   6.005  0.0171 -0.0957  0.1331
  874YOPE   PO411960   0.321  11.339   5.885  0.0972  0.2168  0.2090
  874YOPE   GL111961   0.223  11.385   6.268 -0.0302 -0.0010  0.1060
  874YOPE   GL211962  -0.141  11.462   6.342 -0.1493  0.2172  0.0103
  874YOPE   C1A11963   0.186  11.583   6.666  0.1899  0.1341 -0.3456
  874YOPE   D2A11964   0.066  11.647   7.122  0.0933 -0.1003  0.1103
  874YOPE   C3A11965   0.146  11.717   7.554 -0.0796  0.1145  0.1082
  874YOPE   C4A11966   0.244  11.883   7.922 -0.1672 -0.2701 -0.0716
  874YOPE   C1B11967  -0.289  11.503   6.714 -0.4682 -0.1028  0.0670
  874YOPE   C2B11968  -0.521  11.492   7.161  0.0570 -0.0578 -0.2914
  874YOPE   D3B11969  -0.287  11.438   7.526 -0.0414  0.0437 -0.0449
  874YOPE   C4B11970  -0.102  11.571   7.937  0.3010  0.2772 -0.1888
  875YOPE   NH311971  12.142  14.575   5.849 -0.2580 -0.0567  0.1513
  875YOPE   PO411972  12.076  14.986   5.609  0.0975 -0.1894 -0.2788
  875YOPE   GL111973  12.184  14.993   6.062  0.0235  0.3844 -0.1965
  875YOPE   GL211974  11.975  14.808   6.267  0.0954  0.2105  0.3086
  875YOPE   C1A11975  12.511  14.923   6.339 -0.2746  0.0830  0.0727
  875YOPE   D2A11976  12.970  14.896   6.212 -0.1031 -0.2689 -0.2399
  875YOPE   C3A11977  13.204  14.659   6.501  0.1548 -0.0075 -0.1160
  875YOPE   C4A11978  13.316  14.374   6.749 -0.1566  0.0144 -0.0261
  875YOPE   C1B11979  12.178  14.934   6.673 -0.0853 -0.1959  0.1636
  875YOPE   C2B11980  12.400  14.844   6.923 -0.0738 -0.0258  0.1454
  875YOPE   D3B11981  12.329  14.636   7.267 -0.0620  0.0096 -0.2289
  875YOPE   C4B11982  12.219  14.666   7.645  0.0874 -0.2089  0.1646
  876YOPE   NH311983  12.922   7.498   6.182  0.1838  0.0221  0.0647
  876YOPE   PO411984  13.140   7.055   6.138 -0.1931 -0.1551 -0.0518
  876YOPE   GL111985  13.260   6.929   6.486  0.2865  0.1027  0.0618
  876YOPE   GL211986  13.377   6.633   6.415 -0.0642  0.1284  0.1264
  876YOPE   C1A11987  13.301   7.069   6.921 -0.1812  0.3744  0.4823
  876YOPE   D2A11988  13.208   7.161   7.199 -0.3614  0.0228  0.0063
  876YOPE   C3A11989  13.228   7.479   7.417  0.0995  0.0945 -0.0879
  876YOPE   C4A11990  13.061   7.614   7.780  0.0369  0.1585  0.0153
  876YOPE   C1B11991  13.452   6.589   6.791 -0.2492 -0.4991 -0.0372
  876YOPE   C2B11992  13.384   6.690   7.290  0.0445 -0.3302  0.0055
  876YOPE   D3B11993  13.337   6.691   7.655  0.1269 -0.1397 -0.1421
  876YOPE   C4B11994  13.252   6.773   8.105  0.1651 -0.0440 -0.2105
  877YOPE   NH311995   0.490  17.636   5.659  0.3623 -0.0135 -0.4164
  877YOPE   PO411996   0.607  17.193   5.737 -0.1249 -0.0204 -0.4096
  877YOPE   GL111997   0.966  17.211   6.175  0.6345 -0.0617  0.0343
  877YOPE   GL211998   1.193  17.462   6.230  0.1423 -0.0397 -0.1577
  877YOPE   C1A11999   1.172  17.111   6.610 -0.3089 -0.3201 -0.0073
  877YOPE   D2A12000   1.148  17.254   7.002 -0.3850  0.0521  0.4291
  877YOPE   C3A12001   1.188  17.219   7.314 -0.1114 -0.0005  0.0436
  877YOPE   C4A12002   0.996  17.033   7.727  0.0364  0.2649  0.1390
  877YOPE   C1B12003   1.168  17.913   6.184 -0.1230 -0.0503 -0.0427
  877YOPE   C2B12004   0.790  18.141   6.289 -0.1504  0.0198 -0.2102
  877YOPE   D3B12005   0.614  18.343   6.684 -0.0106 -0.2881 -0.0978
  877YOPE   C4B12006   0.514  18.535   7.048  0.1335  0.1129 -0.0992
  878YOPE   NH312007   1.633   6.631   5.915 -0.3747  0.0691 -0.2015
  878YOPE   PO412008   1.279   6.941   5.776  0.1298  0.0556 -0.0884
  878YOPE   GL112009   0.958   7.052   6.087  0.1916 -0.0619 -0.1943
  878YOPE   GL212010   0.939   6.811   6.175 -0.3853  0.1582 -0.0187
  878YOPE   C1A12011   0.870   7.218   6.513 -0.0083 -0.0818 -0.0486
  878YOPE   D2A12012   0.834   7.253   6.967  0.0851 -0.0024  0.0375
  878YOPE   C3A12013   0.450   7.119   7.207  0.1449 -0.2484  0.1869
  878YOPE   C4A12014   0.268   6.871   7.490 -0.1453  0.3653  0.1360
  878YOPE   C1B12015   0.798   6.743   6.683  0.1958 -0.0071  0.1914
  878YOPE   C2B12016   0.852   6.750   7.055 -0.0595  0.0070 -0.0293
  878YOPE   D3B12017   0.908   6.935   7.359  0.2781  0.1590 -0.0149
  878YOPE   C4B12018   1.078   6.913   7.714 -0.0387  0.1520 -0.2220
  879YOPE   NH312019  14.695  11.255   5.795 -0.1275 -0.1660 -0.0583
  879YOPE   PO412020  14.780  10.844   5.795  0.1201  0.4331 -0.0777
  879YOPE   GL112021  14.672  10.893   6.200  0.0008  0.0397  0.3408
  879YOPE   GL212022  14.672  11.159   6.298  0.0282 -0.3323 -0.4453
  879YOPE   C1A12023  14.864  10.821   6.578 -0.1288  0.0670  0.2137
  879YOPE   D2A12024  15.091  10.620   6.869  0.0690  0.0235 -0.3774
  879YOPE   C3A12025  15.574  10.593   7.002 -0.2977  0.0810 -0.0959
  879YOPE   C4A12026  15.942  10.356   6.820 -0.1540  0.0069  0.1519
  879YOPE   C1B12027  14.742  11.294   6.766  0.0931 -0.0213 -0.1494
  879YOPE   C2B12028  14.829  11.087   7.138 -0.1170  0.0638 -0.0962
  879YOPE   D3B12029  15.090  10.793   7.406 -0.3311  0.1291 -0.1470
  879YOPE   C4B12030  15.350  10.682   7.767  0.0719  0.0286 -0.2109
  880YOPE   NH312031   8.644   0.797   5.989 -0.0221  0.2395 -0.0525
  880YOPE   PO412032   8.544   0.415   5.866  0.0221 -0.0122 -0.0668
  880YOPE   GL112033   8.462   0.376   6.324  0.0057 -0.1675  0.0268
  880YOPE   GL212034   8.394   0.697   6.434 -0.0434 -0.0821 -0.3339
  880YOPE   C1A12035   8.451   0.228   6.766 -0.0767  0.0740 -0.1597
  880YOPE   D2A12036   8.628   0.214   7.198  0.2552 -0.0083 -0.1639
  880YOPE   C3A12037   9.010   0.414   7.190 -0.1379 -0.1084 -0.0949
  880YOPE   C4A12038   9.451   0.320   7.209  0.2409  0.1453  0.1631
  880YOPE   C1B12039   8.684   0.685   6.857 -0.1570  0.2881  0.2026
  880YOPE   C2B12040   8.726   0.818   7.249  0.1719  0.1607  0.0304
  880YOPE   D3B12041   8.707   0.554   7.650 -0.2529 -0.0112  0.0210
  880YOPE   C4B12042   8.961   0.327   7.834 -0.0116  0.1328  0.1346
  881YOPE   NH312043   8.354   5.587   6.044  0.1219  0.1363  0.2800
  881YOPE   PO412044   7.984   5.730   6.046 -0.1471 -0.0643  0.2788
  881YOPE   GL112045   7.889   5.555   6.402 -0.1713 -0.2007  0.0704
  881YOPE   GL212046   7.539   5.623   6.452 -0.0365  0.1816  0.0582
  881YOPE   C1A12047   7.862   5.284   6.676 -0.1576 -0.2083 -0.0424
  881YOPE   D2A12048   7.841   4.935   6.971  0.2693 -0.0515  0.2774
  881YOPE   C3A12049   7.869   4.881   7.393 -0.2694 -0.0071  0.1068
  881YOPE   C4A12050   7.791   5.176   7.684  0.2216  0.0447  0.0971
  881YOPE   C1B12051   7.538   5.598   6.887 -0.0328  0.3588  0.0560
  881YOPE   C2B12052   7.869   5.455   7.187  0.2682 -0.1054 -0.0511
  881YOPE   D3B12053   8.124   5.540   7.565 -0.1704 -0.0782  0.0729
  881YOPE   C4B12054   8.328   5.351   7.966  0.1117 -0.2491  0.0960
  882YOPE   NH312055   2.648   8.906   5.820  0.1505  0.1210 -0.0910
  882YOPE   PO412056   2.731   8.550   5.732  0.0325 -0.1621 -0.0676
  882YOPE   GL112057   2.636   8.205   6.034 -0.1545 -0.0979 -0.2928
  882YOPE   GL212058   2.344   8.089   6.024  0.0261 -0.0257 -0.3123
  882YOPE   C1A12059   2.852   7.965   6.308 -0.1010 -0.0240 -0.0765
  882YOPE   D2A12060   3.023   7.593   6.328  0.2848  0.0667  0.3392
  882YOPE   C3A12061   2.998   7.468   6.748  0.0163 -0.2506 -0.1232
  882YOPE   C4A12062   3.203   7.212   7.006  0.0775 -0.1163 -0.0847
  882YOPE   C1B12063   2.270   7.917   6.399  0.2568  0.2937  0.3739
  882YOPE   C2B12064   2.090   7.756   6.743  0.0528 -0.0078 -0.0166
  882YOPE   D3B12065   2.226   7.735   7.283  0.1341  0.1437  0.1928
  882YOPE   C4B12066   2.157   7.621   7.676 -0.0429  0.1432 -0.0664
  883YOPE   NH312067   3.579   2.305   5.840 -0.0297  0.2720  0.1116
  883YOPE   PO412068   3.898   2.631   5.819 -0.1339  0.0160  0.1207
  883YOPE   GL112069   4.009   2.576   6.206 -0.0968 -0.0091 -0.0261
  883YOPE   GL212070   3.929   2.756   6.375 -0.0205  0.4560  0.1015
  883YOPE   C1A12071   4.191   2.333   6.533  0.2552 -0.3527  0.1676
  883YOPE   D2A12072   4.391   2.272   6.853 -0.1465  0.0409 -0.0846
  883YOPE   C3A12073   4.174   1.935   7.026 -0.0810 -0.0232 -0.1681
  883YOPE   C4A12074   4.048   1.964   7.438  0.0630 -0.1491 -0.1338
  883YOPE   C1B12075   3.748   2.828   6.836 -0.2006 -0.0299  0.0924
  883YOPE   C2B12076   3.702   2.790   7.314  0.2426  0.1244 -0.2977
  883YOPE   D3B12077   3.478   2.668   7.695 -0.1653  0.0540 -0.0239
  883YOPE   C4B12078   3.364   2.855   8.140  0.0024  0.2478  0.1090
  884YOPE   NH312079  11.703  16.464   5.839  0.1503  0.1169 -0.0994
  884YOPE   PO412080  11.448  16.350   6.195 -0.1275  0.0168  0.2005
  884YOPE   GL112081  11.337  16.392   6.510  0.2999 -0.3677 -0.2084
  884YOPE   GL212082  11.401  16.666   6.683  0.2271 -0.0017 -0.2341
  884YOPE   C1A12083  11.155  16.275   6.918  0.0255  0.1543  0.0706
  884YOPE   D2A12084  11.119  16.299   7.377  0.2562 -0.3293  0.0772
  884YOPE   C3A12085  11.085  15.983   7.713  0.0208  0.1566 -0.3803
  884YOPE   C4A12086  11.050  15.789   8.098 -0.0960 -0.1633  0.0033
  884YOPE   C1B12087  11.458  16.603   7.121 -0.0449 -0.3541  0.1612
  884YOPE   C2B12088  11.438  16.857   7.482  0.0662  0.2042  0.1850
  884YOPE   D3B12089  11.460  16.984   7.910 -0.0724  0.1418 -0.0920
  884YOPE   C4B12090  11.710  16.562   8.154  0.0466  0.0970  0.1861
  885YOPE   NH312091   0.604   9.552   6.042  0.1239  0.0996  0.0006
  885YOPE   PO412092   0.605   9.118   5.969  0.1140 -0.1039 -0.1641
  885YOPE   GL112093   0.587   8.802   6.181 -0.1594 -0.1202 -0.3971
  885YOPE   GL212094   0.874   8.630   6.325 -0.1333 -0.0451  0.2241
  885YOPE   C1A12095   0.383   8.331   6.379 -0.1263  0.1023 -0.0289
  885YOPE   D2A12096   0.404   8.007   6.751  0.1810  0.1073 -0.2371
  885YOPE   C3A12097   0.182   8.024   7.103 -0.3151 -0.0388  0.1044
  885YOPE   C4A12098   0.076   8.106   7.509  0.1133  0.2311 -0.2746
  885YOPE   C1B12099   0.876   8.738   6.742 -0.0850  0.3058  0.2513
  885YOPE   C2B12100   1.005   8.694   7.152 -0.1214 -0.1548  0.0697
  885YOPE   D3B12101   1.066   8.645   7.515  0.1033  0.3416 -0.1225
  885YOPE   C4B12102   1.011   8.358   7.809 -0.0697 -0.1355  0.1316
  886YOPE   NH312103  16.876  14.586   5.835 -0.0304  0.1359  0.2163
  886YOPE   PO412104  16.454  14.967   5.753  0.1698  0.0492  0.0303
  886YOPE   GL112105  16.203  14.796   6.173 -0.0096 -0.0190 -0.1786
  886YOPE   GL212106  16.164  15.173   6.234 -0.3734  0.2642  0.1700
  886YOPE   C1A12107  16.274  14.691   6.480 -0.1766 -0.0947 -0.1026
  886YOPE   D2A12108  16.433  14.449   6.800 -0.1416  0.3111 -0.1485
  886YOPE   C3A12109  16.280  14.316   7.152 -0.1217  0.1401 -0.4768
  886YOPE   C4A12110  16.157  14.347   7.583  0.1262  0.1392 -0.0923
  886YOPE   C1B12111  15.957  15.138   6.582  0.0011  0.0667  0.0419
  886YOPE   C2B12112  16.000  15.149   7.015 -0.1583  0.0656 -0.1642
  886YOPE   D3B12113  15.985  15.121   7.468  0.1791  0.3363 -0.0929
  886YOPE   C4B12114  15.770  15.219   7.863  0.0189  0.0083 -0.1702
  887YOPE   NH312115   5.333  11.815   5.657 -0.3164 -0.4328 -0.0080
  887YOPE   PO412116   4.868  11.970   5.794 -0.0373  0.0773  0.1572
  887YOPE   GL112117   4.767  12.009   6.243  0.0146  0.0554  0.1292
  887YOPE   GL212118   4.761  12.301   6.303 -0.1243 -0.0513 -0.3617
  887YOPE   C1A12119   4.935  11.847   6.674 -0.0518  0.0487  0.0755
  887YOPE   D2A12120   4.837  11.723   7.028  0.1896 -0.1330  0.1240
  887YOPE   C3A12121   5.157  11.770   7.496 -0.0113  0.0571  0.1632
  887YOPE   C4A12122   5.217  12.145   7.810  0.0683  0.1014  0.2439
  887YOPE   C1B12123   4.792  12.293   6.846 -0.2933  0.0375  0.1152
  887YOPE   C2B12124   4.889  12.219   7.270 -0.0358 -0.0875 -0.3007
  887YOPE   D3B12125   4.768  12.285   7.698 -0.0629  0.4885 -0.3433
  887YOPE   C4B12126   4.363  12.299   8.028  0.2475  0.2479  0.0785
  888YOPE   NH312127  13.450  14.991   5.548 -0.2034 -0.0193  0.1059
  888YOPE   PO412128  13.057  14.788   5.743  0.2593 -0.0882  0.0902
  888YOPE   GL112129  13.311  14.485   5.954 -0.1467 -0.2532  0.4789
  888YOPE   GL212130  13.170  14.315   6.022  0.3623  0.1771  0.1350
  888YOPE   C1A12131  13.593  14.511   6.268  0.0727 -0.1061  0.1620
  888YOPE   D2A12132  13.839  14.370   6.464 -0.0598 -0.2343  0.0203
  888YOPE   C3A12133  13.816  14.323   6.879  0.0773 -0.2161 -0.0354
  888YOPE   C4A12134  13.814  14.226   7.327  0.3339 -0.3529 -0.2377
  888YOPE   C1B12135  13.410  14.002   6.319 -0.3847 -0.0415 -0.1214
  888YOPE   C2B12136  13.655  13.617   6.287  0.0436  0.0930 -0.2592
  888YOPE   D3B12137  13.687  13.214   6.444  0.0231 -0.0581  0.3227
  888YOPE   C4B12138  13.689  13.032   6.732  0.0056 -0.2931 -0.1719
  889YOPE   NH312139   1.945   1.322   5.961 -0.0612  0.2210  0.0596
  889YOPE   PO412140   1.419   1.445   6.040 -0.2961  0.0291 -0.2004
  889YOPE   GL112141   1.211   1.676   6.316  0.0816 -0.0814 -0.1700
  889YOPE   GL212142   1.456   1.882   6.462 -0.3244 -0.0147  0.0352
  889YOPE   C1A12143   1.007   1.852   6.739 -0.0591 -0.1621  0.0212
  889YOPE   D2A12144   1.026   1.748   7.226 -0.1861  0.3429 -0.4086
  889YOPE   C3A12145   1.196   2.129   7.490  0.0032 -0.1875  0.0106
  889YOPE   C4A12146   1.214   2.439   7.806  0.0418  0.3671  0.0558
  889YOPE   C1B12147   1.795   2.038   6.694 -0.0200 -0.4148 -0.1251
  889YOPE   C2B12148   1.873   2.024   7.098  0.2091 -0.3078 -0.0585
  889YOPE   D3B12149   1.757   2.232   7.535  0.0859  0.3053  0.1703
  889YOPE   C4B12150   1.506   1.981   7.852  0.0418 -0.0934  0.0119
  890YOPE   NH312151  17.171   4.748   6.179  0.0591  0.0500  0.3167
  890YOPE   PO412152  16.788   4.852   6.304 -0.5491  0.0847 -0.0690
  890YOPE   GL112153  16.872   5.043   6.569 -0.0219 -0.0133  0.1320
  890YOPE   GL212154  17.133   5.232   6.435  0.0096 -0.0070 -0.0562
  890YOPE   C1A12155  17.027   5.084   6.927  0.1376  0.2585 -0.0173
  890YOPE   D2A12156  17.024   5.204   7.374  0.1380 -0.2396 -0.0598
  890YOPE   C3A12157  16.856   4.882   7.556  0.0273 -0.1392  0.0324
  890YOPE   C4A12158  16.704   4.830   8.026 -0.2012  0.1876 -0.0047
  890YOPE   C1B12159  17.401   5.314   6.683 -0.1318  0.0668  0.0806
  890YOPE   C2B12160  17.486   5.259   7.146  0.4442  0.1099 -0.0760
  890YOPE   D3B12161  17.621   5.050   7.643  0.1484 -0.0611 -0.0242
  890YOPE   C4B12162  17.675   4.832   7.976  0.0458  0.3370  0.1549
  891YOPE   NH312163   6.579   7.410   6.040  0.0700  0.0177  0.4179
  891YOPE   PO412164   6.120   7.515   6.092  0.1698 -0.1196  0.0185
  891YOPE   GL112165   6.173   7.588   6.467 -0.3901  0.1450  0.1104
  891YOPE   GL212166   6.464   7.535   6.510  0.0625 -0.3943 -0.2049
  891YOPE   C1A12167   5.962   7.636   6.842 -0.0290 -0.0147  0.1679
  891YOPE   D2A12168   5.917   7.319   7.132 -0.0803  0.0491 -0.1831
  891YOPE   C3A12169   5.882   7.096   7.522 -0.0094  0.0456  0.0465
  891YOPE   C4A12170   5.954   6.766   7.859 -0.0982  0.0456  0.0002
  891YOPE   C1B12171   6.443   7.434   6.907  0.1428 -0.1074 -0.0063
  891YOPE   C2B12172   6.282   7.449   7.374  0.2600 -0.0265 -0.2209
  891YOPE   D3B12173   6.035   7.521   7.714  0.1552 -0.1590 -0.0173
  891YOPE   C4B12174   5.966   7.663   8.253 -0.1856  0.0731  0.1548
  892YOPE   NH312175  10.270  14.807   5.793 -0.0434  0.0046  0.0372
  892YOPE   PO412176  10.441  15.190   5.935 -0.3447  0.0002  0.2345
  892YOPE   GL112177  10.390  15.088   6.327  0.1156  0.0385 -0.0863
  892YOPE   GL212178  10.732  15.160   6.308 -0.3559  0.0176  0.2808
  892YOPE   C1A12179  10.438  14.974   6.729 -0.2256 -0.0461  0.2729
  892YOPE   D2A12180  10.539  14.895   7.144 -0.0397 -0.1287  0.0873
  892YOPE   C3A12181  10.264  14.628   7.469 -0.2038 -0.3691  0.3680
  892YOPE   C4A12182   9.812  14.692   7.375 -0.0213  0.2285 -0.0184
  892YOPE   C1B12183  10.979  15.135   6.681 -0.3264  0.0731  0.0492
  892YOPE   C2B12184  11.075  15.130   7.109 -0.0804  0.2315 -0.0020
  892YOPE   D3B12185  11.349  14.837   7.310  0.4006  0.0639 -0.2074
  892YOPE   C4B12186  11.687  14.884   7.594 -0.1109  0.0684 -0.2319
  893YOPE   NH312187   4.093  14.320   5.641  0.0646 -0.0735  0.1803
  893YOPE   PO412188   3.694  14.227   5.783  0.1556  0.3605 -0.1421
  893YOPE   GL112189   3.630  14.206   6.188  0.0460 -0.1576  0.1421
  893YOPE   GL212190   3.309  14.307   6.343  0.2015 -0.3162  0.0789
  893YOPE   C1A12191   3.722  14.410   6.665  0.0658  0.3341 -0.1740
  893YOPE   D2A12192   3.735  14.530   7.116  0.0166  0.1367 -0.2992
  893YOPE   C3A12193   3.959  14.443   7.465 -0.0309 -0.0578  0.2558
  893YOPE   C4A12194   4.190  14.305   7.893  0.0154  0.2692  0.1787
  893YOPE   C1B12195   3.222  14.280   6.787 -0.1867 -0.0195  0.1558
  893YOPE   C2B12196   3.293  14.195   7.173 -0.2001  0.0018  0.0731
  893YOPE   D3B12197   3.572  14.090   7.519  0.0390 -0.0494 -0.1154
  893YOPE   C4B12198   3.905  13.915   7.820 -0.3248  0.1235 -0.1182
  894YOPE   NH312199   1.415  13.367   5.841  0.1086 -0.1326  0.0624
  894YOPE   PO412200   1.960  13.450   5.771 -0.0274 -0.1166  0.0724
  894YOPE   GL112201   1.948  13.373   6.187  0.0647 -0.0033 -0.0864
  894YOPE   GL212202   2.144  13.273   6.409  0.1054 -0.1557  0.1355
  894YOPE   C1A12203   1.609  13.371   6.494 -0.0697 -0.0868  0.3108
  894YOPE   D2A12204   1.403  13.058   6.779  0.0103  0.0270 -0.3015
  894YOPE   C3A12205   1.241  12.637   6.614  0.1576 -0.5691  0.0756
  894YOPE   C4A12206   0.840  12.375   6.629 -0.2999 -0.2046  0.3859
  894YOPE   C1B12207   2.333  13.232   6.748 -0.4092  0.0648 -0.0787
  894YOPE   C2B12208   2.490  12.969   7.134 -0.2229  0.0097 -0.1844
  894YOPE   D3B12209   2.411  13.087   7.541 -0.1983 -0.0225 -0.0663
  894YOPE   C4B12210   2.427  13.110   7.974 -0.1737 -0.1284 -0.1542
  895YOPE   NH312211  17.219   3.595   5.775  0.1242 -0.0604  0.0296
  895YOPE   PO412212  17.570   3.914   5.893 -0.2652  0.1870  0.1516
  895YOPE   GL112213  17.705   3.864   6.287 -0.0439  0.1272  0.0642
  895YOPE   GL212214  17.962   3.713   6.331 -0.0676  0.2996 -0.4340
  895YOPE   C1A12215  17.946   3.833   6.819 -0.0672 -0.1012 -0.0848
  895YOPE   D2A12216  18.047   3.821   7.203  0.3550  0.1656 -0.1238
  895YOPE   C3A12217  18.158   3.626   7.616  0.3288  0.4551 -0.0668
  895YOPE   C4A12218  18.250   3.673   8.056  0.0651  0.0953 -0.1309
  895YOPE   C1B12219  18.124   3.324   6.450 -0.0396 -0.0778  0.2323
  895YOPE   C2B12220  17.952   2.895   6.525 -0.0199 -0.2752  0.1747
  895YOPE   D3B12221  17.814   2.500   6.422  0.0423  0.2338 -0.0040
  895YOPE   C4B12222  17.985   2.194   6.193  0.1679 -0.1278 -0.1633
  896YOPE   NH312223  11.127   6.835   5.852 -0.0979 -0.3663  0.0827
  896YOPE   PO412224  10.896   7.161   5.777  0.1706 -0.2113  0.2015
  896YOPE   GL112225  10.901   7.181   6.230 -0.0789  0.2975 -0.2237
  896YOPE   GL212226  11.145   7.445   6.339  0.1494 -0.0222  0.2536
  896YOPE   C1A12227  10.708   7.406   6.596 -0.4640 -0.0667  0.1977
  896YOPE   D2A12228  10.680   7.454   7.043 -0.1785 -0.2060 -0.2375
  896YOPE   C3A12229  10.611   7.245   7.389  0.0278 -0.2186  0.0521
  896YOPE   C4A12230  10.323   7.136   7.678 -0.0650  0.1556  0.0921
  896YOPE   C1B12231  11.150   7.285   6.777 -0.0197 -0.1028 -0.0814
  896YOPE   C2B12232  11.142   7.240   7.144 -0.0574 -0.0263  0.2039
  896YOPE   D3B12233  11.099   7.007   7.501  0.0769 -0.0900 -0.0008
  896YOPE   C4B12234  11.367   6.760   7.792  0.0305  0.1427  0.4025
  897YOPE   NH312235   9.060   8.075   6.032  0.0631 -0.0190 -0.2125
  897YOPE   PO412236   8.643   7.788   6.228  0.0309 -0.0056  0.0451
  897YOPE   GL112237   8.325   7.972   6.524 -0.0673  0.0228  0.0377
  897YOPE   GL212238   8.113   8.237   6.445  0.0613  0.0344  0.2571
  897YOPE   C1A12239   8.434   8.143   6.893 -0.0731  0.0638 -0.2969
  897YOPE   D2A12240   8.619   8.492   7.238  0.5356 -0.0934 -0.1024
  897YOPE   C3A12241   8.681   8.589   7.566  0.1801 -0.1617 -0.1044
  897YOPE   C4A12242   8.687   8.557   8.084 -0.1475 -0.0669 -0.1325
  897YOPE   C1B12243   7.910   8.174   6.778  0.0374 -0.1083  0.1425
  897YOPE   C2B12244   8.035   8.180   7.242 -0.0528 -0.0727  0.0480
  897YOPE   D3B12245   8.091   8.479   7.503  0.0684  0.0970  0.1233
  897YOPE   C4B12246   8.265   8.809   7.859 -0.0679 -0.1640 -0.1969
  898YOPE   NH312247  15.672  13.548   5.613  0.2769 -0.0775 -0.0517
  898YOPE   PO412248  16.009  13.648   5.926  0.1683  0.1797 -0.1303
  898YOPE   GL112249  15.674  13.704   6.084  0.0400 -0.0561 -0.0282
  898YOPE   GL212250  15.807  13.709   6.404 -0.0711  0.0452  0.1645
  898YOPE   C1A12251  15.404  13.466   6.233 -0.1770 -0.0549  0.2261
  898YOPE   D2A12252  15.037  13.411   6.462  0.0401  0.0065 -0.4501
  898YOPE   C3A12253  14.756  13.097   6.426 -0.3315 -0.0067 -0.2221
  898YOPE   C4A12254  14.490  12.875   6.415 -0.1591 -0.0410 -0.1330
  898YOPE   C1B12255  15.585  13.607   6.717  0.0062  0.1142 -0.0303
  898YOPE   C2B12256  15.559  13.598   7.203  0.0841 -0.0254  0.1054
  898YOPE   D3B12257  15.322  13.655   7.645 -0.0189  0.1168  0.0089
  898YOPE   C4B12258  15.392  13.494   8.071 -0.2265  0.0377  0.0799
  899YOPE   NH312259  14.036  13.738   5.363  0.1168 -0.0811  0.0267
  899YOPE   PO412260  14.215  13.725   5.781 -0.1081 -0.1357  0.1645
  899YOPE   GL112261  14.133  13.967   6.139  0.1387 -0.0780  0.0658
  899YOPE   GL212262  14.235  14.268   6.178  0.2944  0.1355 -0.0269
  899YOPE   C1A12263  14.039  13.798   6.615  0.1333 -0.0819 -0.1533
  899YOPE   D2A12264  13.967  13.899   6.956 -0.1441  0.1478  0.2562
  899YOPE   C3A12265  14.026  13.769   7.301 -0.0365 -0.1273 -0.1782
  899YOPE   C4A12266  13.917  13.413   7.654  0.0760 -0.0277  0.2148
  899YOPE   C1B12267  14.310  14.232   6.596 -0.0545  0.1271  0.0174
  899YOPE   C2B12268  14.363  14.221   7.048  0.1687  0.1031 -0.0561
  899YOPE   D3B12269  14.288  14.162   7.464 -0.0096  0.1299 -0.1495
  899YOPE   C4B12270  14.020  14.116   7.753  0.0149  0.0299  0.2298
  900YOPE   NH312271   8.539   4.011   6.134  0.0794 -0.0882  0.0323
  900YOPE   PO412272   9.006   3.784   6.190  0.1440  0.0625 -0.0524
  900YOPE   GL112273   8.929   4.080   6.522 -0.0776 -0.0423  0.0223
  900YOPE   GL212274   8.681   4.263   6.588  0.2082 -0.0541  0.2907
  900YOPE   C1A12275   8.822   4.002   6.993  0.1840 -0.0712  0.0883
  900YOPE   D2A12276   8.766   4.155   7.368  0.2476  0.0981  0.0735
  900YOPE   C3A12277   8.494   4.040   7.653  0.1772 -0.0360 -0.2531
  900YOPE   C4A12278   8.077   4.035   7.889  0.1110  0.2192 -0.3662
  900YOPE   C1B12279   8.639   4.439   6.944 -0.0175  0.1023 -0.0545
  900YOPE   C2B12280   8.573   4.628   7.394  0.1725  0.1157  0.1096
  900YOPE   D3B12281   8.597   4.609   7.824 -0.0905  0.0624  0.0191
  900YOPE   C4B12282   8.361   4.384   8.151  0.0845 -0.0810 -0.0436
  901YOPE   NH312283   3.835  16.561   6.063 -0.0354 -0.0812  0.0567
  901YOPE   PO412284   3.460  16.301   5.967  0.2515  0.0996  0.0920
  901YOPE   GL112285   3.303  15.998   6.295 -0.0802 -0.1689 -0.0436
  901YOPE   GL212286   3.502  15.710   6.382 -0.1024 -0.1600  0.1412
  901YOPE   C1A12287   3.061  16.039   6.648  0.1729 -0.0225  0.2055
  901YOPE   D2A12288   2.834  15.936   6.938 -0.1028  0.0453  0.1594
  901YOPE   C3A12289   2.758  16.218   7.309 -0.1401  0.3799  0.2664
  901YOPE   C4A12290   2.652  16.123   7.710  0.2705 -0.0844 -0.2722
  901YOPE   C1B12291   3.854  15.771   6.646 -0.1186 -0.0537 -0.0353
  901YOPE   C2B12292   4.317  15.669   6.740 -0.0257 -0.3435 -0.0089
  901YOPE   D3B12293   4.565  15.716   7.190  0.1868  0.1187 -0.3046
  901YOPE   C4B12294   4.821  15.673   7.511  0.1038  0.3656  0.3101
  902YOPE   NH312295  10.357  10.797   5.871 -0.0099  0.1933 -0.0582
  902YOPE   PO412296  10.150  11.164   6.084 -0.2201 -0.1449  0.0370
  902YOPE   GL112297  10.117  11.208   6.466  0.0595  0.0698 -0.1609
  902YOPE   GL212298   9.913  11.361   6.532 -0.3904  0.4408  0.2821
  902YOPE   C1A12299  10.063  11.145   6.955 -0.0681  0.1194  0.0410
  902YOPE   D2A12300   9.755  11.062   7.278  0.3004 -0.2876 -0.1189
  902YOPE   C3A12301   9.885  10.781   7.695 -0.1909  0.1722  0.4210
  902YOPE   C4A12302  10.115  10.603   8.045 -0.0191  0.2436  0.0777
  902YOPE   C1B12303   9.763  11.529   7.009  0.2666  0.0785 -0.0055
  902YOPE   C2B12304   9.641  11.521   7.459 -0.1621  0.1965 -0.0863
  902YOPE   D3B12305   9.350  11.439   7.803 -0.1812 -0.0464  0.1234
  902YOPE   C4B12306   9.094  11.498   8.231 -0.2687 -0.0221 -0.0001
  903YOPE   NH312307  10.074  16.003   5.870 -0.1013  0.1878  0.0247
  903YOPE   PO412308  10.547  16.238   5.924 -0.1138 -0.1341 -0.0190
  903YOPE   GL112309  10.376  16.084   6.274  0.2027 -0.0004  0.1945
  903YOPE   GL212310  10.376  16.368   6.491 -0.0407 -0.0175  0.0958
  903YOPE   C1A12311  10.290  15.911   6.621  0.1862 -0.0121 -0.0466
  903YOPE   D2A12312  10.218  16.055   7.086  0.1015 -0.0343 -0.0317
  903YOPE   C3A12313  10.317  15.764   7.501 -0.0796 -0.2334 -0.0677
  903YOPE   C4A12314  10.676  15.608   7.801  0.1883  0.0483  0.0992
  903YOPE   C1B12315  10.718  16.148   6.693  0.0213  0.0488  0.0305
  903YOPE   C2B12316  10.715  16.049   7.126  0.3208 -0.3052 -0.0680
  903YOPE   D3B12317  10.801  15.948   7.363 -0.2501  0.0797  0.1241
  903YOPE   C4B12318  10.964  15.477   7.432 -0.2488  0.0694  0.0905
  904YOPE   NH312319  16.553  13.152   5.849 -0.1329  0.0936 -0.0118
  904YOPE   PO412320  16.193  13.170   5.884 -0.1097 -0.1420  0.1207
  904YOPE   GL112321  16.203  13.105   6.297  0.3026 -0.0657 -0.0168
  904YOPE   GL212322  16.510  13.023   6.335  0.3778 -0.0779  0.0171
  904YOPE   C1A12323  16.112  12.936   6.698  0.0320  0.1018 -0.1673
  904YOPE   D2A12324  16.083  12.564   7.074 -0.1000  0.2087 -0.0204
  904YOPE   C3A12325  16.009  12.624   7.531  0.1160 -0.0298 -0.1744
  904YOPE   C4A12326  16.045  12.369   7.938 -0.1205 -0.0849  0.1787
  904YOPE   C1B12327  16.638  13.187   6.701  0.0843 -0.1110  0.1298
  904YOPE   C2B12328  16.380  13.239   7.090  0.0019  0.0555 -0.1459
  904YOPE   D3B12329  16.071  13.210   7.343  0.2986 -0.1182 -0.0303
  904YOPE   C4B12330  15.689  13.330   7.658  0.2018 -0.1618 -0.0209
  905YOPE   NH312331   0.822  14.764   5.669 -0.0406  0.1001  0.0693
  905YOPE   PO412332   0.702  14.387   5.791 -0.1472 -0.2159  0.1258
  905YOPE   GL112333   0.613  14.389   6.285  0.0120  0.2090 -0.1958
  905YOPE   GL212334   0.386  14.529   6.423 -0.0986  0.2576 -0.0531
  905YOPE   C1A12335   0.830  14.507   6.642 -0.0312 -0.0012 -0.2828
  905YOPE   D2A12336   0.675  14.753   6.990  0.1025 -0.0890 -0.2014
  905YOPE   C3A12337   0.692  14.814   7.429  0.2114  0.0763  0.2575
  905YOPE   C4A12338   0.732  14.516   7.751  0.0033  0.2447 -0.1075
  905YOPE   C1B12339   0.327  14.543   6.708 -0.0785 -0.1101  0.2353
  905YOPE   C2B12340   0.280  14.449   7.082  0.2691 -0.2208 -0.1004
  905YOPE   D3B12341   0.223  14.697   7.367 -0.0840  0.0213  0.2247
  905YOPE   C4B12342   0.238  14.666   7.830 -0.0852  0.0148 -0.1329
  906YOPE   NH312343  16.652   5.415   6.323 -0.1154  0.1169 -0.1605
  906YOPE   PO412344  16.326   5.143   6.288  0.0486 -0.0880 -0.1032
  906YOPE   GL112345  16.340   5.027   6.645  0.0367 -0.2712 -0.0152
  906YOPE   GL212346  16.465   4.733   6.748 -0.0351  0.0176 -0.0179
  906YOPE   C1A12347  16.194   5.054   7.048  0.1817 -0.1728 -0.0884
  906YOPE   D2A12348  16.009   5.104   7.487 -0.1264  0.1174 -0.0613
  906YOPE   C3A12349  15.827   5.454   7.649  0.2859  0.1013 -0.1639
  906YOPE   C4A12350  15.589   5.828   7.502 -0.0206  0.1227 -0.1281
  906YOPE   C1B12351  16.666   4.839   7.136 -0.0526 -0.4006 -0.0672
  906YOPE   C2B12352  16.335   4.761   7.530 -0.0101 -0.0731  0.0068
  906YOPE   D3B12353  16.323   4.447   7.911  0.0325 -0.1485 -0.3346
  906YOPE   C4B12354  16.339   4.033   7.953  0.2775  0.1793 -0.2038
  907YOPE   NH312355   5.855   7.097   6.147  0.1304  0.3658 -0.2486
  907YOPE   PO412356   5.998   6.661   5.995  0.0573 -0.1283  0.1576
  907YOPE   GL112357   5.902   6.637   6.390 -0.0517  0.0621  0.2635
  907YOPE   GL212358   5.593   6.711   6.434 -0.4406  0.1568 -0.1121
  907YOPE   C1A12359   5.861   6.381   6.728 -0.1623  0.1022  0.1208
  907YOPE   D2A12360   6.124   6.265   7.069 -0.0526 -0.0724 -0.0312
  907YOPE   C3A12361   5.960   6.194   7.508 -0.1050  0.0075 -0.3190
  907YOPE   C4A12362   5.946   6.292   7.977  0.1514  0.0791 -0.2607
  907YOPE   C1B12363   5.457   6.830   6.844 -0.1946 -0.4659 -0.2436
  907YOPE   C2B12364   5.388   6.923   7.395  0.4243  0.1564 -0.0165
  907YOPE   D3B12365   5.484   6.985   7.859 -0.0729 -0.0120  0.0647
  907YOPE   C4B12366   5.585   7.392   8.052  0.1559 -0.2195 -0.2526
  908YOPE   NH312367   0.895   2.841   5.729 -0.1432 -0.2413  0.0092
  908YOPE   PO412368   0.973   3.371   5.881 -0.0826  0.0785  0.0058
  908YOPE   GL112369   1.175   3.227   6.184  0.0773 -0.1925 -0.1168
  908YOPE   GL212370   1.478   3.256   6.255 -0.2463  0.1051 -0.0511
  908YOPE   C1A12371   1.346   2.929   6.563  0.0911 -0.2158 -0.4271
  908YOPE   D2A12372   1.389   2.987   6.933  0.0458  0.2483 -0.2070
  908YOPE   C3A12373   1.282   3.308   7.130 -0.0027  0.2781  0.1639
  908YOPE   C4A12374   1.294   3.454   7.467  0.0801  0.1100  0.1359
  908YOPE   C1B12375   1.306   3.479   6.648 -0.0202  0.2629 -0.0117
  908YOPE   C2B12376   1.160   3.858   6.824 -0.1018  0.2027  0.3378
  908YOPE   D3B12377   1.337   4.228   6.819 -0.1196  0.1005  0.0350
  908YOPE   C4B12378   1.582   4.394   7.087  0.1658 -0.2408  0.2841
  909YOPE   NH312379   8.759   1.527   6.306 -0.2036 -0.0721 -0.0577
  909YOPE   PO412380   8.436   1.891   6.352 -0.2879  0.1294  0.4121
  909YOPE   GL112381   8.400   2.152   6.781  0.1236 -0.0829  0.0965
  909YOPE   GL212382   8.177   2.251   6.888 -0.1397 -0.1554  0.3050
  909YOPE   C1A12383   8.515   2.060   7.187 -0.2436 -0.0579  0.1173
  909YOPE   D2A12384   8.529   1.843   7.594 -0.1876 -0.0610 -0.1118
  909YOPE   C3A12385   8.465   1.701   7.985 -0.2985 -0.0413  0.0894
  909YOPE   C4A12386   8.334   1.482   8.281  0.0362  0.0368  0.3076
  909YOPE   C1B12387   8.054   2.131   7.402 -0.0244  0.2018  0.1459
  909YOPE   C2B12388   8.209   2.158   7.826  0.2026 -0.3534  0.1153
  909YOPE   D3B12389   8.302   2.086   8.239  0.1201  0.1357  0.3304
  909YOPE   C4B12390   8.240   2.329   8.626  0.0855 -0.0157  0.4524
  910YOPE   NH312391  10.957  11.616   6.028 -0.1587  0.0229 -0.1976
  910YOPE   PO412392  10.715  11.950   6.215 -0.2000 -0.1904 -0.0357
  910YOPE   GL112393  10.764  11.664   6.498 -0.2287  0.1507  0.1125
  910YOPE   GL212394  10.773  11.299   6.488 -0.0639 -0.0229 -0.2887
  910YOPE   C1A12395  10.868  11.441   6.965  0.2358  0.1148  0.2251
  910YOPE   D2A12396  10.743  11.462   7.344  0.0787  0.1079 -0.3479
  910YOPE   C3A12397  11.087  11.366   7.561  0.1906  0.0442 -0.0628
  910YOPE   C4A12398  11.283  11.370   7.907  0.2628 -0.0582 -0.0346
  910YOPE   C1B12399  10.486  11.239   6.747 -0.3501  0.1124 -0.0187
  910YOPE   C2B12400  10.518  10.976   7.079  0.1565 -0.2079 -0.3888
  910YOPE   D3B12401  10.229  10.768   7.277  0.0832  0.1719 -0.1468
  910YOPE   C4B12402  10.028  10.426   7.425 -0.0641  0.0705 -0.0670
  911YOPE   NH312403   9.523   8.999   5.447 -0.0039 -0.3387  0.0326
  911YOPE   PO412404   9.415   9.254   5.754  0.2237  0.1065 -0.2108
  911YOPE   GL112405   9.579   9.254   6.225  0.0735  0.1773 -0.0623
  911YOPE   GL212406   9.892   9.077   6.434  0.0491  0.1552 -0.2189
  911YOPE   C1A12407   9.581   9.304   6.712 -0.2501  0.2238 -0.0088
  911YOPE   D2A12408   9.875   9.243   7.019  0.0460  0.0432 -0.1573
  911YOPE   C3A12409   9.921   9.222   7.471  0.0883 -0.1048  0.1357
  911YOPE   C4A12410  10.146   8.964   7.734  0.0633 -0.2216 -0.3056
  911YOPE   C1B12411   9.989   8.776   6.774 -0.1357  0.1608 -0.1472
  911YOPE   C2B12412   9.959   8.728   7.193  0.2398 -0.0167  0.2061
  911YOPE   D3B12413   9.963   8.518   7.545  0.0297 -0.0733  0.4816
  911YOPE   C4B12414   9.982   8.639   8.035 -0.0554  0.0062 -0.1146
  912YOPE   NH312415  15.131   9.634   6.075  0.0795  0.1494 -0.4088
  912YOPE   PO412416  15.384   9.845   6.297 -0.1779  0.2481  0.1048
  912YOPE   GL112417  15.533   9.683   6.637  0.0792 -0.0980  0.2818
  912YOPE   GL212418  15.376   9.388   6.686  0.2397  0.0462 -0.1080
  912YOPE   C1A12419  15.720   9.561   6.994  0.0179  0.3120  0.1492
  912YOPE   D2A12420  15.818   9.574   7.468  0.1311 -0.3088  0.1685
  912YOPE   C3A12421  15.546   9.613   7.829  0.1357  0.0501 -0.0018
  912YOPE   C4A12422  15.587   9.497   8.259 -0.1618 -0.0039  0.0178
  912YOPE   C1B12423  15.212   9.668   7.056  0.1468 -0.1871  0.0648
  912YOPE   C2B12424  15.039   9.796   7.409 -0.0906  0.2335 -0.0195
  912YOPE   D3B12425  15.052   9.696   7.794 -0.0869  0.2908  0.1335
  912YOPE   C4B12426  15.238   9.851   8.186 -0.1441 -0.0018 -0.1584
  913YOPE   NH312427   1.493  11.033   6.130  0.2165 -0.0890 -0.1729
  913YOPE   PO412428   1.840  11.254   6.063 -0.0890 -0.1944  0.3013
  913YOPE   GL112429   1.775  11.170   6.636  0.1881 -0.1445  0.1455
  913YOPE   GL212430   1.532  11.168   6.718  0.2363 -0.0007  0.1394
  913YOPE   C1A12431   1.929  11.199   7.090 -0.0757 -0.2850 -0.1621
  913YOPE   D2A12432   2.125  11.034   7.431 -0.3140 -0.2190 -0.0293
  913YOPE   C3A12433   1.961  10.663   7.631 -0.4365  0.2369 -0.0428
  913YOPE   C4A12434   2.003  10.523   8.095 -0.0590  0.0448 -0.0323
  913YOPE   C1B12435   1.441  11.265   7.198  0.0579 -0.0227  0.0192
  913YOPE   C2B12436   1.617  11.353   7.582  0.3677  0.0105  0.2511
  913YOPE   D3B12437   1.865  11.122   7.855 -0.1401  0.0320  0.3772
  913YOPE   C4B12438   1.741  10.988   8.137  0.0898  0.2260 -0.1187
  914YOPE   NH312439   7.484   4.759   5.944 -0.3019 -0.0248 -0.0244
  914YOPE   PO412440   7.731   4.404   6.117  0.2594 -0.0940  0.1281
  914YOPE   GL112441   7.742   4.221   6.433 -0.0747  0.0287 -0.0541
  914YOPE   GL212442   7.387   4.156   6.522  0.0095  0.2036 -0.2141
  914YOPE   C1A12443   7.809   4.061   6.861  0.0235  0.1617 -0.0527
  914YOPE   D2A12444   7.807   4.012   7.281  0.1103  0.0460  0.0168
  914YOPE   C3A12445   7.575   4.141   7.781 -0.2537 -0.0453 -0.1362
  914YOPE   C4A12446   7.196   4.279   8.013  0.2315 -0.0631  0.0828
  914YOPE   C1B12447   7.300   4.091   6.959  0.1949 -0.1345 -0.2208
  914YOPE   C2B12448   7.333   3.996   7.307 -0.0731  0.1975  0.2203
  914YOPE   D3B12449   7.189   3.828   7.711  0.1663 -0.0277  0.0629
  914YOPE   C4B12450   7.377   3.814   8.096 -0.3692 -0.1113  0.2586
  915YOPE   NH312451   2.783   2.907   5.809  0.1498  0.0639  0.1014
  915YOPE   PO412452   2.721   3.313   5.729  0.0159 -0.1087  0.1824
  915YOPE   GL112453   2.913   3.421   6.156 -0.0387 -0.0893 -0.0614
  915YOPE   GL212454   2.869   3.167   6.223  0.0469 -0.1332  0.2151
  915YOPE   C1A12455   2.687   3.648   6.521  0.0319 -0.0010 -0.2765
  915YOPE   D2A12456   2.623   3.875   6.878  0.1512  0.0158  0.0036
  915YOPE   C3A12457   2.585   4.115   7.256 -0.1236 -0.1178  0.2252
  915YOPE   C4A12458   2.692   4.203   7.681  0.0838  0.1773 -0.0594
  915YOPE   C1B12459   3.045   3.287   6.631  0.0831  0.2253 -0.1846
  915YOPE   C2B12460   2.950   3.232   7.091  0.3926  0.0950  0.2851
  915YOPE   D3B12461   2.785   3.200   7.461 -0.2212  0.0915  0.0709
  915YOPE   C4B12462   2.525   3.006   7.720  0.0918 -0.1652 -0.0912
  916YOPE   NH312463   7.780   8.316   6.088 -0.1579 -0.0683  0.0991
  916YOPE   PO412464   7.770   8.862   5.973  0.1339  0.0845  0.1126
  916YOPE   GL112465   7.684   9.050   6.411 -0.1182 -0.0063 -0.2626
  916YOPE   GL212466   7.795   8.681   6.535 -0.0953  0.3416 -0.0825
  916YOPE   C1A12467   7.277   8.755   6.703 -0.1515 -0.0567  0.1986
  916YOPE   D2A12468   7.114   8.847   7.069 -0.2631  0.0871 -0.1075
  916YOPE   C3A12469   7.392   8.962   7.406  0.0076  0.1022 -0.4090
  916YOPE   C4A12470   7.608   9.451   7.611 -0.0409 -0.0014  0.3373
  916YOPE   C1B12471   7.693   8.685   6.973  0.1192  0.1367 -0.2300
  916YOPE   C2B12472   7.629   8.505   7.297  0.1453 -0.2575 -0.1075
  916YOPE   D3B12473   7.581   8.519   7.683  0.0243  0.2676 -0.2948
  916YOPE   C4B12474   7.560   8.514   8.010 -0.0306 -0.2293 -0.1589
  917YOPE   NH312475  11.014   5.586   6.181 -0.1058  0.1374 -0.1882
  917YOPE   PO412476  10.525   5.595   6.123  0.1181  0.1404  0.2186
  917YOPE   GL112477  10.630   5.441   6.582  0.0582 -0.1586 -0.1446
  917YOPE   GL212478  10.631   5.124   6.724 -0.0334  0.1814  0.0673
  917YOPE   C1A12479  10.756   5.640   6.961  0.1280 -0.0797  0.3082
  917YOPE   D2A12480  10.903   5.963   7.203  0.0258  0.0883 -0.2590
  917YOPE   C3A12481  11.047   5.896   7.621  0.0118 -0.0945 -0.3621
  917YOPE   C4A12482  11.240   5.903   7.963  0.2057 -0.0931  0.1207
  917YOPE   C1B12483  10.330   5.199   7.007  0.0038 -0.1981 -0.0575
  917YOPE   C2B12484  10.306   5.380   7.381  0.1315  0.1570  0.0949
  917YOPE   D3B12485  10.376   5.412   7.815  0.1301  0.0253  0.3274
  917YOPE   C4B12486  10.544   5.246   8.200 -0.1967  0.0308 -0.0479
  918YOPE   NH312487  17.020  13.717   5.635  0.0004  0.1463 -0.3129
  918YOPE   PO412488  17.459  13.863   5.614  0.2581  0.2536  0.0005
  918YOPE   GL112489  17.587  14.031   6.096  0.0910  0.0513  0.0816
  918YOPE   GL212490  17.396  14.221   6.351  0.0397 -0.2141  0.1128
  918YOPE   C1A12491  17.766  13.904   6.528 -0.0842 -0.2644 -0.2494
  918YOPE   D2A12492  17.738  13.963   6.951 -0.1888  0.3411 -0.1494
  918YOPE   C3A12493  17.863  14.063   7.325 -0.1873 -0.1080 -0.2109
  918YOPE   C4A12494  18.224  14.216   7.551  0.1815  0.1494 -0.1548
  918YOPE   C1B12495  17.402  14.339   6.863 -0.2231 -0.0012 -0.0847
  918YOPE   C2B12496  17.377  14.235   7.223 -0.1789  0.0856  0.0091
  918YOPE   D3B12497  17.263  14.311   7.663  0.2468  0.0098  0.2748
  918YOPE   C4B12498  17.190  14.083   8.078  0.0165  0.1060  0.0144
  919YOPE   NH312499   1.468   9.878   6.157  0.0261 -0.3390 -0.0087
  919YOPE   PO412500   1.558  10.317   6.119  0.1160  0.0523  0.2417
  919YOPE   GL112501   1.864  10.307   6.416 -0.0320 -0.1727  0.0464
  919YOPE   GL212502   2.061  10.647   6.540  0.0318  0.0903  0.1507
  919YOPE   C1A12503   1.892  10.304   6.905 -0.0160  0.0289  0.0139
  919YOPE   D2A12504   1.956  10.376   7.250 -0.0339  0.1383  0.3427
  919YOPE   C3A12505   2.135  10.179   7.549 -0.1485 -0.0935 -0.0771
  919YOPE   C4A12506   1.958  10.050   7.941  0.1441 -0.4232 -0.0388
  919YOPE   C1B12507   2.208  10.690   7.004 -0.1915 -0.2534  0.2866
  919YOPE   C2B12508   2.443  10.592   7.397  0.1878  0.2684 -0.1834
  919YOPE   D3B12509   2.410  10.377   7.922 -0.0886  0.0163 -0.0828
  919YOPE   C4B12510   2.385  10.219   8.368  0.1411  0.0570  0.1368
  920YOPE   NH312511  14.069   4.417   6.263 -0.1456 -0.0057  0.0200
  920YOPE   PO412512  13.600   4.614   6.327 -0.1974  0.2757  0.1327
  920YOPE   GL112513  13.852   4.403   6.734  0.2361 -0.1374 -0.1245
  920YOPE   GL212514  14.084   4.134   6.824 -0.0240 -0.2007  0.1264
  920YOPE   C1A12515  13.775   4.357   7.178  0.1691 -0.0593  0.1652
  920YOPE   D2A12516  14.059   4.249   7.400 -0.0188 -0.0216  0.1761
  920YOPE   C3A12517  14.111   4.464   7.760  0.1188  0.1101  0.1026
  920YOPE   C4A12518  13.806   4.432   8.067 -0.1489 -0.0088 -0.0022
  920YOPE   C1B12519  14.208   3.863   7.061  0.0998  0.0522 -0.1671
  920YOPE   C2B12520  14.148   3.728   7.540 -0.1862 -0.2475  0.3905
  920YOPE   D3B12521  14.183   3.494   7.899  0.0318  0.0809  0.0857
  920YOPE   C4B12522  13.987   3.071   8.057  0.0810 -0.0506  0.1392
  921YOPE   NH312523  17.376  17.644   5.963  0.1357 -0.2763 -0.0660
  921YOPE   PO412524  17.060  17.662   6.051 -0.1169 -0.1390  0.0111
  921YOPE   GL112525  16.859  17.701   6.377 -0.0516  0.1364 -0.5264
  921YOPE   GL212526  16.553  17.752   6.266 -0.0213 -0.0014 -0.3013
  921YOPE   C1A12527  16.649  17.747   6.789  0.2369  0.3236 -0.0913
  921YOPE   D2A12528  16.652  17.786   7.160 -0.0013 -0.0956 -0.2171
  921YOPE   C3A12529  16.265  17.748   7.500 -0.0150 -0.1071  0.3578
  921YOPE   C4A12530  15.826  17.876   7.695  0.2166 -0.2384 -0.1508
  921YOPE   C1B12531  16.240  18.055   6.411  0.0781  0.3198 -0.0146
  921YOPE   C2B12532  16.224  18.243   6.757  0.0867 -0.1404  0.1684
  921YOPE   D3B12533  16.299  18.172   7.187  0.1670 -0.0176  0.0655
  921YOPE   C4B12534  16.549  18.361   7.512  0.3048  0.2371 -0.0161
  922YOPE   NH312535  16.879   7.584   6.117 -0.0792  0.0368  0.0988
  922YOPE   PO412536  17.255   7.436   6.114  0.2938 -0.0141 -0.2345
  922YOPE   GL112537  17.123   7.482   6.545 -0.2107  0.2593  0.2056
  922YOPE   GL212538  17.043   7.833   6.499 -0.2687  0.1182 -0.1409
  922YOPE   C1A12539  16.950   7.585   6.902 -0.1325 -0.0477  0.1742
  922YOPE   D2A12540  16.960   7.489   7.288 -0.0687 -0.0821  0.1293
  922YOPE   C3A12541  17.032   7.787   7.629 -0.1629  0.0916 -0.1490
  922YOPE   C4A12542  17.101   8.127   7.896  0.0158 -0.1367 -0.1329
  922YOPE   C1B12543  17.308   8.292   6.533  0.0276  0.0274 -0.3644
  922YOPE   C2B12544  17.693   8.514   6.747  0.2257  0.2174  0.1066
  922YOPE   D3B12545  18.214   8.438   6.786 -0.2888 -0.1985  0.2845
  922YOPE   C4B12546  18.539   8.724   6.632 -0.2461 -0.0004  0.0931
  923YOPE   NH312547   7.836   9.347   6.089 -0.0652 -0.0564 -0.0276
  923YOPE   PO412548   7.394   9.305   6.012 -0.1975  0.2893  0.1759
  923YOPE   GL112549   7.062   9.158   6.054  0.1611  0.0906  0.0885
  923YOPE   GL212550   6.729   9.204   6.039  0.1013  0.1115 -0.2628
  923YOPE   C1A12551   6.879   8.805   6.331  0.0198  0.0262  0.1080
  923YOPE   D2A12552   6.724   8.771   6.726  0.0010  0.0343  0.1240
  923YOPE   C3A12553   6.554   8.908   7.136 -0.1297 -0.0098 -0.4104
  923YOPE   C4A12554   6.837   9.123   7.467 -0.2252  0.3493  0.1175
  923YOPE   C1B12555   6.710   9.304   6.503  0.2977 -0.1499  0.0977
  923YOPE   C2B12556   7.011   9.301   6.871  0.2320 -0.0864 -0.0348
  923YOPE   D3B12557   7.481   9.216   6.951 -0.0292 -0.0705  0.2032
  923YOPE   C4B12558   7.961   9.117   6.810 -0.1381 -0.4688 -0.0018
  924YOPE   NH312559   6.166   3.424   6.134  0.0826 -0.2610 -0.1399
  924YOPE   PO412560   5.810   3.304   6.113 -0.3295  0.4592  0.0557
  924YOPE   GL112561   5.933   3.155   6.525  0.1372 -0.0051  0.2507
  924YOPE   GL212562   5.665   3.100   6.671 -0.1469  0.2139 -0.1718
  924YOPE   C1A12563   6.135   3.274   6.921  0.2916  0.1052 -0.0287
  924YOPE   D2A12564   6.083   3.147   7.278  0.0973  0.1242 -0.1195
  924YOPE   C3A12565   6.016   3.189   7.710 -0.1530  0.0928  0.2712
  924YOPE   C4A12566   6.125   3.026   8.077 -0.0760  0.1126  0.0468
  924YOPE   C1B12567   5.599   3.153   7.126  0.0800 -0.0908 -0.0140
  924YOPE   C2B12568   5.539   3.317   7.552 -0.2109  0.3683 -0.1716
  924YOPE   D3B12569   5.209   3.274   7.812 -0.0454 -0.1600 -0.3035
  924YOPE   C4B12570   4.741   3.273   7.911  0.0720 -0.0762  0.0444
  925YOPE   NH312571  12.625   8.500   5.979  0.3305  0.0339 -0.0278
  925YOPE   PO412572  12.945   8.273   5.950 -0.3267  0.0205  0.0574
  925YOPE   GL112573  12.991   8.446   6.385  0.1040  0.0172  0.1728
  925YOPE   GL212574  13.210   8.723   6.566  0.2072  0.0325 -0.4827
  925YOPE   C1A12575  12.828   8.338   6.733 -0.0184  0.0573  0.1459
  925YOPE   D2A12576  12.721   8.104   7.076 -0.1878  0.0680 -0.3955
  925YOPE   C3A12577  12.882   7.773   7.118 -0.1481 -0.1410  0.1349
  925YOPE   C4A12578  13.239   7.591   6.850  0.0389 -0.0361 -0.3850
  925YOPE   C1B12579  13.238   8.601   6.985 -0.0878  0.0305 -0.0082
  925YOPE   C2B12580  13.310   8.649   7.457 -0.1191 -0.2497  0.1885
  925YOPE   D3B12581  13.288   8.576   7.925  0.2998  0.1697 -0.0713
  925YOPE   C4B12582  13.377   8.384   8.396 -0.0717  0.3058  0.0120
  926YOPE   NH312583   9.253  16.749   6.123 -0.2916 -0.1570  0.1914
  926YOPE   PO412584   8.916  16.716   5.925 -0.3020 -0.1890 -0.1897
  926YOPE   GL112585   8.660  16.690   6.218  0.2188 -0.2672 -0.2660
  926YOPE   GL212586   8.483  16.893   6.405  0.0023 -0.1703  0.2077
  926YOPE   C1A12587   8.822  16.499   6.633  0.0140 -0.0160 -0.3454
  926YOPE   D2A12588   8.871  16.452   7.089  0.1290 -0.1911 -0.1959
  926YOPE   C3A12589   9.220  16.210   7.238 -0.2009  0.0795  0.0735
  926YOPE   C4A12590   9.256  15.962   7.612  0.4028  0.0030 -0.1323
  926YOPE   C1B12591   8.509  16.812   6.774  0.0965  0.2892 -0.1191
  926YOPE   C2B12592   8.413  16.708   7.214  0.0893  0.1518 -0.1841
  926YOPE   D3B12593   8.348  16.745   7.614 -0.2799 -0.0237  0.0010
  926YOPE   C4B12594   8.052  16.619   7.926 -0.0533 -0.1355  0.0522
  927YOPE   NH312595   3.459   9.272   5.790  0.0598 -0.1422  0.2086
  927YOPE   PO412596   3.071   9.227   5.957 -0.3352  0.0208  0.0012
  927YOPE   GL112597   2.938   8.929   6.322 -0.0354 -0.2652  0.0274
  927YOPE   GL212598   2.988   8.647   6.184  0.1191  0.2306  0.0033
  927YOPE   C1A12599   2.837   8.863   6.757 -0.3336 -0.1201  0.0048
  927YOPE   D2A12600   2.672   9.177   7.126 -0.2721  0.0104 -0.1756
  927YOPE   C3A12601   2.864   9.046   7.616 -0.0630  0.0189 -0.3989
  927YOPE   C4A12602   3.202   9.138   7.862 -0.1580 -0.0696 -0.3023
  927YOPE   C1B12603   3.034   8.430   6.531  0.1663  0.3261 -0.3540
  927YOPE   C2B12604   3.068   8.422   6.958  0.1139 -0.0047  0.0127
  927YOPE   D3B12605   3.140   8.260   7.317  0.3229 -0.1444  0.2847
  927YOPE   C4B12606   2.988   8.076   7.710  0.4494 -0.0075  0.0911
  928YOPE   NH312607   1.116  11.846   6.215 -0.3832  0.2619 -0.2887
  928YOPE   PO412608   1.467  11.517   6.390 -0.0404 -0.0567  0.2191
  928YOPE   GL112609   1.236  11.669   6.680  0.0164  0.0464  0.0761
  928YOPE   GL212610   1.520  11.717   6.866  0.2009 -0.0647  0.4109
  928YOPE   C1A12611   1.043  11.455   6.998 -0.1698  0.2191 -0.2413
  928YOPE   D2A12612   0.667  11.273   7.232 -0.0526  0.2707  0.1176
  928YOPE   C3A12613   0.604  11.288   7.614 -0.1360  0.2424  0.1672
  928YOPE   C4A12614   0.824  11.255   7.970  0.1212  0.1493 -0.1398
  928YOPE   C1B12615   1.405  11.762   7.283 -0.1532 -0.1833 -0.1757
  928YOPE   C2B12616   1.669  11.831   7.653  0.0364 -0.0049 -0.1526
  928YOPE   D3B12617   1.925  11.818   7.877 -0.0662  0.1413 -0.0255
  928YOPE   C4B12618   2.319  11.903   7.928  0.0598  0.1371 -0.0400
  929YOPE   NH312619   2.224  17.941   5.820  0.0535  0.4443 -0.0011
  929YOPE   PO412620   1.738  18.095   5.740 -0.0216 -0.0555 -0.0294
  929YOPE   GL112621   1.873  18.046   6.163  0.1279 -0.1782  0.0480
  929YOPE   GL212622   2.192  18.153   6.236  0.2084 -0.0895  0.0093
  929YOPE   C1A12623   1.640  18.004   6.478  0.0876 -0.0781  0.1184
  929YOPE   D2A12624   1.451  17.956   6.953  0.0057 -0.0063 -0.0298
  929YOPE   C3A12625   1.248  17.715   7.290  0.2388 -0.0606  0.0399
  929YOPE   C4A12626   1.488  17.480   7.679 -0.0810 -0.1504  0.1918
  929YOPE   C1B12627   2.058  18.146   6.690  0.1441  0.0133 -0.1286
  929YOPE   C2B12628   1.933  18.066   7.048  0.1407  0.0666 -0.2396
  929YOPE   D3B12629   1.783  17.839   7.423  0.3753 -0.2100 -0.1009
  929YOPE   C4B12630   1.846  17.708   7.912 -0.1260 -0.1175 -0.1161
  930YOPE   NH312631   7.320  14.886   5.452  0.1636  0.1547 -0.1749
  930YOPE   PO412632   7.200  15.270   5.690 -0.1858 -0.0061 -0.1126
  930YOPE   GL112633   7.028  15.396   6.069  0.0400 -0.1552 -0.0449
  930YOPE   GL212634   7.040  15.755   5.986 -0.1695 -0.0647  0.1875
  930YOPE   C1A12635   6.898  15.454   6.519 -0.0935  0.1199 -0.2475
  930YOPE   D2A12636   7.075  15.495   6.963 -0.1952 -0.0768  0.0269
  930YOPE   C3A12637   7.408  15.555   7.255  0.0197  0.0961 -0.0326
  930YOPE   C4A12638   7.550  15.645   7.649  0.2484 -0.1009  0.0319
  930YOPE   C1B12639   6.836  15.984   6.340 -0.0946 -0.0082  0.0936
  930YOPE   C2B12640   6.950  15.939   6.810 -0.1305 -0.0550  0.0548
  930YOPE   D3B12641   7.114  15.943   7.218  0.1764  0.1465 -0.2368
  930YOPE   C4B12642   7.341  16.094   7.592  0.2025  0.3199 -0.0222
  931YOPE   NH312643  17.189   0.943   5.656  0.0086  0.1576 -0.1497
  931YOPE   PO412644  16.836   1.297   5.565  0.0082  0.0525 -0.2036
  931YOPE   GL112645  16.755   1.106   5.967  0.1000 -0.2389  0.1475
  931YOPE   GL212646  17.024   1.189   6.092  0.0304  0.0786  0.1910
  931YOPE   C1A12647  16.436   1.020   6.215 -0.0681 -0.2485 -0.0744
  931YOPE   D2A12648  16.210   1.267   6.569  0.1036 -0.1498  0.0174
  931YOPE   C3A12649  15.896   1.310   6.889  0.0878 -0.0004 -0.1472
  931YOPE   C4A12650  15.648   1.277   7.276  0.1777 -0.1245 -0.3105
  931YOPE   C1B12651  17.108   1.312   6.478 -0.1239  0.2829 -0.2379
  931YOPE   C2B12652  17.094   1.340   6.898 -0.2803 -0.1348 -0.0668
  931YOPE   D3B12653  17.064   1.418   7.302 -0.0828  0.1656 -0.1910
  931YOPE   C4B12654  16.906   1.687   7.573 -0.1063 -0.0775  0.1388
  932YOPE   NH312655   2.240   4.804   5.476 -0.1288 -0.1772 -0.3088
  932YOPE   PO412656   1.791   4.893   5.567  0.2907  0.0812  0.0606
  932YOPE   GL112657   1.608   4.908   6.005 -0.2023  0.1739  0.0795
  932YOPE   GL212658   1.350   4.888   6.160  0.0694  0.1674  0.3107
  932YOPE   C1A12659   1.786   4.919   6.398  0.1020 -0.0885  0.0863
  932YOPE   D2A12660   1.793   5.308   6.820 -0.2055  0.1827  0.0231
  932YOPE   C3A12661   2.026   5.428   7.195  0.1744 -0.3118  0.0827
  932YOPE   C4A12662   2.156   5.851   7.302 -0.0001 -0.1481  0.2112
  932YOPE   C1B12663   1.319   4.948   6.611 -0.1295 -0.1462  0.2451
  932YOPE   C2B12664   1.482   5.058   7.133  0.3541 -0.0299 -0.0972
  932YOPE   D3B12665   1.451   5.315   7.550 -0.2231  0.0204 -0.0083
  932YOPE   C4B12666   1.465   5.355   7.994 -0.1297  0.0122 -0.0581
  933YOPE   NH312667  18.003   6.790   5.836 -0.2349 -0.0440 -0.1265
  933YOPE   PO412668  17.700   6.370   5.958 -0.0955  0.2497 -0.0572
  933YOPE   GL112669  17.471   6.378   6.324 -0.1203  0.0703 -0.1810
  933YOPE   GL212670  17.172   6.580   6.509 -0.0479  0.0308  0.3668
  933YOPE   C1A12671  17.641   6.300   6.691  0.2249  0.1123 -0.1799
  933YOPE   D2A12672  18.000   6.387   6.870  0.1022  0.1352 -0.2956
  933YOPE   C3A12673  18.093   6.499   7.263 -0.1269  0.2189  0.0569
  933YOPE   C4A12674  18.009   6.641   7.680 -0.3907 -0.2324  0.0370
  933YOPE   C1B12675  17.105   6.606   6.950  0.1816  0.1632  0.1151
  933YOPE   C2B12676  16.921   6.429   7.307 -0.1031  0.0168 -0.3537
  933YOPE   D3B12677  16.971   6.252   7.699 -0.2533 -0.1646  0.0082
  933YOPE   C4B12678  17.209   6.260   8.061 -0.2603 -0.0638  0.3592
  934YOPE   NH312679  13.884   0.414   5.606  0.0611 -0.2334 -0.3306
  934YOPE   PO412680  13.761   0.110   5.890  0.3217 -0.1500  0.0006
  934YOPE   GL112681  14.024   0.162   6.103 -0.1937  0.0212 -0.0322
  934YOPE   GL212682  14.358   0.242   6.013 -0.0523  0.2060  0.3259
  934YOPE   C1A12683  14.111   0.133   6.570  0.3946  0.1086 -0.0274
  934YOPE   D2A12684  14.305   0.353   6.902  0.0557 -0.1007  0.0785
  934YOPE   C3A12685  14.200   0.309   7.312 -0.0679  0.2474 -0.2030
  934YOPE   C4A12686  14.347   0.124   7.678  0.3772  0.2712  0.1887
  934YOPE   C1B12687  14.648   0.384   6.291  0.0611 -0.0829 -0.0857
  934YOPE   C2B12688  14.757   0.702   6.478  0.1917 -0.2330 -0.0361
  934YOPE   D3B12689  14.986   1.096   6.719 -0.1157  0.0749 -0.1529
  934YOPE   C4B12690  15.344   1.403   6.843 -0.0669 -0.0441  0.1368
  935YOPE   NH312691   3.779  15.950   5.886  0.0986  0.3891 -0.0759
  935YOPE   PO412692   4.095  16.120   6.082 -0.1282 -0.2121 -0.1708
  935YOPE   GL112693   4.279  16.149   6.468  0.1308 -0.2193  0.0503
  935YOPE   GL212694   4.638  16.304   6.294  0.2214 -0.0300 -0.0505
  935YOPE   C1A12695   4.136  16.134   6.831  0.2055 -0.0302 -0.3917
  935YOPE   D2A12696   4.041  16.144   7.212 -0.1300  0.0529  0.2446
  935YOPE   C3A12697   4.220  15.910   7.574  0.1676  0.0880  0.1251
  935YOPE   C4A12698   4.416  15.741   7.881 -0.0085 -0.1189  0.1456
  935YOPE   C1B12699   4.645  16.123   6.757 -0.1016 -0.0386 -0.1462
  935YOPE   C2B12700   4.541  16.173   7.090  0.0776 -0.4760 -0.0374
  935YOPE   D3B12701   4.605  16.222   7.458 -0.0609 -0.1618 -0.1003
  935YOPE   C4B12702   4.325  16.396   7.799  0.3045 -0.0622  0.0562
  936YOPE   NH312703   9.145   5.737   6.434  0.0320  0.0753 -0.0522
  936YOPE   PO412704   9.519   5.761   6.202  0.0159 -0.1362  0.0431
  936YOPE   GL112705   9.697   5.585   6.523  0.1921 -0.1585  0.2107
  936YOPE   GL212706  10.040   5.536   6.507  0.1231  0.0056 -0.0525
  936YOPE   C1A12707   9.710   5.446   6.928  0.0518 -0.2300  0.0583
  936YOPE   D2A12708   9.853   5.266   7.230 -0.0867 -0.3471  0.0977
  936YOPE   C3A12709   9.923   5.518   7.660 -0.0561 -0.1276 -0.0892
  936YOPE   C4A12710   9.813   5.770   8.065  0.1955  0.0031  0.1426
  936YOPE   C1B12711  10.226   5.649   6.937 -0.2555  0.0068  0.2357
  936YOPE   C2B12712  10.347   5.861   7.328  0.1849 -0.1956  0.0754
  936YOPE   D3B12713  10.572   5.936   7.774  0.0451  0.0840  0.0833
  936YOPE   C4B12714  10.652   6.196   8.062  0.0589 -0.0602 -0.0616
  937YOPE   NH312715   0.252  14.500   5.897 -0.2350  0.2653 -0.1226
  937YOPE   PO412716  -0.075  14.251   5.814  0.2258  0.1271  0.1399
  937YOPE   GL112717  -0.217  14.449   6.067  0.2306 -0.1486 -0.3737
  937YOPE   GL212718  -0.128  14.319   6.327  0.1038 -0.1302  0.1199
  937YOPE   C1A12719  -0.418  14.663   6.453  0.1167 -0.0173  0.1348
  937YOPE   D2A12720  -0.571  14.848   6.869 -0.1290 -0.1276 -0.0775
  937YOPE   C3A12721  -0.687  14.748   7.248  0.0143 -0.1771  0.2078
  937YOPE   C4A12722  -0.849  14.835   7.670  0.1502  0.2006  0.3155
  937YOPE   C1B12723  -0.148  14.364   6.759  0.0488  0.0804  0.2104
  937YOPE   C2B12724  -0.253  14.510   7.138 -0.1529  0.0924 -0.1710
  937YOPE   D3B12725  -0.296  14.563   7.576 -0.0527 -0.0419  0.2030
  937YOPE   C4B12726  -0.312  14.229   7.938  0.2141  0.0748 -0.0500
  938YOPE   NH312727  12.393  15.400   5.771  0.4053 -0.3050  0.1687
  938YOPE   PO412728  12.619  15.772   5.982 -0.0242 -0.1920 -0.0042
  938YOPE   GL112729  12.458  15.686   6.313  0.4223  0.0013  0.1369
  938YOPE   GL212730  12.279  15.452   6.265  0.1267 -0.2604  0.1974
  938YOPE   C1A12731  12.538  16.011   6.637  0.1581  0.2323 -0.1308
  938YOPE   D2A12732  12.704  16.228   6.938  0.1773  0.0109 -0.2483
  938YOPE   C3A12733  13.205  16.440   6.994  0.1399 -0.1178  0.2506
  938YOPE   C4A12734  13.544  16.322   7.147 -0.2231 -0.0450 -0.2650
  938YOPE   C1B12735  12.459  15.490   6.708  0.0804  0.1289  0.3143
  938YOPE   C2B12736  12.519  15.363   7.161  0.3052 -0.0968  0.0306
  938YOPE   D3B12737  12.583  15.071   7.470 -0.0418 -0.0902 -0.2490
  938YOPE   C4B12738  12.525  15.026   7.923 -0.2572  0.0999 -0.0365
  939YOPE   NH312739   5.821  14.862   5.714  0.0246 -0.0265 -0.0237
  939YOPE   PO412740   5.545  14.750   5.459 -0.0325 -0.2935 -0.2273
  939YOPE   GL112741   5.344  14.852   5.910 -0.0115 -0.2498 -0.0417
  939YOPE   GL212742   5.135  15.065   5.976 -0.0943 -0.0579 -0.0480
  939YOPE   C1A12743   5.057  14.584   6.060 -0.1015  0.0256 -0.0055
  939YOPE   D2A12744   4.622  14.346   6.188 -0.1738  0.1909  0.0696
  939YOPE   C3A12745   4.585  13.938   6.321  0.2541 -0.4844 -0.0145
  939YOPE   C4A12746   4.540  13.677   6.645 -0.1027  0.0945 -0.0977
  939YOPE   C1B12747   5.185  15.265   6.383 -0.0117 -0.0026  0.2022
  939YOPE   C2B12748   5.228  15.088   6.713 -0.1600 -0.3235  0.1679
  939YOPE   D3B12749   5.186  14.847   7.032 -0.0970 -0.2592  0.2314
  939YOPE   C4B12750   5.384  14.490   7.191 -0.1596  0.1233 -0.0629
  940YOPE   NH312751   8.555   2.418   6.373  0.0102  0.0145  0.0240
  940YOPE   PO412752   8.888   2.243   6.595 -0.1619 -0.4785  0.2487
  940YOPE   GL112753   9.015   2.423   6.970 -0.2200 -0.0543  0.0371
  940YOPE   GL212754   9.191   2.587   6.965 -0.3317 -0.1420 -0.0554
  940YOPE   C1A12755   8.894   2.265   7.460  0.3367 -0.2487 -0.1033
  940YOPE   D2A12756   8.755   2.175   7.855  0.0230  0.1764 -0.2989
  940YOPE   C3A12757   8.894   1.978   8.125 -0.2591 -0.0096  0.1254
  940YOPE   C4A12758   8.667   1.826   8.487  0.1168  0.1388 -0.0803
  940YOPE   C1B12759   9.135   2.785   7.338 -0.2251  0.2242 -0.4772
  940YOPE   C2B12760   9.108   2.662   7.739  0.0670 -0.5261 -0.1531
  940YOPE   D3B12761   9.087   2.491   8.160  0.0161 -0.0917 -0.4326
  940YOPE   C4B12762   9.105   2.672   8.615  0.0886 -0.0856 -0.1065
  941YOPE   NH312763   0.002   4.093   5.997 -0.2091  0.2176  0.0284
  941YOPE   PO412764   0.266   3.841   5.682  0.0789  0.2408  0.1640
  941YOPE   GL112765   0.351   3.649   6.138 -0.2526  0.2088 -0.3423
  941YOPE   GL212766   0.576   3.398   6.229  0.0843  0.2807  0.0310
  941YOPE   C1A12767   0.325   3.719   6.606  0.1179  0.3747 -0.1193
  941YOPE   D2A12768   0.332   3.518   6.904  0.4764 -0.0060  0.2355
  941YOPE   C3A12769   0.442   3.670   7.328  0.1111 -0.0296  0.1444
  941YOPE   C4A12770   0.522   3.627   7.731 -0.2352  0.0073  0.1243
  941YOPE   C1B12771   0.846   3.687   6.471  0.0555 -0.2246 -0.0816
  941YOPE   C2B12772   0.707   4.040   6.692  0.2117 -0.3422 -0.1749
  941YOPE   D3B12773   0.877   4.303   7.011  0.0053  0.2063  0.2376
  941YOPE   C4B12774   1.042   4.199   7.442  0.1419 -0.0253  0.3141
  942POPC   NC312775   4.657   2.296   5.599  0.1006 -0.1270  0.0165
  942POPC   PO412776   5.097   2.069   5.777 -0.1234  0.0034 -0.1284
  942POPC   GL112777   5.225   1.866   6.221 -0.0712 -0.0961 -0.1877
  942POPC   GL212778   5.387   1.486   6.249  0.3372  0.2912 -0.1262
  942POPC   C1A12779   5.164   2.021   6.667 -0.1072 -0.2151  0.2354
  942POPC   D2A12780   4.896   1.993   7.099  0.0179  0.0519 -0.0190
  942POPC   C3A12781   5.035   1.817   7.429  0.0442 -0.0509  0.4570
  942POPC   C4A12782   5.386   1.952   7.651  0.2189  0.1104 -0.0053
  942POPC   C1B12783   5.653   1.526   6.624  0.1375 -0.0090  0.0130
  942POPC   C2B12784   5.778   1.358   7.001 -0.4966  0.2065  0.0215
  942POPC   C3B12785   5.778   1.108   7.288 -0.0220 -0.0201 -0.1887
  942POPC   C4B12786   5.902   1.096   7.750 -0.0358 -0.2334  0.2077
  943POPC   NC312787   6.695   1.008   5.545 -0.0379  0.0713  0.0113
  943POPC   PO412788   6.892   1.026   5.875 -0.1411 -0.0280 -0.1624
  943POPC   GL112789   7.010   1.391   6.118  0.4539  0.1010 -0.3493
  943POPC   GL212790   6.702   1.347   6.314 -0.0980 -0.1983 -0.2027
  943POPC   C1A12791   7.146   1.625   6.478 -0.4735  0.1266  0.2117
  943POPC   D2A12792   7.387   1.568   6.834  0.0306  0.2629  0.1961
  943POPC   C3A12793   7.307   1.490   7.167 -0.4172 -0.1335  0.0651
  943POPC   C4A12794   7.292   1.147   7.201  0.3184  0.2895 -0.1045
  943POPC   C1B12795   6.963   1.176   6.710 -0.0149  0.0455  0.2134
  943POPC   C2B12796   7.169   0.725   6.933 -0.0816  0.2197 -0.0057
  943POPC   C3B12797   7.466   0.682   7.347 -0.4035  0.1780  0.1872
  943POPC   C4B12798   7.771   0.360   7.372  0.1121 -0.1417 -0.0343
  944POPC   NC312799   0.328   6.874   5.142  0.3295 -0.0737 -0.1733
  944POPC   PO412800   0.143   6.473   5.359  0.0650  0.0707  0.1583
  944POPC   GL112801   0.302   6.404   5.806 -0.2437 -0.0913 -0.1595
  944POPC   GL212802   0.119   6.338   6.053  0.1755  0.0177 -0.1249
  944POPC   C1A12803   0.607   6.421   6.126  0.1597 -0.0344  0.1628
  944POPC   D2A12804   0.805   6.297   6.429 -0.0764  0.1779  0.0012
  944POPC   C3A12805   0.996   5.956   6.401 -0.4346 -0.0870  0.1008
  944POPC   C4A12806   1.375   5.824   6.423  0.0240 -0.1542  0.0222
  944POPC   C1B12807   0.299   6.444   6.481 -0.1616 -0.0289 -0.4099
  944POPC   C2B12808   0.344   6.634   6.909 -0.0384 -0.2002  0.0095
  944POPC   C3B12809   0.497   6.389   7.251  0.1681  0.0723  0.1904
  944POPC   C4B12810   0.622   5.968   7.300  0.2085  0.0417 -0.1841
  945POPC   NC312811  15.097   3.233   5.802 -0.5468 -0.0749 -0.0247
  945POPC   PO412812  15.322   3.033   6.106 -0.3206 -0.2869 -0.0333
  945POPC   GL112813  15.358   3.031   6.508  0.1101 -0.0487  0.1743
  945POPC   GL212814  15.126   2.848   6.694 -0.0497 -0.2394 -0.3104
  945POPC   C1A12815  15.473   3.092   6.929 -0.0826  0.0206  0.1063
  945POPC   D2A12816  15.653   3.191   7.253 -0.1133 -0.0003 -0.0110
  945POPC   C3A12817  15.643   3.115   7.644  0.0818 -0.1590 -0.1750
  945POPC   C4A12818  15.633   3.343   7.901  0.2050  0.0427  0.1306
  945POPC   C1B12819  15.191   2.754   7.146  0.4271  0.1530 -0.1233
  945POPC   C2B12820  15.558   2.691   7.420  0.2405 -0.1431 -0.2052
  945POPC   C3B12821  15.753   2.528   7.777  0.1848  0.0706  0.1112
  945POPC   C4B12822  15.792   2.428   8.230 -0.0094  0.1696  0.2115
  946POPC   NC312823  15.534   2.606   5.796 -0.1248 -0.0572  0.1889
  946POPC   PO412824  15.505   2.200   5.847  0.1997 -0.2088  0.0763
  946POPC   GL112825  15.642   2.381   6.212  0.0615 -0.1206 -0.2251
  946POPC   GL212826  15.372   2.541   6.363  0.4859  0.0024 -0.0719
  946POPC   C1A12827  15.952   2.381   6.591  0.3427  0.0224  0.0502
  946POPC   D2A12828  15.940   2.212   7.012  0.1312 -0.0036  0.3001
  946POPC   C3A12829  16.007   2.163   7.414 -0.1487 -0.1587  0.2100
  946POPC   C4A12830  16.002   2.040   7.799  0.0461  0.0683  0.0831
  946POPC   C1B12831  15.467   2.529   6.756 -0.2129  0.1144 -0.0554
  946POPC   C2B12832  15.412   2.320   7.114 -0.1378 -0.0818  0.3395
  946POPC   C3B12833  15.519   2.095   7.444  0.2531 -0.1724 -0.2410
  946POPC   C4B12834  15.518   2.050   7.916 -0.1245 -0.1642  0.1221
  947POPC   NC312835   1.147   6.564   5.514 -0.3383  0.1283 -0.1774
  947POPC   PO412836   1.168   6.418   5.912  0.0459 -0.1343  0.1576
  947POPC   GL112837   1.330   6.278   6.246  0.1661  0.2874  0.0097
  947POPC   GL212838   1.588   6.297   6.382  0.0661 -0.0864 -0.1631
  947POPC   C1A12839   1.214   6.465   6.690 -0.2636  0.1954 -0.1100
  947POPC   D2A12840   1.249   6.476   7.121 -0.0233 -0.0735 -0.0017
  947POPC   C3A12841   1.008   6.447   7.488  0.5269 -0.1686 -0.0775
  947POPC   C4A12842   0.697   6.611   7.740  0.2397 -0.2682  0.2871
  947POPC   C1B12843   1.690   6.355   6.758  0.1646 -0.2420 -0.0939
  947POPC   C2B12844   1.751   6.563   7.145 -0.3304  0.3134 -0.0700
  947POPC   C3B12845   1.957   6.623   7.527  0.0284  0.0333  0.2715
  947POPC   C4B12846   2.156   6.682   7.876  0.0514 -0.1008  0.0701
  948POPC   NC312847  16.176  12.169   6.038 -0.3078  0.0121 -0.0556
  948POPC   PO412848  16.000  12.467   5.686 -0.1100 -0.4469 -0.1289
  948POPC   GL112849  15.937  12.767   5.997 -0.2575  0.0529  0.1416
  948POPC   GL212850  15.759  13.130   6.033 -0.0994 -0.1481 -0.0164
  948POPC   C1A12851  15.862  12.685   6.374 -0.0471 -0.0526 -0.1495
  948POPC   D2A12852  15.605  12.731   6.728 -0.0812  0.1875  0.1758
  948POPC   C3A12853  15.608  12.506   7.090  0.1690 -0.0306  0.2127
  948POPC   C4A12854  15.312  12.487   7.421  0.3842 -0.0869  0.2761
  948POPC   C1B12855  15.718  13.246   6.502 -0.0318  0.1734  0.1638
  948POPC   C2B12856  15.714  13.118   6.980  0.3505  0.0027 -0.0735
  948POPC   C3B12857  15.654  12.914   7.362 -0.0871 -0.1635  0.0041
  948POPC   C4B12858  15.418  12.911   7.760  0.0334 -0.0421 -0.2752
  949POPC   NC312859  16.929   5.689   6.065  0.0580  0.0223 -0.0898
  949POPC   PO412860  16.450   5.842   6.183 -0.4198 -0.1264  0.3245
  949POPC   GL112861  16.656   5.874   6.543 -0.2230  0.2124  0.3349
  949POPC   GL212862  17.031   5.739   6.629  0.1872  0.0850 -0.2269
  949POPC   C1A12863  16.637   5.935   6.999 -0.0357 -0.1927 -0.0374
  949POPC   D2A12864  16.732   5.949   7.404 -0.3217  0.1649  0.0511
  949POPC   C3A12865  16.494   6.224   7.663 -0.0226  0.5026  0.1744
  949POPC   C4A12866  16.357   6.278   8.102 -0.0759  0.0228 -0.1543
  949POPC   C1B12867  17.157   5.589   7.073 -0.0473 -0.1715 -0.0671
  949POPC   C2B12868  17.243   5.612   7.572  0.3222 -0.2902  0.1835
  949POPC   C3B12869  16.858   5.761   7.849 -0.0772  0.1650 -0.0279
  949POPC   C4B12870  16.464   5.792   8.049 -0.0928  0.0378 -0.2027
  950POPC   NC312871  14.734   6.555   6.081  0.2374  0.0668 -0.1052
  950POPC   PO412872  15.205   6.784   5.959 -0.2726 -0.0801 -0.0408
  950POPC   GL112873  15.360   7.004   6.256 -0.0514  0.1772 -0.1216
  950POPC   GL212874  15.254   7.304   6.451 -0.3559  0.1870  0.1582
  950POPC   C1A12875  15.678   6.816   6.519  0.2901 -0.1895 -0.0258
  950POPC   D2A12876  15.973   7.043   6.808 -0.3896  0.3962  0.1955
  950POPC   C3A12877  16.085   6.882   7.194 -0.0882  0.1357 -0.0023
  950POPC   C4A12878  16.539   6.752   7.438  0.0411  0.5148 -0.1968
  950POPC   C1B12879  15.535   7.258   6.737 -0.0093 -0.1421 -0.1623
  950POPC   C2B12880  15.582   7.141   7.154  0.2086 -0.0335 -0.0555
  950POPC   C3B12881  15.238   7.110   7.510 -0.0284 -0.0248  0.1681
  950POPC   C4B12882  15.229   7.029   7.910 -0.0000  0.1234 -0.1664
  951POPC   NC312883   5.099   5.829   6.060 -0.1883 -0.0918 -0.0350
  951POPC   PO412884   5.406   5.746   6.352  0.2014  0.1648 -0.0383
  951POPC   GL112885   5.224   5.949   6.721  0.0665  0.1675 -0.1534
  951POPC   GL212886   5.278   6.325   6.642 -0.2805 -0.1474 -0.1998
  951POPC   C1A12887   5.053   5.932   7.103  0.4499  0.0417 -0.1984
  951POPC   D2A12888   4.959   5.924   7.525  0.1423 -0.0956 -0.2207
  951POPC   C3A12889   4.799   6.265   7.848 -0.0792 -0.0634  0.1676
  951POPC   C4A12890   4.717   6.686   8.253 -0.0032 -0.1147  0.1022
  951POPC   C1B12891   5.302   6.421   7.116 -0.1478 -0.2232 -0.1290
  951POPC   C2B12892   5.097   6.456   7.508 -0.0245  0.0470 -0.2570
  951POPC   C3B12893   5.071   6.760   7.862  0.0760 -0.0480  0.2747
  951POPC   C4B12894   5.194   6.660   8.200 -0.2106 -0.0808 -0.0138
  952POPC   NC312895   3.209   3.130   5.889 -0.0037  0.1114  0.0354
  952POPC   PO412896   3.462   2.872   5.894 -0.1160 -0.1731  0.1999
  952POPC   GL112897   3.481   2.628   6.248  0.0451 -0.1672  0.2570
  952POPC   GL212898   3.357   2.818   6.475  0.0943 -0.2138  0.1706
  952POPC   C1A12899   3.650   2.352   6.603 -0.0939  0.5302  0.0493
  952POPC   D2A12900   3.818   2.278   6.942 -0.0728 -0.1549 -0.2140
  952POPC   C3A12901   3.744   2.307   7.337  0.0335 -0.1809 -0.2602
  952POPC   C4A12902   3.917   2.538   7.642 -0.2471 -0.0623  0.3104
  952POPC   C1B12903   3.234   2.902   6.916  0.0279 -0.1119 -0.1996
  952POPC   C2B12904   3.190   2.875   7.344  0.0286 -0.0060 -0.0197
  952POPC   C3B12905   3.027   2.840   7.725  0.1831 -0.2034 -0.1077
  952POPC   C4B12906   2.877   2.761   8.130  0.1590 -0.0201  0.1273
  953POPC   NC312907  12.877  12.237   6.126  0.1768 -0.2370 -0.0124
  953POPC   PO412908  12.714  11.835   6.011  0.1234 -0.0177  0.2027
  953POPC   GL112909  12.406  11.865   6.340  0.2062 -0.0444 -0.1247
  953POPC   GL212910  12.235  12.081   6.382  0.1613  0.2209 -0.0687
  953POPC   C1A12911  12.498  11.754   6.803  0.2472  0.2992 -0.0139
  953POPC   D2A12912  12.528  11.495   7.235  0.1899 -0.0291  0.2468
  953POPC   C3A12913  12.725  11.631   7.661 -0.0142  0.0112 -0.1483
  953POPC   C4A12914  12.816  11.717   8.041  0.3350  0.0545  0.2152
  953POPC   C1B12915  12.040  11.994   6.695 -0.0066 -0.0954  0.1614
  953POPC   C2B12916  12.115  12.047   7.089  0.1807  0.0492  0.1669
  953POPC   C3B12917  12.322  11.912   7.362 -0.2174 -0.1864  0.2164
  953POPC   C4B12918  12.483  12.044   7.648 -0.3561 -0.4035 -0.0672
  954POPC   NC312919   1.648   8.913   5.867 -0.0626  0.0427  0.1229
  954POPC   PO412920   2.148   8.982   5.890  0.0702  0.1202 -0.0296
  954POPC   GL112921   2.080   9.064   6.307  0.0417 -0.0514  0.0493
  954POPC   GL212922   1.791   8.909   6.313 -0.0582 -0.1579 -0.1472
  954POPC   C1A12923   2.399   9.070   6.632 -0.0849  0.2659 -0.0583
  954POPC   D2A12924   2.311   8.887   7.014 -0.1257 -0.0186 -0.0070
  954POPC   C3A12925   2.413   8.875   7.456  0.0701 -0.0620 -0.0517
  954POPC   C4A12926   2.613   8.532   7.694  0.2402  0.0800 -0.3004
  954POPC   C1B12927   1.936   8.800   6.740 -0.2056  0.1070 -0.3525
  954POPC   C2B12928   1.867   8.683   7.198 -0.0691  0.1025  0.4685
  954POPC   C3B12929   1.964   8.624   7.596  0.2458 -0.1296 -0.3221
  954POPC   C4B12930   1.769   8.489   7.975  0.0229 -0.2685  0.0228
  955POPC   NC312931  10.151  10.326   5.725  0.0188  0.0256 -0.4321
  955POPC   PO412932   9.881  10.682   5.938  0.1431 -0.1818  0.0348
  955POPC   GL112933   9.960  10.391   6.232 -0.0934  0.1655  0.0984
  955POPC   GL212934   9.712  10.422   6.391  0.0174 -0.0293 -0.0014
  955POPC   C1A12935  10.094  10.180   6.578 -0.1661 -0.0889 -0.1752
  955POPC   D2A12936  10.363  10.235   6.956 -0.2098  0.0406  0.0798
  955POPC   C3A12937  10.363  10.085   7.326 -0.2882  0.0631 -0.0568
  955POPC   C4A12938  10.108  10.077   7.794  0.2808  0.0566  0.0097
  955POPC   C1B12939   9.560  10.208   6.731 -0.1675  0.0765  0.0834
  955POPC   C2B12940   9.288  10.168   7.096  0.0251  0.2602 -0.1603
  955POPC   C3B12941   8.798  10.284   7.337  0.1812 -0.2477  0.3241
  955POPC   C4B12942   8.733  10.116   7.736 -0.4071 -0.2263  0.1392
  956POPC   NC312943   4.778   5.229   5.793 -0.1224  0.0633  0.2052
  956POPC   PO412944   4.739   5.472   6.136  0.1656  0.0138  0.0456
  956POPC   GL112945   5.013   5.392   6.524  0.1453 -0.1781  0.1443
  956POPC   GL212946   5.183   5.085   6.502 -0.1717  0.2241 -0.1879
  956POPC   C1A12947   4.906   5.405   6.955  0.0101 -0.0695  0.3109
  956POPC   D2A12948   4.733   5.533   7.326  0.2670 -0.2963  0.1967
  956POPC   C3A12949   4.461   5.391   7.623  0.2100  0.0741  0.0197
  956POPC   C4A12950   4.127   5.218   7.711 -0.1148 -0.0231  0.0154
  956POPC   C1B12951   5.290   5.062   6.963 -0.2405 -0.0110 -0.0081
  956POPC   C2B12952   5.385   4.970   7.393 -0.0394 -0.2088  0.3179
  956POPC   C3B12953   5.355   4.963   7.836  0.0290 -0.1335  0.0123
  956POPC   C4B12954   5.260   4.909   8.274  0.0948  0.3506 -0.0514
  957POPC   NC312955   1.249  15.545   5.696  0.1925 -0.0336 -0.0713
  957POPC   PO412956   1.465  15.477   5.989 -0.3990 -0.1162 -0.1165
  957POPC   GL112957   1.692  15.206   6.451 -0.0877 -0.1963 -0.0531
  957POPC   GL212958   1.847  15.443   6.668 -0.2662 -0.1152 -0.0123
  957POPC   C1A12959   1.740  15.035   6.910  0.1528 -0.1616 -0.1334
  957POPC   D2A12960   1.934  15.052   7.342 -0.1236 -0.2017 -0.1333
  957POPC   C3A12961   1.878  14.839   7.672  0.3246 -0.0214  0.0404
  957POPC   C4A12962   1.641  14.640   8.032 -0.0419 -0.0300  0.3105
  957POPC   C1B12963   2.043  15.442   7.075  0.0105 -0.0326  0.0007
  957POPC   C2B12964   2.274  15.477   7.403  0.0365 -0.2388 -0.2599
  957POPC   C3B12965   2.121  15.344   7.763 -0.3852 -0.0553 -0.2950
  957POPC   C4B12966   2.015  15.500   8.143 -0.0383 -0.0447  0.0217
  958POPC   NC312967  10.381  17.406   6.503 -0.0935 -0.3961 -0.0123
  958POPC   PO412968  10.041  17.733   6.444  0.1710 -0.1559  0.0739
  958POPC   GL112969   9.937  17.688   6.771 -0.0770 -0.0311  0.0685
  958POPC   GL212970  10.240  17.556   6.930 -0.0161  0.1088  0.0519
  958POPC   C1A12971   9.708  17.583   7.086  0.2737  0.0626  0.1038
  958POPC   D2A12972   9.303  17.725   7.189  0.1995  0.1005 -0.2653
  958POPC   C3A12973   9.206  18.049   6.923  0.1344  0.0401  0.2627
  958POPC   C4A12974   8.957  18.262   6.714 -0.2147 -0.0156 -0.1775
  958POPC   C1B12975  10.100  17.568   7.385  0.0030 -0.0262 -0.0892
  958POPC   C2B12976   9.683  17.537   7.566 -0.0034  0.3774  0.0646
  958POPC   C3B12977   9.360  17.799   7.749  0.0927 -0.1602  0.0801
  958POPC   C4B12978   9.283  18.100   8.055  0.0557  0.2363 -0.3943
  959POPC   NC312979  11.329  15.518   5.237  0.1010 -0.1214 -0.1671
  959POPC   PO412980  11.402  15.531   5.674 -0.1766  0.1324  0.0374
  959POPC   GL112981  11.453  15.469   6.194 -0.2612  0.1576  0.1204
  959POPC   GL212982  11.778  15.267   6.295  0.1193 -0.0816  0.0316
  959POPC   C1A12983  11.356  15.442   6.629 -0.0704  0.1178 -0.0705
  959POPC   D2A12984  11.194  15.733   6.900  0.2909 -0.2004  0.3202
  959POPC   C3A12985  11.358  15.846   7.319 -0.1032  0.0320  0.2529
  959POPC   C4A12986  11.350  15.599   7.723 -0.2316 -0.0465  0.2337
  959POPC   C1B12987  11.929  15.373   6.714  0.1290  0.2514 -0.0461
  959POPC   C2B12988  12.084  15.216   7.055 -0.0310  0.0521  0.1138
  959POPC   C3B12989  12.116  15.186   7.487  0.0200  0.3979 -0.2728
  959POPC   C4B12990  12.031  15.070   7.902 -0.1397 -0.0753 -0.1549
  960POPC   NC312991  13.389   0.720   5.780 -0.2622 -0.1100  0.2924
  960POPC   PO412992  13.273   0.306   5.827  0.2954 -0.1158  0.2000
  960POPC   GL112993  13.388   0.123   6.206 -0.1803  0.1282 -0.3141
  960POPC   GL212994  13.478  -0.187   6.355 -0.2707 -0.2782  0.0620
  960POPC   C1A12995  13.569   0.234   6.599  0.1504 -0.1980  0.1396
  960POPC   D2A12996  13.808   0.205   7.011 -0.0680  0.1717 -0.1721
  960POPC   C3A12997  13.777   0.137   7.453 -0.1655 -0.2332  0.0864
  960POPC   C4A12998  13.920   0.061   7.936  0.0491  0.2907  0.0887
  960POPC   C1B12999  13.516  -0.224   6.820  0.2571  0.1517 -0.1585
  960POPC   C2B13000  13.580  -0.390   7.236  0.0090  0.3095 -0.1655
  960POPC   C3B13001  13.675  -0.650   7.567  0.0177 -0.3470 -0.0896
  960POPC   C4B13002  14.020  -0.941   7.830 -0.0360 -0.0591  0.1751
  961POPC   NC313003   4.200  15.268   5.776  0.2953 -0.1288 -0.0879
  961POPC   PO413004   4.582  15.063   5.647  0.0808  0.1215 -0.1573
  961POPC   GL113005   4.631  15.121   6.063  0.0109  0.0345  0.1263
  961POPC   GL213006   4.359  15.090   6.171 -0.0251  0.0837 -0.1548
  961POPC   C1A13007   4.812  14.905   6.368  0.0666 -0.0613 -0.4038
  961POPC   D2A13008   5.070  14.665   6.575 -0.3342  0.1725 -0.2055
  961POPC   C3A13009   4.866  14.509   7.057 -0.1773  0.0900  0.0448
  961POPC   C4A13010   4.912  14.648   7.517  0.1658 -0.0124  0.3911
  961POPC   C1B13011   4.302  15.151   6.583  0.0278 -0.2664  0.3611
  961POPC   C2B13012   4.315  15.239   6.950 -0.1886  0.0317  0.1024
  961POPC   C3B13013   4.317  15.311   7.387 -0.1938  0.1956 -0.0021
  961POPC   C4B13014   4.488  15.209   7.733 -0.1003  0.1540  0.1416
  962POPC   NC313015   3.268  15.925   5.685 -0.0390 -0.3472  0.2313
  962POPC   PO413016   3.473  15.536   5.885 -0.0494 -0.2920 -0.0825
  962POPC   GL113017   3.136  15.556   6.083 -0.1888 -0.0582  0.0774
  962POPC   GL213018   2.937  15.305   6.238 -0.1508 -0.2503  0.1458
  962POPC   C1A13019   2.725  15.782   6.260  0.2407  0.1672 -0.2278
  962POPC   D2A13020   2.574  15.951   6.494 -0.0721 -0.0480  0.2395
  962POPC   C3A13021   2.577  16.287   6.669  0.1914 -0.2079 -0.5066
  962POPC   C4A13022   2.391  16.526   6.988  0.2542 -0.3455 -0.0064
  962POPC   C1B13023   3.065  15.549   6.579  0.1551  0.3200 -0.0465
  962POPC   C2B13024   3.344  15.703   6.883  0.1622  0.0445 -0.0119
  962POPC   C3B13025   3.650  15.611   7.196  0.0294 -0.2052  0.1082
  962POPC   C4B13026   4.039  15.648   7.132  0.0576  0.0093  0.1165
  963POPC   NC313027  12.657   5.010   6.490 -0.0840  0.2071  0.1933
  963POPC   PO413028  13.057   4.858   6.449  0.2437 -0.5677 -0.2508
  963POPC   GL113029  13.403   4.883   6.756  0.0414 -0.0971 -0.2288
  963POPC   GL213030  13.685   4.985   6.749  0.0506 -0.0988 -0.0117
  963POPC   C1A13031  13.369   4.627   7.156  0.0116  0.2138 -0.1190
  963POPC   D2A13032  13.352   4.244   7.496 -0.2091  0.1319 -0.5314
  963POPC   C3A13033  13.283   4.346   7.917  0.0869  0.0348  0.2894
  963POPC   C4A13034  13.292   4.542   8.357 -0.0992 -0.0516  0.2867
  963POPC   C1B13035  13.612   5.067   7.166  0.1130 -0.3726  0.2658
  963POPC   C2B13036  13.636   5.168   7.595 -0.0271 -0.2103  0.1986
  963POPC   C3B13037  13.748   5.387   7.931  0.1241  0.0657 -0.0149
  963POPC   C4B13038  13.765   5.317   8.350 -0.0648  0.0358  0.0674
  964POPC   NC313039  13.060   1.069   5.840  0.2508  0.0014  0.0259
  964POPC   PO413040  13.421   1.081   6.151 -0.2323  0.0433 -0.0017
  964POPC   GL113041  13.062   1.102   6.453 -0.0296  0.0925 -0.1115
  964POPC   GL213042  12.882   0.809   6.530 -0.1190 -0.1671 -0.0437
  964POPC   C1A13043  12.941   1.080   6.899 -0.1776 -0.1562 -0.0939
  964POPC   D2A13044  12.780   0.917   7.261 -0.0097 -0.0031 -0.0940
  964POPC   C3A13045  12.657   1.033   7.668  0.0521  0.1643  0.1368
  964POPC   C4A13046  12.352   0.801   7.919 -0.1066  0.0823 -0.1393
  964POPC   C1B13047  12.785   0.581   6.897  0.1932  0.0549 -0.1077
  964POPC   C2B13048  12.668   0.411   7.241  0.0838 -0.1665 -0.0401
  964POPC   C3B13049  12.646   0.478   7.606 -0.3823 -0.0392  0.1587
  964POPC   C4B13050  12.741   0.432   7.985 -0.1127  0.2603  0.3405
  965POPC   NC313051  11.041   0.803   6.010  0.2535  0.3270 -0.3092
  965POPC   PO413052  10.972   1.186   6.341 -0.0802  0.0738 -0.0465
  965POPC   GL113053  11.038   1.149   6.783  0.1187  0.2977 -0.0969
  965POPC   GL213054  11.081   1.509   6.902  0.0829 -0.1266  0.0905
  965POPC   C1A13055  11.123   1.028   7.219  0.3509  0.0686  0.1397
  965POPC   D2A13056  11.361   0.977   7.562  0.0961  0.1986 -0.0922
  965POPC   C3A13057  11.410   0.619   7.722  0.0277 -0.1412 -0.0016
  965POPC   C4A13058  11.811   0.446   7.813 -0.0966 -0.2545  0.1588
  965POPC   C1B13059  11.136   1.567   7.263 -0.1613  0.3114  0.1519
  965POPC   C2B13060  10.998   1.393   7.612 -0.0413  0.0392 -0.0313
  965POPC   C3B13061  11.196   1.440   8.040  0.1232 -0.0285  0.0116
  965POPC   C4B13062  11.514   1.392   8.344  0.2104 -0.1073  0.0084
  966POPC   NC313063  14.653   0.154   5.533 -0.2011 -0.0383 -0.0640
  966POPC   PO413064  14.362   0.585   5.639 -0.0753 -0.2544 -0.2191
  966POPC   GL113065  14.354   0.710   6.042  0.1485  0.0959  0.1207
  966POPC   GL213066  14.588   0.935   6.003 -0.3506 -0.2768 -0.0104
  966POPC   C1A13067  14.173   0.624   6.371 -0.0111 -0.1553  0.0330
  966POPC   D2A13068  13.847   0.624   6.726 -0.0460 -0.0969  0.1657
  966POPC   C3A13069  13.964   0.665   7.085 -0.3610 -0.0924  0.1710
  966POPC   C4A13070  14.326   0.819   7.389 -0.1449  0.1785 -0.0185
  966POPC   C1B13071  15.037   0.820   6.127 -0.2108  0.3306  0.1774
  966POPC   C2B13072  15.330   1.007   6.379 -0.1113  0.0377  0.0831
  966POPC   C3B13073  15.536   0.975   6.717  0.0740  0.2570 -0.1076
  966POPC   C4B13074  15.819   0.855   7.048 -0.1602 -0.0367  0.1713
  967POPC   NC313075  17.112   9.326   5.966 -0.1795  0.1143 -0.0944
  967POPC   PO413076  17.455   9.056   5.903  0.0135 -0.0974 -0.1475
  967POPC   GL113077  17.390   9.026   6.430  0.1829 -0.0813 -0.0947
  967POPC   GL213078  17.532   9.226   6.586 -0.0533 -0.1061 -0.1685
  967POPC   C1A13079  17.231   8.830   6.830  0.0323 -0.2609  0.0057
  967POPC   D2A13080  17.265   8.447   7.020  0.1304  0.1402 -0.0367
  967POPC   C3A13081  17.063   8.128   6.900 -0.0795 -0.2467 -0.3223
  967POPC   C4A13082  16.657   7.974   6.886 -0.0226  0.0198  0.0684
  967POPC   C1B13083  17.689   9.174   6.924 -0.1069 -0.0195 -0.1084
  967POPC   C2B13084  17.627   9.310   7.307 -0.0039  0.3194  0.0397
  967POPC   C3B13085  17.607   9.118   7.655 -0.3180  0.1848  0.2638
  967POPC   C4B13086  17.707   8.823   7.929  0.0152  0.2424  0.2031
  968POPC   NC313087  16.313  14.513   5.622 -0.2390 -0.1130 -0.2727
  968POPC   PO413088  16.552  14.250   5.794 -0.1599  0.2385  0.2452
  968POPC   GL113089  16.520  13.973   6.263 -0.2314  0.0889 -0.0628
  968POPC   GL213090  16.322  13.762   6.284  0.0102 -0.1743 -0.3488
  968POPC   C1A13091  16.452  13.963   6.746  0.1847 -0.0038  0.0375
  968POPC   D2A13092  16.503  13.794   7.188  0.1058  0.0219 -0.1639
  968POPC   C3A13093  16.429  13.969   7.519  0.0803 -0.1988 -0.0692
  968POPC   C4A13094  16.422  14.041   7.981  0.1162 -0.1021 -0.1405
  968POPC   C1B13095  16.233  13.504   6.651  0.1601 -0.0387  0.0567
  968POPC   C2B13096  16.065  13.627   7.051 -0.0090  0.0633 -0.1961
  968POPC   C3B13097  15.922  13.872   7.288 -0.4218 -0.1281 -0.0592
  968POPC   C4B13098  15.722  13.956   7.660  0.0033 -0.0928 -0.2566
  969POPC   NC313099  17.225   1.658   5.411 -0.1651 -0.1379 -0.0854
  969POPC   PO413100  17.568   1.852   5.703  0.1370  0.0144  0.2477
  969POPC   GL113101  17.838   1.731   6.056 -0.0402 -0.2322 -0.0713
  969POPC   GL213102  18.167   1.729   5.975  0.2800 -0.0887 -0.2354
  969POPC   C1A13103  18.052   1.683   6.431 -0.0388  0.0915  0.0076
  969POPC   D2A13104  18.031   1.617   6.852  0.1772  0.4189 -0.0618
  969POPC   C3A13105  18.087   1.493   7.236 -0.1303  0.1167  0.0501
  969POPC   C4A13106  18.042   1.348   7.673  0.0362 -0.1301  0.0656
  969POPC   C1B13107  18.480   1.495   6.253 -0.0012 -0.1106  0.2264
  969POPC   C2B13108  18.528   1.618   6.687 -0.3382  0.1601 -0.1011
  969POPC   C3B13109  18.569   1.597   7.099  0.1690 -0.5007  0.1637
  969POPC   C4B13110  18.514   1.423   7.509 -0.1518 -0.2012 -0.0897
  970POPC   NC313111  10.990   8.519   5.564  0.1288  0.2156  0.1229
  970POPC   PO413112  11.100   8.649   5.993  0.0215 -0.1374 -0.0426
  970POPC   GL113113  11.140   8.652   6.420  0.0781  0.2681 -0.1420
  970POPC   GL213114  10.912   8.508   6.559  0.3300 -0.0658 -0.0690
  970POPC   C1A13115  11.375   8.573   6.770 -0.4872  0.0083  0.0261
  970POPC   D2A13116  11.293   8.592   7.269  0.2341  0.0183  0.1502
  970POPC   C3A13117  11.648   8.566   7.617  0.3995  0.1935  0.0581
  970POPC   C4A13118  11.857   8.552   7.962  0.1519 -0.0094  0.2911
  970POPC   C1B13119  10.921   8.416   7.004  0.1714  0.1748  0.0021
  970POPC   C2B13120  10.821   8.201   7.388 -0.2921 -0.3520  0.0451
  970POPC   C3B13121  10.739   8.077   7.848 -0.0046  0.2497 -0.0994
  970POPC   C4B13122  10.548   7.944   8.217  0.3506 -0.0657 -0.1190
  971POPC   NC313123   6.769   1.873   5.313 -0.1221 -0.1753 -0.1944
  971POPC   PO413124   6.775   1.986   5.892 -0.2890  0.5024  0.3886
  971POPC   GL113125   6.762   1.868   6.320  0.1482 -0.4369  0.2477
  971POPC   GL213126   6.906   2.222   6.423 -0.2151 -0.2254 -0.0181
  971POPC   C1A13127   6.760   1.814   6.717 -0.0813 -0.1333  0.4108
  971POPC   D2A13128   6.776   1.481   7.082 -0.1860  0.0790  0.0027
  971POPC   C3A13129   6.897   1.318   7.505  0.0006 -0.0237  0.2803
  971POPC   C4A13130   6.985   1.020   7.867 -0.1667  0.1270 -0.1205
  971POPC   C1B13131   6.787   2.321   6.838 -0.0223 -0.0644 -0.1353
  971POPC   C2B13132   6.679   2.306   7.259 -0.1775 -0.2646 -0.0346
  971POPC   C3B13133   6.695   2.402   7.643  0.1057  0.1472  0.3465
  971POPC   C4B13134   6.729   2.121   7.818 -0.1055 -0.1047 -0.3474
  972POPC   NC313135  17.946   0.073   5.899 -0.2624 -0.0440 -0.2263
  972POPC   PO413136  17.582   0.185   5.830  0.0566 -0.1745 -0.3120
  972POPC   GL113137  17.541   0.084   6.200  0.0436  0.2294 -0.0863
  972POPC   GL213138  17.792  -0.089   6.321  0.1203 -0.1088 -0.2897
  972POPC   C1A13139  17.208   0.032   6.535 -0.0235  0.0287 -0.3168
  972POPC   D2A13140  17.092  -0.191   6.892  0.0757 -0.1913  0.2405
  972POPC   C3A13141  17.051  -0.030   7.329 -0.1063  0.0869 -0.3953
  972POPC   C4A13142  17.071   0.002   7.767  0.2266 -0.1282 -0.0028
  972POPC   C1B13143  17.732   0.083   6.715  0.0807  0.1937 -0.0679
  972POPC   C2B13144  17.545   0.010   7.133  0.0458  0.5770 -0.0965
  972POPC   C3B13145  17.499   0.203   7.600 -0.0328  0.0056  0.2692
  972POPC   C4B13146  17.577   0.232   8.042 -0.5378  0.0946  0.0736
  973POPC   NC313147  17.678  15.487   5.209 -0.2276  0.0076 -0.1442
  973POPC   PO413148  17.835  15.792   5.462  0.2177  0.2755  0.2677
  973POPC   GL113149  18.015  15.912   5.797 -0.0235 -0.0617 -0.0380
  973POPC   GL213150  18.279  15.752   5.915 -0.3765  0.1438  0.3421
  973POPC   C1A13151  17.965  15.976   6.301  0.2768 -0.2599  0.1893
  973POPC   D2A13152  18.074  15.996   6.700 -0.2910 -0.0586 -0.4166
  973POPC   C3A13153  18.273  16.192   6.998 -0.3185 -0.0625 -0.0775
  973POPC   C4A13154  18.511  16.472   7.297  0.0753  0.2300  0.2640
  973POPC   C1B13155  18.490  15.849   6.330 -0.0439 -0.1136  0.1264
  973POPC   C2B13156  18.433  15.679   6.725 -0.1192  0.0836  0.2507
  973POPC   C3B13157  18.207  15.550   7.028  0.0772 -0.0089 -0.0732
  973POPC   C4B13158  18.183  15.526   7.375 -0.0090  0.0412  0.1079
  974POPC   NC313159  11.841   4.530   6.159  0.0848 -0.2518 -0.0520
  974POPC   PO413160  11.423   4.223   6.084 -0.1074  0.1035 -0.2269
  974POPC   GL113161  11.603   4.285   6.507 -0.2477  0.1622 -0.1230
  974POPC   GL213162  11.668   3.974   6.641 -0.2271 -0.0828 -0.0311
  974POPC   C1A13163  11.509   4.402   6.898 -0.0318  0.0285 -0.0641
  974POPC   D2A13164  11.162   4.344   7.223 -0.0592 -0.0916 -0.1960
  974POPC   C3A13165  11.337   4.416   7.585  0.1091  0.1512 -0.0723
  974POPC   C4A13166  11.401   4.803   7.750 -0.0425  0.1193  0.2353
  974POPC   C1B13167  11.331   3.844   6.989 -0.1311  0.4100  0.0659
  974POPC   C2B13168  11.257   3.884   7.498 -0.0510  0.4198 -0.0125
  974POPC   C3B13169  11.330   3.920   7.947  0.5163 -0.3158 -0.0279
  974POPC   C4B13170  11.344   3.731   8.285  0.0353  0.0754  0.3309
  975POPC   NC313171   7.766  15.685   5.202 -0.1049  0.2612 -0.0273
  975POPC   PO413172   7.888  15.892   5.643  0.2347 -0.3457  0.0430
  975POPC   GL113173   7.921  15.952   6.039 -0.1160 -0.1880 -0.0315
  975POPC   GL213174   8.005  16.283   6.121  0.2531 -0.1360 -0.0490
  975POPC   C1A13175   7.810  15.988   6.458  0.1023 -0.2679  0.1400
  975POPC   D2A13176   7.859  16.266   6.908 -0.0216  0.0024  0.2520
  975POPC   C3A13177   7.639  16.570   7.069  0.0943  0.1078 -0.0649
  975POPC   C4A13178   7.456  16.947   7.257 -0.0762 -0.2585  0.0342
  975POPC   C1B13179   8.255  16.402   6.447 -0.1631 -0.0943 -0.1863
  975POPC   C2B13180   8.401  16.316   6.957  0.2496  0.1179  0.4499
  975POPC   C3B13181   8.528  16.260   7.375  0.0266 -0.0853  0.3450
  975POPC   C4B13182   8.453  16.280   7.810 -0.0526 -0.1763  0.2659
  976POPC   NC313183   7.399   1.042   5.901  0.2090  0.0507 -0.0337
  976POPC   PO413184   7.638   0.710   6.062  0.1039 -0.0885  0.0311
  976POPC   GL113185   7.817   0.417   6.393 -0.0851  0.1275 -0.0786
  976POPC   GL213186   7.446   0.463   6.507  0.1529  0.1792 -0.1213
  976POPC   C1A13187   7.931   0.238   6.820 -0.1571  0.2676  0.0062
  976POPC   D2A13188   8.171   0.107   7.136  0.0541  0.1067  0.0458
  976POPC   C3A13189   8.252   0.284   7.555  0.2057 -0.1522 -0.1260
  976POPC   C4A13190   8.504   0.140   7.963 -0.0367  0.0365  0.1707
  976POPC   C1B13191   7.479   0.349   6.890  0.0112 -0.2931  0.1213
  976POPC   C2B13192   7.280   0.265   7.210  0.0671 -0.0873 -0.4050
  976POPC   C3B13193   7.369   0.209   7.649  0.3436  0.0026  0.0699
  976POPC   C4B13194   7.247   0.168   8.108  0.3174  0.0343 -0.1711
  977POPC   NC313195   0.194   7.373   5.251  0.2418  0.0008  0.0300
  977POPC   PO413196  -0.123   7.352   5.608  0.0267  0.0942 -0.0589
  977POPC   GL113197  -0.016   7.459   6.090  0.0467  0.0178  0.1435
  977POPC   GL213198  -0.006   7.161   6.218  0.0608  0.1619  0.0557
  977POPC   C1A13199  -0.012   7.516   6.520  0.1185 -0.1352 -0.1930
  977POPC   D2A13200  -0.191   7.654   6.906 -0.1378  0.0382  0.1342
  977POPC   C3A13201  -0.174   7.665   7.284 -0.2697  0.0466  0.1120
  977POPC   C4A13202  -0.201   7.748   7.776 -0.0177  0.2870  0.2068
  977POPC   C1B13203   0.355   7.175   6.607  0.0798 -0.0091 -0.1632
  977POPC   C2B13204   0.328   7.474   6.898 -0.2978 -0.4027 -0.2107
  977POPC   C3B13205   0.312   7.589   7.339  0.0595  0.2481  0.0167
  977POPC   C4B13206   0.226   7.453   7.752 -0.2166 -0.0482  0.1074
  978POPC   NC313207   3.965  10.480   5.832  0.1585 -0.1549 -0.1406
  978POPC   PO413208   4.021  10.073   5.926  0.0767  0.0640 -0.1854
  978POPC   GL113209   4.057  10.226   6.239  0.0919 -0.0326  0.0667
  978POPC   GL213210   3.779  10.158   6.365 -0.0888  0.1814 -0.1827
  978POPC   C1A13211   4.266  10.287   6.588 -0.0607 -0.2137 -0.0124
  978POPC   D2A13212   4.450  10.387   7.018 -0.1059  0.2166 -0.1096
  978POPC   C3A13213   4.551  10.379   7.431  0.0853 -0.1116 -0.0648
  978POPC   C4A13214   4.489  10.520   7.887  0.1898  0.0786  0.0316
  978POPC   C1B13215   3.752  10.279   6.768  0.1239 -0.0288 -0.0687
  978POPC   C2B13216   3.549  10.353   7.192 -0.2742  0.0108 -0.2500
  978POPC   C3B13217   3.361  10.404   7.567 -0.0705  0.2314 -0.0915
  978POPC   C4B13218   3.547  10.208   7.971 -0.1209  0.0300  0.1920
  979POPC   NC313219   4.782  16.754   6.095 -0.0111 -0.2573 -0.2427
  979POPC   PO413220   4.864  17.037   6.294 -0.0934  0.0786 -0.0187
  979POPC   GL113221   5.100  17.091   6.622 -0.2780 -0.3708  0.0202
  979POPC   GL213222   5.412  17.092   6.515 -0.1025 -0.0269 -0.0853
  979POPC   C1A13223   5.014  17.074   6.998  0.1484  0.3328 -0.0113
  979POPC   D2A13224   4.910  16.923   7.368 -0.0351  0.0647  0.0864
  979POPC   C3A13225   4.881  17.188   7.809 -0.2636  0.0643 -0.0152
  979POPC   C4A13226   4.728  17.102   8.228  0.1908  0.4078 -0.1255
  979POPC   C1B13227   5.423  17.293   6.992 -0.0348 -0.0613 -0.0875
  979POPC   C2B13228   5.212  17.305   7.402 -0.1691 -0.3533  0.1961
  979POPC   C3B13229   5.277  17.411   7.717 -0.0142 -0.1542  0.0249
  979POPC   C4B13230   5.338  17.219   8.098  0.2095  0.0227  0.0590
  980POPC   NC313231   8.071  17.200   5.919  0.1059 -0.2039 -0.1479
  980POPC   PO413232   7.827  17.358   5.565  0.2635  0.1576 -0.1511
  980POPC   GL113233   7.425  17.239   5.822  0.1036  0.2997 -0.1006
  980POPC   GL213234   7.650  17.392   6.130 -0.1232  0.2635  0.0238
  980POPC   C1A13235   7.093  17.097   6.115  0.1380  0.1193  0.0994
  980POPC   D2A13236   6.824  17.154   6.507  0.0895  0.1744  0.3829
  980POPC   C3A13237   6.709  16.763   6.817 -0.0787  0.7366 -0.2642
  980POPC   C4A13238   6.367  16.650   7.121 -0.1021  0.1364  0.1555
  980POPC   C1B13239   7.314  17.619   6.159 -0.1133 -0.1874 -0.1634
  980POPC   C2B13240   6.951  17.635   6.387 -0.0049 -0.2150  0.1126
  980POPC   C3B13241   6.713  17.530   6.827  0.3153 -0.0029  0.0635
  980POPC   C4B13242   6.529  17.545   7.178  0.0799  0.0371 -0.0720
  981POPC   NC313243   6.164  15.978   5.555 -0.0941  0.1257  0.1209
  981POPC   PO413244   5.851  16.223   5.403 -0.0851  0.0502 -0.1684
  981POPC   GL113245   5.879  16.302   5.883  0.4552 -0.0683 -0.1283
  981POPC   GL213246   5.553  16.332   6.076  0.2274  0.0519  0.1990
  981POPC   C1A13247   6.166  16.194   6.237  0.0211 -0.4536  0.1893
  981POPC   D2A13248   6.503  16.359   6.504 -0.0514 -0.0211  0.1460
  981POPC   C3A13249   6.496  16.161   6.914 -0.0845  0.0776 -0.4371
  981POPC   C4A13250   6.305  16.109   7.257  0.3347  0.0613  0.1564
  981POPC   C1B13251   5.607  16.066   6.499 -0.1425  0.0837  0.0757
  981POPC   C2B13252   5.579  16.075   6.938 -0.1124  0.0970  0.2311
  981POPC   C3B13253   5.552  16.235   7.333  0.1058 -0.0505 -0.0367
  981POPC   C4B13254   5.655  16.467   7.766  0.0745  0.1842  0.0804
  982YOPC   NC313255  16.469   6.322   6.298  0.1436  0.0700 -0.0401
  982YOPC   PO413256  16.711   6.541   6.222  0.1009  0.0887 -0.2874
  982YOPC   GL113257  16.716   6.696   6.610 -0.0803  0.0260 -0.0871
  982YOPC   GL213258  16.732   6.410   6.731 -0.0379 -0.1928  0.0979
  982YOPC   C1A13259  16.536   6.929   6.931  0.0747  0.0273 -0.3093
  982YOPC   D2A13260  16.533   7.216   7.263 -0.0928 -0.2490 -0.3055
  982YOPC   C3A13261  16.786   7.341   7.684  0.1797  0.4385 -0.0503
  982YOPC   C4A13262  17.102   7.237   8.041 -0.0238 -0.2036  0.0743
  982YOPC   C1B13263  17.192   6.144   6.850  0.1750  0.0150 -0.2368
  982YOPC   C2B13264  17.316   6.106   7.367  0.1132  0.1367  0.1211
  982YOPC   D3B13265  17.761   6.128   7.379  0.1175 -0.1371  0.1350
  982YOPC   C4B13266  18.166   6.033   7.171  0.1799  0.0517  0.1184
  983YOPC   NC313267   3.050  12.624   5.747  0.3826  0.0444  0.0121
  983YOPC   PO413268   3.304  12.890   5.491 -0.0581 -0.0947  0.1549
  983YOPC   GL113269   3.492  13.031   5.877  0.1934  0.0754  0.2189
  983YOPC   GL213270   3.313  13.016   6.038 -0.1587  0.0452 -0.1250
  983YOPC   C1A13271   3.782  12.752   6.293 -0.0672  0.1914 -0.0554
  983YOPC   D2A13272   4.060  12.556   6.485 -0.1406 -0.3717  0.1723
  983YOPC   C3A13273   3.755  12.347   6.762  0.0023 -0.3017 -0.1158
  983YOPC   C4A13274   3.531  12.552   7.123 -0.1255 -0.0486 -0.0443
  983YOPC   C1B13275   3.263  12.879   6.396 -0.3362  0.2616 -0.1167
  983YOPC   C2B13276   3.510  12.850   6.803  0.1620 -0.0623  0.0313
  983YOPC   D3B13277   3.482  13.040   7.150  0.3557  0.0666  0.0177
  983YOPC   C4B13278   3.398  13.115   7.548 -0.2648  0.3750  0.0225
  984YOPC   NC313279   2.087  10.325   5.894 -0.0501 -0.1411  0.2317
  984YOPC   PO413280   1.880   9.989   5.899 -0.1150  0.0032  0.2435
  984YOPC   GL113281   2.028   9.846   6.248  0.1334 -0.1995 -0.1342
  984YOPC   GL213282   2.208   9.607   6.335  0.0478 -0.1865 -0.1971
  984YOPC   C1A13283   1.853   9.823   6.688 -0.2057 -0.2350 -0.0129
  984YOPC   D2A13284   1.890   9.851   7.181  0.2239 -0.1531 -0.2480
  984YOPC   C3A13285   2.187   9.692   7.447  0.0819 -0.0336  0.0228
  984YOPC   C4A13286   2.382   9.370   7.667  0.2047 -0.0190 -0.2523
  984YOPC   C1B13287   2.613   9.684   6.316 -0.0893 -0.1622  0.1409
  984YOPC   C2B13288   2.907   9.920   6.486  0.3949  0.0310  0.2097
  984YOPC   D3B13289   2.858   9.809   6.935  0.2261 -0.2160 -0.1438
  984YOPC   C4B13290   2.714   9.607   7.371  0.1890 -0.0866 -0.2355
  985YOPC   NC313291   4.770  11.057   5.775 -0.1133 -0.2474  0.0615
  985YOPC   PO413292   4.898  11.453   5.885 -0.1013  0.1579  0.2893
  985YOPC   GL113293   4.579  11.499   6.176 -0.2539 -0.1025 -0.1219
  985YOPC   GL213294   4.354  11.332   6.037  0.1159 -0.0679 -0.0271
  985YOPC   C1A13295   4.341  11.532   6.481  0.0824 -0.0283 -0.0720
  985YOPC   D2A13296   4.340  11.614   6.832 -0.0016  0.1560 -0.0591
  985YOPC   C3A13297   4.271  11.611   7.276 -0.0126  0.0798 -0.0775
  985YOPC   C4A13298   4.253  11.358   7.676 -0.2068  0.0153 -0.1034
  985YOPC   C1B13299   3.991  11.158   6.255  0.1919 -0.2536 -0.0532
  985YOPC   C2B13300   3.633  11.041   6.306 -0.1196  0.1043  0.0390
  985YOPC   D3B13301   3.462  10.649   6.549  0.0913  0.0860  0.0196
  985YOPC   C4B13302   3.258  10.226   6.336 -0.0205  0.1820 -0.0513
  986YOPC   NC313303   9.428   2.189   6.732  0.0229  0.0614  0.0590
  986YOPC   PO413304   9.717   2.009   6.304  0.0144 -0.0397 -0.1424
  986YOPC   GL113305   9.839   1.858   6.755 -0.3601  0.1924  0.2272
  986YOPC   GL213306   9.578   1.691   6.856  0.2594  0.2700  0.1334
  986YOPC   C1A13307   9.991   2.066   7.084  0.0366 -0.1330 -0.0762
  986YOPC   D2A13308  10.058   1.992   7.421 -0.0112 -0.1784  0.1110
  986YOPC   C3A13309  10.347   2.131   7.720  0.2752  0.2231  0.1649
  986YOPC   C4A13310  10.394   2.124   8.232  0.0746 -0.0063  0.2120
  986YOPC   C1B13311   9.587   1.823   7.306 -0.0110  0.0445  0.0655
  986YOPC   C2B13312   9.718   1.776   7.712  0.0603 -0.1779  0.2575
  986YOPC   D3B13313   9.824   2.180   7.973  0.0257  0.0996  0.0347
  986YOPC   C4B13314  10.114   2.550   8.177  0.2117  0.1962  0.1199
  987YOPC   NC313315   9.354  14.304   5.700  0.4986 -0.0810 -0.1268
  987YOPC   PO413316   9.212  14.023   5.980  0.0260  0.0292  0.2572
  987YOPC   GL113317   9.097  13.964   6.282 -0.2611 -0.3972  0.1733
  987YOPC   GL213318   9.440  13.855   6.343 -0.1846  0.0242  0.0676
  987YOPC   C1A13319   8.780  14.141   6.611  0.0280  0.2346  0.2677
  987YOPC   D2A13320   8.822  14.434   6.810 -0.1887  0.0495 -0.0903
  987YOPC   C3A13321   8.898  14.503   7.307  0.0000  0.2310 -0.2325
  987YOPC   C4A13322   8.934  14.537   7.735  0.2831 -0.1282  0.1884
  987YOPC   C1B13323   9.409  13.652   6.759 -0.1470 -0.0791 -0.0439
  987YOPC   C2B13324   9.379  13.484   7.176  0.1674  0.0354 -0.0910
  987YOPC   D3B13325   9.345  13.174   7.540 -0.0340 -0.0725  0.0754
  987YOPC   C4B13326   9.321  12.806   7.761  0.0219 -0.0199  0.0253
  988YOPC   NC313327   6.221   6.227   6.202 -0.0954 -0.1572 -0.1189
  988YOPC   PO413328   6.595   6.228   6.513  0.0244  0.0391  0.0187
  988YOPC   GL113329   6.619   5.876   6.745 -0.1483 -0.1545  0.0962
  988YOPC   GL213330   6.732   5.931   7.026 -0.0993  0.2034 -0.1354
  988YOPC   C1A13331   6.473   5.498   7.077  0.2115 -0.1231 -0.4177
  988YOPC   D2A13332   6.577   5.191   7.289  0.3723 -0.0945  0.1013
  988YOPC   C3A13333   6.704   5.328   7.715  0.0022 -0.2014 -0.0001
  988YOPC   C4A13334   6.607   5.549   8.061  0.1937  0.0524  0.0089
  988YOPC   C1B13335   6.414   5.990   7.316  0.1843  0.0188 -0.0993
  988YOPC   C2B13336   6.526   5.933   7.706 -0.1865  0.1146  0.0125
  988YOPC   D3B13337   6.579   6.144   8.053 -0.0316  0.4400 -0.0618
  988YOPC   C4B13338   6.635   6.447   8.400 -0.0542  0.0839  0.0968
  989YOPC   NC313339  13.858  11.118   5.627 -0.2574 -0.4141 -0.2321
  989YOPC   PO413340  13.626  11.453   5.728 -0.0884  0.2233 -0.1597
  989YOPC   GL113341  13.584  11.438   6.184 -0.0462  0.1304  0.2280
  989YOPC   GL213342  13.816  11.568   6.361  0.0927  0.1560  0.1405
  989YOPC   C1A13343  13.350  11.537   6.611 -0.0547 -0.2533  0.2729
  989YOPC   D2A13344  12.962  11.858   6.522  0.0995 -0.0925  0.1687
  989YOPC   C3A13345  12.932  12.034   6.869 -0.1822  0.0281 -0.1350
  989YOPC   C4A13346  12.943  11.955   7.311  0.2348 -0.1155  0.1681
  989YOPC   C1B13347  13.810  11.316   6.816  0.3449  0.1614  0.0759
  989YOPC   C2B13348  13.879  11.136   7.165 -0.0695 -0.1379 -0.0883
  989YOPC   D3B13349  13.800  10.663   7.278 -0.0042  0.2705  0.0845
  989YOPC   C4B13350  13.729  10.358   6.983  0.0258 -0.1419  0.0393
  990YOPC   NC313351   0.473   3.307   5.750 -0.1685  0.0059  0.0592
  990YOPC   PO413352   0.376   2.892   5.654  0.2147 -0.0676 -0.0952
  990YOPC   GL113353   0.502   2.892   6.050  0.1321  0.5078 -0.0605
  990YOPC   GL213354   0.514   2.534   6.123 -0.1766 -0.0711 -0.1873
  990YOPC   C1A13355   0.403   3.024   6.463 -0.2077  0.1713 -0.0874
  990YOPC   D2A13356   0.313   2.983   6.938  0.0702  0.1634 -0.0135
  990YOPC   C3A13357   0.498   3.134   7.323 -0.1205  0.1016 -0.0256
  990YOPC   C4A13358   0.817   3.297   7.457 -0.2332 -0.0398  0.0483
  990YOPC   C1B13359   0.202   2.491   6.430 -0.1456 -0.3413 -0.0831
  990YOPC   C2B13360   0.016   2.525   6.794  0.2932 -0.1039  0.0504
  990YOPC   D3B13361   0.192   2.577   7.236  0.4524 -0.0328 -0.0470
  990YOPC   C4B13362   0.258   2.668   7.627 -0.2741  0.0206 -0.1299
  991YOPC   NC313363   2.074  11.605   5.727 -0.0355 -0.3965 -0.1838
  991YOPC   PO413364   2.536  11.810   5.878 -0.0278  0.0976  0.0284
  991YOPC   GL113365   2.690  11.906   6.286 -0.0793 -0.2790 -0.0681
  991YOPC   GL213366   2.364  11.976   6.545  0.1951 -0.1235 -0.1342
  991YOPC   C1A13367   2.687  11.508   6.507  0.1362  0.1547  0.0158
  991YOPC   D2A13368   2.575  11.637   6.886 -0.1890  0.1033 -0.1237
  991YOPC   C3A13369   2.715  11.544   7.273  0.1941 -0.0396  0.1068
  991YOPC   C4A13370   3.016  11.730   7.559  0.3519  0.2729  0.0322
  991YOPC   C1B13371   2.365  12.081   7.025  0.0282 -0.1915  0.0176
  991YOPC   C2B13372   2.716  12.077   7.454  0.1087 -0.0126  0.2246
  991YOPC   D3B13373   3.040  12.301   7.599 -0.1544  0.1519  0.0188
  991YOPC   C4B13374   3.331  12.601   7.552 -0.0647  0.0632  0.0143
  992YOPC   NC313375   2.337   6.761   5.759  0.1462 -0.1359 -0.1028
  992YOPC   PO413376   2.554   6.407   5.950 -0.2821 -0.1225 -0.1335
  992YOPC   GL113377   2.509   6.750   6.248  0.0514 -0.1120  0.0650
  992YOPC   GL213378   2.452   7.055   6.132 -0.1934 -0.3066  0.2370
  992YOPC   C1A13379   2.540   6.785   6.719  0.1523  0.0543 -0.0559
  992YOPC   D2A13380   2.417   6.713   7.112  0.0044  0.0494  0.1140
  992YOPC   C3A13381   2.441   6.755   7.478  0.1800 -0.0839  0.1785
  992YOPC   C4A13382   2.661   6.560   7.807 -0.0467  0.1511 -0.3928
  992YOPC   C1B13383   2.192   7.196   6.467  0.1579  0.0567  0.1068
  992YOPC   C2B13384   2.288   7.279   6.877 -0.0376  0.2575 -0.2459
  992YOPC   D3B13385   2.063   6.985   7.169  0.0627  0.3298 -0.0524
  992YOPC   C4B13386   1.972   7.143   7.662 -0.0350 -0.2584  0.3102
  993YOPC   NC313387  13.066  15.738   5.845  0.1673 -0.0606  0.3040
  993YOPC   PO413388  12.894  15.341   5.862 -0.0170 -0.0270 -0.3584
  993YOPC   GL113389  12.869  15.393   6.311 -0.0466  0.1783  0.1433
  993YOPC   GL213390  12.906  15.648   6.504 -0.0580  0.1750 -0.0002
  993YOPC   C1A13391  12.859  15.117   6.657  0.1305 -0.2077  0.2028
  993YOPC   D2A13392  12.865  14.989   6.971  0.1185  0.0149  0.1451
  993YOPC   C3A13393  13.229  14.740   7.029 -0.2726 -0.3633 -0.2534
  993YOPC   C4A13394  13.317  14.399   7.212 -0.0348 -0.0550 -0.0170
  993YOPC   C1B13395  12.883  15.614   6.909 -0.0481  0.1157 -0.2010
  993YOPC   C2B13396  12.597  15.815   7.302  0.3232  0.0119  0.0410
  993YOPC   D3B13397  12.737  15.614   7.580 -0.2421  0.0294 -0.0797
  993YOPC   C4B13398  12.776  15.575   7.954  0.3623  0.1470 -0.1395
  994YOPC   NC313399   7.849  16.978   5.138 -0.0576 -0.1437 -0.0652
  994YOPC   PO413400   7.740  16.884   5.542  0.1012 -0.0074 -0.0962
  994YOPC   GL113401   7.718  16.858   5.970  0.0152 -0.1954 -0.2960
  994YOPC   GL213402   7.414  16.762   6.094 -0.2350 -0.0065  0.0985
  994YOPC   C1A13403   7.851  16.696   6.343  0.2285 -0.0670  0.1663
  994YOPC   D2A13404   8.050  16.711   6.791  0.1167 -0.5038 -0.0859
  994YOPC   C3A13405   7.949  16.840   7.285  0.0013 -0.0711 -0.0161
  994YOPC   C4A13406   7.759  16.941   7.686 -0.0495  0.2820 -0.0480
  994YOPC   C1B13407   7.499  17.047   6.443  0.1318  0.0428 -0.0081
  994YOPC   C2B13408   7.227  17.361   6.686  0.3587 -0.0711  0.0411
  994YOPC   D3B13409   7.238  17.434   7.057 -0.0425  0.2515 -0.4034
  994YOPC   C4B13410   7.340  17.372   7.519 -0.4412 -0.1407 -0.0565
  995YOPC   NC313411   5.527   8.751   5.798 -0.1122  0.0486  0.0190
  995YOPC   PO413412   5.486   9.059   5.555  0.1956  0.0174 -0.1630
  995YOPC   GL113413   5.331   9.296   5.925  0.2716 -0.3235 -0.0408
  995YOPC   GL213414   5.509   9.339   6.227 -0.0999 -0.0766  0.0805
  995YOPC   C1A13415   4.911   9.295   6.163  0.0489 -0.1095  0.2247
  995YOPC   D2A13416   4.486   9.384   6.205  0.0464 -0.2027  0.2906
  995YOPC   C3A13417   4.234   9.339   6.608 -0.0272  0.0520  0.1955
  995YOPC   C4A13418   4.089   9.500   7.039  0.0676  0.2437  0.2456
  995YOPC   C1B13419   5.308   9.274   6.536  0.1012 -0.0277  0.3349
  995YOPC   C2B13420   4.966   9.285   6.797  0.2491 -0.0188 -0.0942
  995YOPC   D3B13421   5.006   9.527   7.158 -0.0264  0.1977  0.0675
  995YOPC   C4B13422   5.009   9.512   7.500 -0.0830  0.0596 -0.3118
  996YOPC   NC313423  15.541   6.552   5.618 -0.0806 -0.2748  0.0527
  996YOPC   PO413424  15.870   6.203   5.599 -0.1181 -0.4387  0.1221
  996YOPC   GL113425  15.837   6.107   6.020  0.0745  0.0604  0.0183
  996YOPC   GL213426  15.996   6.089   6.270 -0.1412  0.0238  0.0929
  996YOPC   C1A13427  15.558   6.338   6.392 -0.0268  0.1299  0.1842
  996YOPC   D2A13428  15.113   6.581   6.459  0.1407 -0.0757  0.1833
  996YOPC   C3A13429  15.254   6.814   6.861  0.0489  0.1489  0.0299
  996YOPC   C4A13430  15.116   7.184   6.977  0.3372  0.0936 -0.0988
  996YOPC   C1B13431  15.915   6.051   6.705  0.1108  0.0256 -0.0657
  996YOPC   C2B13432  15.789   6.154   7.069 -0.1746 -0.0717  0.0432
  996YOPC   D3B13433  15.760   6.280   7.455  0.0765 -0.1144 -0.0239
  996YOPC   C4B13434  16.047   6.574   7.614 -0.0243 -0.1273  0.1891
  997YOPC   NC313435   3.569  13.340   5.441 -0.3209  0.2443 -0.0268
  997YOPC   PO413436   3.448  13.759   5.568 -0.1272  0.1999 -0.2386
  997YOPC   GL113437   3.404  13.537   5.915  0.1750 -0.1609 -0.1621
  997YOPC   GL213438   3.572  13.698   6.193 -0.2955 -0.0792  0.0870
  997YOPC   C1A13439   3.207  13.403   6.372  0.1512  0.1975  0.1377
  997YOPC   D2A13440   3.113  13.268   6.806  0.2684  0.0387  0.0429
  997YOPC   C3A13441   2.811  13.446   7.113  0.1052  0.3711  0.1043
  997YOPC   C4A13442   2.784  13.451   7.592 -0.1514 -0.0012 -0.2946
  997YOPC   C1B13443   3.621  13.939   6.561  0.3942 -0.0338  0.2286
  997YOPC   C2B13444   3.770  13.985   6.995 -0.0572 -0.0140  0.3032
  997YOPC   D3B13445   4.079  13.938   7.322 -0.0149  0.1324 -0.1747
  997YOPC   C4B13446   4.374  13.882   7.573 -0.0245  0.0728  0.0278
  998YOPC   NC313447  17.276  11.888   5.950 -0.0084  0.0072  0.3947
  998YOPC   PO413448  17.658  11.764   5.709 -0.1549  0.2903  0.0551
  998YOPC   GL113449  17.710  11.876   6.144 -0.1805  0.1946 -0.2281
  998YOPC   GL213450  17.547  12.204   6.198  0.1329 -0.1550  0.1449
  998YOPC   C1A13451  17.498  11.834   6.511  0.1129 -0.0686 -0.2104
  998YOPC   D2A13452  17.281  11.530   6.716  0.2102 -0.1568 -0.3225
  998YOPC   C3A13453  17.207  11.811   7.123 -0.0038 -0.0954 -0.1311
  998YOPC   C4A13454  17.388  12.159   7.272 -0.0382  0.1544 -0.0926
  998YOPC   C1B13455  17.402  12.298   6.565 -0.0438 -0.1593 -0.3814
  998YOPC   C2B13456  17.453  12.563   7.002  0.0177  0.0678 -0.0199
  998YOPC   D3B13457  17.283  12.717   7.445  0.0765 -0.2824  0.1792
  998YOPC   C4B13458  17.337  12.549   7.919  0.2089 -0.1386  0.1589
  999YOPC   NC313459   1.615  12.250   5.538 -0.1566  0.0109  0.0717
  999YOPC   PO413460   1.471  12.082   5.965 -0.1444  0.0886  0.1641
  999YOPC   GL113461   1.467  12.071   6.468 -0.0836  0.1949  0.0347
  999YOPC   GL213462   1.834  12.117   6.600  0.0796 -0.0840  0.0574
  999YOPC   C1A13463   1.194  12.134   6.850 -0.3239  0.0077  0.0359
  999YOPC   D2A13464   0.920  12.089   7.142  0.0846  0.3344  0.1054
  999YOPC   C3A13465   0.652  12.414   7.050 -0.2698 -0.2667 -0.2008
  999YOPC   C4A13466   0.306  12.530   6.760 -0.5394 -0.0831 -0.0052
  999YOPC   C1B13467   1.786  12.112   7.104 -0.0238  0.0454  0.0357
  999YOPC   C2B13468   2.067  12.138   7.448 -0.1250 -0.1105  0.2136
  999YOPC   D3B13469   2.159  12.336   7.758 -0.1911  0.1213  0.1213
  999YOPC   C4B13470   2.185  12.681   7.965  0.0758 -0.1648 -0.3255
 1000YOPC   NC313471  10.105   9.408   5.554 -0.2581  0.3528  0.2745
 1000YOPC   PO413472  10.481   9.116   5.825 -0.0020 -0.0725 -0.2468
 1000YOPC   GL113473  10.375   9.227   6.322 -0.2327  0.0105  0.1035
 1000YOPC   GL213474  10.629   9.436   6.574  0.4275 -0.1381  0.0214
 1000YOPC   C1A13475  10.300   9.127   6.724  0.0194 -0.0756  0.1835
 1000YOPC   D2A13476  10.382   9.049   7.184  0.1389 -0.3455  0.1814
 1000YOPC   C3A13477  10.408   9.278   7.464  0.1122  0.0451 -0.1751
 1000YOPC   C4A13478  10.560   9.578   7.585 -0.3944 -0.1373 -0.1386
 1000YOPC   C1B13479  10.816   9.794   6.816  0.3059 -0.1596 -0.0134
 1000YOPC   C2B13480  10.831  10.099   7.122  0.1714  0.1113 -0.1255
 1000YOPC   D3B13481  10.816  10.089   7.536  0.0955 -0.1120 -0.2013
 1000YOPC   C4B13482  10.695  10.163   7.944  0.1703 -0.2171  0.1987
 1001YOPC   NC313483   3.586   4.673   5.048  0.2344 -0.0926 -0.4043
 1001YOPC   PO413484   3.505   4.988   5.269  0.1333  0.0212  0.2999
 1001YOPC   GL113485   3.355   5.122   5.707 -0.0468 -0.0698 -0.1102
 1001YOPC   GL213486   3.556   5.547   5.875  0.3794  0.4760 -0.3183
 1001YOPC   C1A13487   3.285   5.174   6.141  0.0530  0.0995 -0.2572
 1001YOPC   D2A13488   3.420   5.409   6.384  0.1899 -0.0855 -0.1234
 1001YOPC   C3A13489   3.241   5.304   6.850  0.2381  0.0799  0.0302
 1001YOPC   C4A13490   2.977   5.374   7.321 -0.4295  0.2499 -0.1795
 1001YOPC   C1B13491   3.930   5.583   6.218 -0.2465 -0.0406 -0.3721
 1001YOPC   C2B13492   4.213   5.804   6.587 -0.0784  0.0855 -0.2931
 1001YOPC   D3B13493   4.289   6.175   6.568 -0.1052 -0.2777  0.0891
 1001YOPC   C4B13494   4.468   6.653   6.688 -0.0878  0.1691  0.2879
 1002YOPC   NC313495  14.836   3.937   6.255 -0.1232  0.2896 -0.2458
 1002YOPC   PO413496  14.510   4.240   6.341  0.0654  0.0561 -0.0185
 1002YOPC   GL113497  14.612   4.445   6.739 -0.2402  0.2094 -0.1314
 1002YOPC   GL213498  14.886   4.332   6.808 -0.0136 -0.3803  0.0513
 1002YOPC   C1A13499  14.663   4.813   7.030 -0.2259 -0.3973  0.2602
 1002YOPC   D2A13500  14.545   5.112   7.344 -0.1960 -0.0107 -0.2358
 1002YOPC   C3A13501  14.496   4.943   7.867 -0.3811  0.1709  0.1639
 1002YOPC   C4A13502  14.681   4.953   8.343 -0.1597  0.1908  0.0477
 1002YOPC   C1B13503  14.975   4.427   7.221  0.0112 -0.2186  0.2860
 1002YOPC   C2B13504  15.332   4.586   7.388  0.1801  0.0539  0.1663
 1002YOPC   D3B13505  15.359   4.518   7.747 -0.0957 -0.3334  0.1959
 1002YOPC   C4B13506  15.285   4.302   8.150 -0.0859  0.0199  0.2244
 1003YOPC   NC313507  18.083   8.326   5.424 -0.0279  0.4168 -0.2912
 1003YOPC   PO413508  18.171   8.749   5.435 -0.1690  0.0661 -0.3191
 1003YOPC   GL113509  18.179   8.786   5.882 -0.3138 -0.1504  0.0317
 1003YOPC   GL213510  18.179   8.427   5.902  0.2502  0.3636  0.0628
 1003YOPC   C1A13511  18.198   8.775   6.266 -0.1208 -0.0697  0.0959
 1003YOPC   D2A13512  18.055   8.956   6.661  0.4967  0.2311  0.0256
 1003YOPC   C3A13513  18.056   8.812   7.025 -0.2092 -0.1868 -0.0127
 1003YOPC   C4A13514  18.307   8.526   7.313 -0.1784 -0.0341  0.0404
 1003YOPC   C1B13515  18.269   7.947   6.054  0.2965  0.0673  0.2183
 1003YOPC   C2B13516  18.489   7.715   6.287 -0.0048 -0.1115 -0.2093
 1003YOPC   D3B13517  18.568   7.289   6.123 -0.1934  0.2733 -0.1944
 1003YOPC   C4B13518  18.567   6.864   6.165 -0.0550  0.2255 -0.0599
 1004YOPC   NC313519   9.603  11.511   6.140  0.0425  0.0636 -0.2368
 1004YOPC   PO413520   9.905  11.840   6.326 -0.1144  0.1957 -0.2592
 1004YOPC   GL113521  10.017  11.923   6.722 -0.1294 -0.0178  0.1820
 1004YOPC   GL213522  10.288  11.739   6.663 -0.0300  0.1920  0.0908
 1004YOPC   C1A13523   9.937  11.964   7.143  0.2967  0.0170  0.1696
 1004YOPC   D2A13524   9.912  12.265   7.444 -0.1764  0.0789  0.0999
 1004YOPC   C3A13525  10.262  12.419   7.590  0.1617  0.2861 -0.4398
 1004YOPC   C4A13526  10.537  12.505   7.902  0.0035 -0.0838 -0.1094
 1004YOPC   C1B13527  10.244  11.594   7.051 -0.0526  0.1105 -0.0770
 1004YOPC   C2B13528  10.253  11.263   7.409  0.0043 -0.1289  0.2141
 1004YOPC   D3B13529  10.028  11.282   7.737  0.0560  0.0122  0.0026
 1004YOPC   C4B13530   9.729  11.222   8.037  0.3284 -0.1034  0.0545
 1005YOPC   NC313531  14.901   9.193   6.285  0.0168 -0.2249  0.1328
 1005YOPC   PO413532  14.959   8.799   6.478  0.1111 -0.1082  0.1651
 1005YOPC   GL113533  14.822   8.743   6.859  0.0968  0.0735  0.0369
 1005YOPC   GL213534  14.899   8.360   6.903  0.0018 -0.0367 -0.0913
 1005YOPC   C1A13535  14.819   8.825   7.338  0.0288 -0.0212 -0.4557
 1005YOPC   D2A13536  14.741   8.779   7.752 -0.0814  0.0333 -0.0622
 1005YOPC   C3A13537  15.043   8.926   7.969  0.2024 -0.0254  0.0984
 1005YOPC   C4A13538  15.184   9.278   8.111  0.0364  0.0719 -0.1982
 1005YOPC   C1B13539  14.908   8.370   7.387 -0.2977 -0.0008 -0.1093
 1005YOPC   C2B13540  15.015   8.349   7.813  0.0785 -0.2219  0.2083
 1005YOPC   D3B13541  14.750   8.466   8.169  0.0846  0.1082  0.4421
 1005YOPC   C4B13542  14.418   8.494   8.482  0.0425  0.1048 -0.0135
 1006YOPC   NC313543   1.676  14.387   5.710 -0.2179  0.1896  0.0836
 1006YOPC   PO413544   1.457  13.903   5.697  0.2442 -0.0117  0.1044
 1006YOPC   GL113545   1.563  13.813   6.170 -0.1968 -0.1136  0.1745
 1006YOPC   GL213546   1.943  13.826   6.106 -0.1049  0.0052  0.1023
 1006YOPC   C1A13547   1.301  13.795   6.541 -0.1728 -0.3206  0.1299
 1006YOPC   D2A13548   1.065  13.876   6.921  0.0435  0.0821 -0.1047
 1006YOPC   C3A13549   1.352  13.623   7.269 -0.0635  0.1405 -0.0487
 1006YOPC   C4A13550   1.524  13.172   7.248  0.1063 -0.3409 -0.0518
 1006YOPC   C1B13551   1.976  13.740   6.593  0.0188 -0.0402  0.0162
 1006YOPC   C2B13552   1.783  13.487   6.935  0.2495 -0.1057 -0.2350
 1006YOPC   D3B13553   1.836  13.733   7.276  0.3140  0.1600  0.3168
 1006YOPC   C4B13554   1.874  13.870   7.752 -0.0538  0.0932 -0.2002
 1007YOPC   NC313555   3.967  11.812   5.185  0.1445  0.1668 -0.1780
 1007YOPC   PO413556   4.050  11.940   5.509 -0.3455 -0.1520  0.0447
 1007YOPC   GL113557   3.879  11.928   5.865 -0.4062  0.0471  0.1108
 1007YOPC   GL213558   3.793  12.250   6.034  0.1673  0.0303  0.0863
 1007YOPC   C1A13559   3.946  11.652   6.143 -0.2449 -0.0494  0.0613
 1007YOPC   D2A13560   3.657  11.512   6.474  0.1087 -0.0780  0.2432
 1007YOPC   C3A13561   3.864  11.537   6.859  0.2139  0.0902  0.0582
 1007YOPC   C4A13562   4.061  11.203   7.058 -0.1275  0.1722  0.1203
 1007YOPC   C1B13563   3.640  12.028   6.359  0.0272  0.2353 -0.2336
 1007YOPC   C2B13564   3.524  11.866   6.865 -0.0327  0.0602  0.2739
 1007YOPC   D3B13565   3.832  11.912   7.159 -0.3562  0.0765  0.1051
 1007YOPC   C4B13566   3.918  11.910   7.665  0.1677  0.2526 -0.2887
 1008YOPC   NC313567  12.880   6.590   6.094 -0.1245  0.0188  0.1641
 1008YOPC   PO413568  12.650   6.182   6.022  0.0557 -0.3673  0.0380
 1008YOPC   GL113569  12.963   6.107   6.332 -0.2283  0.2776  0.1897
 1008YOPC   GL213570  13.085   5.851   6.423  0.0096  0.1370 -0.0498
 1008YOPC   C1A13571  13.116   6.261   6.746 -0.1679  0.0155 -0.1616
 1008YOPC   D2A13572  13.132   6.207   7.083  0.0543  0.0295  0.1731
 1008YOPC   C3A13573  12.770   6.057   7.263 -0.0887 -0.0512  0.1902
 1008YOPC   C4A13574  12.381   5.836   7.209  0.1896  0.0380  0.2489
 1008YOPC   C1B13575  13.099   5.768   6.901 -0.2554 -0.2330 -0.0835
 1008YOPC   C2B13576  13.155   5.828   7.415 -0.1935  0.2639 -0.1058
 1008YOPC   D3B13577  13.030   5.742   7.826  0.3169  0.0092  0.2549
 1008YOPC   C4B13578  12.778   5.492   8.007 -0.0333 -0.0420  0.2611
 1009YOPC   NC313579  15.375  14.565   5.572 -0.0447  0.1788  0.0047
 1009YOPC   PO413580  15.808  14.483   5.756 -0.2523 -0.3876  0.1525
 1009YOPC   GL113581  15.637  14.484   6.075  0.1479 -0.0255  0.0643
 1009YOPC   GL213582  15.551  14.209   6.171 -0.1155 -0.0410  0.1183
 1009YOPC   C1A13583  15.744  14.656   6.426  0.1579 -0.0127 -0.0789
 1009YOPC   D2A13584  15.979  14.709   6.825  0.2316 -0.0211  0.0041
 1009YOPC   C3A13585  15.848  14.701   7.270 -0.2542 -0.4369  0.1851
 1009YOPC   C4A13586  15.707  14.391   7.397 -0.0663  0.3097 -0.2472
 1009YOPC   C1B13587  15.321  13.948   6.386  0.0389 -0.0798 -0.2462
 1009YOPC   C2B13588  15.142  13.850   6.826 -0.1164  0.3538 -0.1838
 1009YOPC   D3B13589  15.017  13.615   7.252  0.0865  0.0403  0.1482
 1009YOPC   C4B13590  14.864  13.446   7.653 -0.3349  0.3404 -0.0404
 1010YOPC   NC313591  14.272   9.030   5.868  0.0909  0.0796  0.0897
 1010YOPC   PO413592  14.370   9.225   6.352  0.0800 -0.0725  0.5224
 1010YOPC   GL113593  14.568   9.412   6.724  0.0989 -0.1397 -0.0796
 1010YOPC   GL213594  14.754   9.248   6.796  0.3062  0.0009 -0.0468
 1010YOPC   C1A13595  14.676   9.443   7.262 -0.1955 -0.1491 -0.0851
 1010YOPC   D2A13596  14.817   9.239   7.641 -0.0386 -0.1891  0.2165
 1010YOPC   C3A13597  14.711   9.523   8.072 -0.1976 -0.2784 -0.2764
 1010YOPC   C4A13598  14.479   9.780   8.145  0.2988  0.2390  0.0806
 1010YOPC   C1B13599  15.130   9.144   7.117 -0.3253  0.1481 -0.1799
 1010YOPC   C2B13600  15.276   9.318   7.481 -0.3850 -0.2639  0.0863
 1010YOPC   D3B13601  15.540   9.111   7.773 -0.0417  0.1069 -0.3490
 1010YOPC   C4B13602  15.852   8.994   8.108  0.0676  0.1066  0.3934
 1011YOPC   NC313603  12.841  13.194   5.695 -0.1744 -0.3294 -0.2661
 1011YOPC   PO413604  12.733  12.879   5.858  0.0283  0.0356 -0.0037
 1011YOPC   GL113605  12.550  13.099   6.278  0.1108  0.3653  0.1414
 1011YOPC   GL213606  12.750  13.282   6.509 -0.1192  0.1356 -0.1742
 1011YOPC   C1A13607  12.256  13.035   6.751 -0.0064  0.1615  0.1524
 1011YOPC   D2A13608  12.133  12.927   7.176 -0.1576 -0.4800 -0.3449
 1011YOPC   C3A13609  12.141  13.239   7.418 -0.0547  0.0783  0.0223
 1011YOPC   C4A13610  12.108  13.646   7.599  0.2474 -0.0333 -0.2186
 1011YOPC   C1B13611  12.936  13.500   6.922 -0.2378 -0.1249 -0.0106
 1011YOPC   C2B13612  12.960  13.715   7.327  0.1376  0.1612  0.1053
 1011YOPC   D3B13613  13.009  14.128   7.539 -0.0904  0.0420 -0.1031
 1011YOPC   C4B13614  13.126  14.405   7.885 -0.1300 -0.0699 -0.1638
 1012YOPC   NC313615   1.152  10.344   5.753  0.1835 -0.1248 -0.1539
 1012YOPC   PO413616   1.009  10.020   6.076 -0.1383  0.0001 -0.1762
 1012YOPC   GL113617   1.136   9.962   6.503 -0.1669 -0.0936  0.0047
 1012YOPC   GL213618   0.878   9.707   6.475  0.2365 -0.1980 -0.0671
 1012YOPC   C1A13619   1.433  10.049   6.790  0.1095 -0.1102 -0.0482
 1012YOPC   D2A13620   1.506  10.140   7.173  0.2546  0.2755  0.0400
 1012YOPC   C3A13621   1.581  10.196   7.531  0.3083 -0.0664  0.0879
 1012YOPC   C4A13622   1.547  10.481   7.885  0.0448 -0.1044  0.1090
 1012YOPC   C1B13623   0.865   9.878   6.910  0.2569 -0.1258  0.0041
 1012YOPC   C2B13624   1.166   9.811   7.254 -0.1548  0.3918  0.2456
 1012YOPC   D3B13625   1.157   9.992   7.666  0.3358 -0.0416 -0.0927
 1012YOPC   C4B13626   1.018   9.986   8.055  0.0408  0.3639 -0.4091
 1013YOPC   NC313627   7.150   3.182   6.302  0.1977  0.3215 -0.3071
 1013YOPC   PO413628   6.817   3.353   6.028 -0.1734 -0.0294 -0.2309
 1013YOPC   GL113629   6.734   3.390   6.470 -0.1468 -0.0865 -0.2111
 1013YOPC   GL213630   6.541   3.675   6.368  0.0671  0.1377  0.0847
 1013YOPC   C1A13631   6.614   3.242   6.870  0.3125 -0.1613  0.0512
 1013YOPC   D2A13632   6.628   3.180   7.206  0.0834 -0.4291  0.2342
 1013YOPC   C3A13633   6.540   3.324   7.575 -0.0167  0.2462  0.0197
 1013YOPC   C4A13634   6.365   3.437   8.000  0.0145 -0.3143  0.1619
 1013YOPC   C1B13635   6.454   3.728   6.755  0.0723  0.0290  0.1687
 1013YOPC   C2B13636   6.446   3.647   7.177 -0.2296  0.0349  0.1351
 1013YOPC   D3B13637   6.630   3.812   7.629  0.0255 -0.0884 -0.1964
 1013YOPC   C4B13638   6.849   3.640   8.008 -0.0968  0.0600  0.0017
 1014YOPC   NC313639   6.503  12.170   5.644 -0.3085 -0.0216 -0.0240
 1014YOPC   PO413640   6.353  12.624   5.672  0.3435  0.0676 -0.0026
 1014YOPC   GL113641   6.337  12.706   6.040  0.3400  0.0385  0.1308
 1014YOPC   GL213642   6.125  12.405   6.202  0.1316  0.3079  0.2226
 1014YOPC   C1A13643   6.391  12.745   6.476  0.0706  0.0496 -0.3384
 1014YOPC   D2A13644   6.533  12.950   6.966  0.2114 -0.0605 -0.4857
 1014YOPC   C3A13645   6.424  12.792   7.420  0.0830  0.4761  0.3347
 1014YOPC   C4A13646   6.268  12.674   7.882  0.0208 -0.0865  0.0972
 1014YOPC   C1B13647   6.073  12.384   6.702 -0.0854 -0.0277 -0.2252
 1014YOPC   C2B13648   6.136  12.570   7.025 -0.0589  0.0440  0.1814
 1014YOPC   D3B13649   5.961  12.466   7.458 -0.1390 -0.3386  0.2460
 1014YOPC   C4B13650   5.645  12.091   7.536  0.2883  0.3984 -0.1454
 1015YOPC   NC313651  13.467   8.306   6.142 -0.4281  0.3691 -0.1994
 1015YOPC   PO413652  13.557   8.705   6.183 -0.1753  0.0767 -0.1382
 1015YOPC   GL113653  13.701   8.602   6.521 -0.3935 -0.0746 -0.0651
 1015YOPC   GL213654  13.709   8.863   6.672 -0.0006 -0.0074 -0.0305
 1015YOPC   C1A13655  13.740   8.443   7.036 -0.0834 -0.1184 -0.1994
 1015YOPC   D2A13656  13.823   8.537   7.368  0.1288 -0.2090 -0.1747
 1015YOPC   C3A13657  13.711   8.329   7.657 -0.2952  0.0796  0.4060
 1015YOPC   C4A13658  13.631   8.112   8.069  0.0273 -0.6053 -0.1252
 1015YOPC   C1B13659  13.674   8.940   7.139 -0.0642  0.1260 -0.0241
 1015YOPC   C2B13660  13.772   9.007   7.555 -0.2282 -0.0968 -0.0603
 1015YOPC   D3B13661  13.898   8.689   7.846  0.0567  0.1664 -0.0057
 1015YOPC   C4B13662  13.840   8.596   8.301  0.1836  0.3681  0.1358
 1016YOPC   NC313663   0.006  16.170   5.215 -0.1016 -0.0502  0.1407
 1016YOPC   PO413664   0.302  15.988   5.505  0.3037 -0.0143  0.0426
 1016YOPC   GL113665   0.543  16.148   5.886  0.2427  0.0501 -0.0521
 1016YOPC   GL213666   0.235  16.267   5.995  0.3304  0.3782  0.0130
 1016YOPC   C1A13667   0.666  16.508   6.234  0.4822 -0.1833 -0.2711
 1016YOPC   D2A13668   0.928  16.696   6.473  0.0594 -0.0623 -0.0667
 1016YOPC   C3A13669   0.862  16.709   6.965  0.0844 -0.2046 -0.1938
 1016YOPC   C4A13670   0.858  16.728   7.360 -0.0690 -0.1325 -0.0630
 1016YOPC   C1B13671   0.158  16.417   6.442 -0.0739  0.1357  0.1127
 1016YOPC   C2B13672   0.428  16.587   6.776  0.1879  0.2130  0.1045
 1016YOPC   D3B13673   0.633  16.220   6.861 -0.1371  0.3599  0.0550
 1016YOPC   C4B13674   0.799  16.205   7.141  0.1093 -0.2651 -0.0422
 1017YOPC   NC313675   7.388   3.378   5.928  0.1215 -0.1189  0.0735
 1017YOPC   PO413676   7.660   3.463   6.336  0.0169  0.1731 -0.2204
 1017YOPC   GL113677   7.508   3.636   6.703  0.2235 -0.4094  0.0310
 1017YOPC   GL213678   7.206   3.457   6.705 -0.0492  0.0246 -0.1151
 1017YOPC   C1A13679   7.590   3.624   7.041  0.1211  0.1008 -0.1671
 1017YOPC   D2A13680   7.529   3.527   7.426 -0.0854  0.0969  0.1329
 1017YOPC   C3A13681   7.723   3.692   7.730  0.1843 -0.1010 -0.3222
 1017YOPC   C4A13682   7.852   3.613   8.157  0.1521  0.1088 -0.1374
 1017YOPC   C1B13683   7.059   3.406   7.097  0.0340  0.2300  0.1875
 1017YOPC   C2B13684   6.989   3.385   7.463 -0.0579  0.1644 -0.1292
 1017YOPC   D3B13685   7.222   3.285   7.817  0.1982 -0.2188 -0.3385
 1017YOPC   C4B13686   7.424   3.337   8.229 -0.0128 -0.4675  0.0760
 1018YOPC   NC313687   1.550   8.337   5.237  0.0241  0.1100  0.3568
 1018YOPC   PO413688   1.600   8.444   5.645 -0.1367  0.0018 -0.0579
 1018YOPC   GL113689   1.776   8.342   6.039  0.2251 -0.0278  0.1354
 1018YOPC   GL213690   1.988   8.424   6.223  0.1383  0.1069 -0.0127
 1018YOPC   C1A13691   1.671   8.055   6.349  0.0472  0.1365  0.0623
 1018YOPC   D2A13692   1.280   7.951   6.491  0.2728  0.0918 -0.0891
 1018YOPC   C3A13693   1.209   7.901   7.028 -0.1145  0.1359  0.0623
 1018YOPC   C4A13694   1.003   8.227   7.252 -0.3484 -0.2211  0.1606
 1018YOPC   C1B13695   2.002   8.264   6.592 -0.0586 -0.2970 -0.1468
 1018YOPC   C2B13696   2.013   8.253   7.008 -0.3415  0.2798 -0.4355
 1018YOPC   D3B13697   2.345   8.426   7.287 -0.0127  0.3135  0.2909
 1018YOPC   C4B13698   2.798   8.633   7.251  0.1555 -0.2705 -0.0325
 1019YOPC   NC313699  15.867   3.286   6.226 -0.2047 -0.0261  0.3886
 1019YOPC   PO413700  15.884   2.840   6.116 -0.0253 -0.0349  0.2622
 1019YOPC   GL113701  15.806   2.863   6.615 -0.3102 -0.2153 -0.2154
 1019YOPC   GL213702  16.050   3.121   6.748 -0.2334  0.0288  0.2018
 1019YOPC   C1A13703  15.856   2.726   7.034  0.0084  0.1827 -0.0909
 1019YOPC   D2A13704  16.028   2.738   7.448 -0.0962  0.1954 -0.0983
 1019YOPC   C3A13705  16.105   3.074   7.726 -0.1115  0.2296 -0.0871
 1019YOPC   C4A13706  16.056   3.308   8.099  0.1117 -0.0654 -0.0514
 1019YOPC   C1B13707  16.379   2.985   7.102 -0.1759  0.3707  0.0530
 1019YOPC   C2B13708  16.728   3.072   7.390 -0.0236  0.0799 -0.1629
 1019YOPC   D3B13709  16.574   2.876   7.752 -0.0176 -0.2473  0.0654
 1019YOPC   C4B13710  16.537   3.115   8.098 -0.0820  0.0417 -0.0927
 1020YOPC   NC313711   3.675  17.460   5.784  0.4397 -0.2442  0.1131
 1020YOPC   PO413712   3.834  17.913   5.947  0.1271  0.1345  0.0579
 1020YOPC   GL113713   4.164  18.098   6.243  0.0702  0.4508 -0.3010
 1020YOPC   GL213714   4.313  18.474   6.299 -0.0214 -0.1833  0.0977
 1020YOPC   C1A13715   4.373  18.093   6.621  0.0061 -0.3431  0.1274
 1020YOPC   D2A13716   4.572  18.130   7.021  0.0064  0.0191 -0.0059
 1020YOPC   C3A13717   4.631  18.498   7.148 -0.0386  0.0473  0.1262
 1020YOPC   C4A13718   4.532  18.607   7.528 -0.0430  0.0509 -0.3932
 1020YOPC   C1B13719   4.470  18.581   6.646 -0.1220 -0.0245 -0.0534
 1020YOPC   C2B13720   4.499  18.938   6.552  0.0304  0.0006  0.2699
 1020YOPC   D3B13721   4.699  19.146   6.815  0.1240  0.0281  0.0672
 1020YOPC   C4B13722   4.611  18.998   7.215  0.0806 -0.0415  0.0164
 1021YOPC   NC313723   2.296   2.109   5.415 -0.4216 -0.3234 -0.0151
 1021YOPC   PO413724   2.548   1.997   5.671  0.0231 -0.1894 -0.0131
 1021YOPC   GL113725   2.752   1.670   6.018  0.0653  0.0077 -0.1155
 1021YOPC   GL213726   2.577   1.645   6.384 -0.0491  0.1367  0.0748
 1021YOPC   C1A13727   3.127   1.524   6.302 -0.0451 -0.2047 -0.1172
 1021YOPC   D2A13728   3.344   1.071   6.438  0.0665 -0.0994  0.0442
 1021YOPC   C3A13729   3.190   0.966   6.857 -0.2165 -0.1065 -0.1762
 1021YOPC   C4A13730   3.035   1.009   7.276 -0.2568  0.2642 -0.0180
 1021YOPC   C1B13731   2.751   1.852   6.545  0.0239  0.1854 -0.0537
 1021YOPC   C2B13732   2.734   1.764   6.966 -0.0618 -0.1493  0.1694
 1021YOPC   D3B13733   2.334   1.755   7.242  0.0676 -0.1447 -0.1663
 1021YOPC   C4B13734   2.064   1.854   7.631  0.1316 -0.0863  0.0021
 1022YOPC   NC313735  17.899   9.681   5.704  0.0651  0.2182  0.1970
 1022YOPC   PO413736  18.258   9.700   5.853  0.2434 -0.1784  0.0997
 1022YOPC   GL113737  18.175   9.669   6.272  0.2437 -0.1348 -0.0255
 1022YOPC   GL213738  18.385   9.778   6.367  0.1788  0.0664 -0.0740
 1022YOPC   C1A13739  18.082   9.452   6.676 -0.1070  0.0894  0.0216
 1022YOPC   D2A13740  18.093   9.393   7.105  0.1212  0.2125 -0.3468
 1022YOPC   C3A13741  18.062   9.053   7.454  0.1251 -0.3425 -0.1492
 1022YOPC   C4A13742  18.229   8.785   7.739 -0.1652  0.0040 -0.2774
 1022YOPC   C1B13743  18.554   9.667   6.769  0.2539 -0.2388 -0.0190
 1022YOPC   C2B13744  18.549   9.565   7.134  0.1644  0.0844 -0.0438
 1022YOPC   D3B13745  18.774   9.770   7.410 -0.3579  0.2897 -0.2724
 1022YOPC   C4B13746  18.895   9.565   7.782 -0.2919 -0.0038 -0.1771
 1023YOPC   NC313747   9.341  13.180   5.410 -0.2846  0.3254  0.0278
 1023YOPC   PO413748   9.107  13.041   5.789 -0.0098 -0.1114 -0.3050
 1023YOPC   GL113749   9.231  13.042   6.237  0.1919  0.0595  0.0681
 1023YOPC   GL213750   9.029  12.825   6.317 -0.1036 -0.2332  0.1040
 1023YOPC   C1A13751   9.165  13.181   6.728  0.2433  0.0708  0.3208
 1023YOPC   D2A13752   9.135  13.031   7.111 -0.0089  0.4386 -0.0689
 1023YOPC   C3A13753   8.858  13.092   7.457  0.0888 -0.1149  0.1261
 1023YOPC   C4A13754   8.952  13.021   7.951 -0.0775 -0.2726 -0.1804
 1023YOPC   C1B13755   8.899  12.796   6.649  0.1235 -0.1048 -0.1990
 1023YOPC   C2B13756   8.645  12.755   7.057  0.0241  0.0647 -0.1370
 1023YOPC   D3B13757   8.538  12.709   7.451 -0.2326  0.0468 -0.1912
 1023YOPC   C4B13758   8.452  12.467   7.837  0.0445  0.0078  0.1997
 1024YOPC   NC313759   5.729   1.442   5.483 -0.0308 -0.0552 -0.0423
 1024YOPC   PO413760   5.518   1.302   5.800  0.1344  0.1430 -0.0325
 1024YOPC   GL113761   5.838   1.331   6.185 -0.0600  0.0222  0.0978
 1024YOPC   GL213762   6.163   1.498   6.312 -0.0964  0.3248 -0.1554
 1024YOPC   C1A13763   6.006   1.095   6.621 -0.1515 -0.1256  0.2519
 1024YOPC   D2A13764   6.071   0.906   6.931 -0.3068 -0.1320  0.2349
 1024YOPC   C3A13765   6.268   0.932   7.416 -0.4022 -0.0628  0.0719
 1024YOPC   C4A13766   6.377   1.195   7.738  0.0326  0.1919 -0.2348
 1024YOPC   C1B13767   6.311   1.504   6.773 -0.2479 -0.3896 -0.0455
 1024YOPC   C2B13768   6.349   1.322   7.118 -0.1372 -0.0490 -0.1440
 1024YOPC   D3B13769   6.066   1.504   7.477 -0.1329  0.0467 -0.1066
 1024YOPC   C4B13770   5.825   1.703   7.757  0.2680  0.2406 -0.0642
 1025YOPC   NC313771  12.243  10.596   6.024 -0.2411  0.0055  0.1242
 1025YOPC   PO413772  12.070  10.965   6.180 -0.2518 -0.0217  0.1042
 1025YOPC   GL113773  11.962  10.788   6.534 -0.1633 -0.2487  0.2142
 1025YOPC   GL213774  11.917  10.428   6.684 -0.0651  0.2635  0.0162
 1025YOPC   C1A13775  11.959  10.806   6.976 -0.1897  0.0520  0.2667
 1025YOPC   D2A13776  12.000  10.787   7.359  0.1392 -0.0155  0.1287
 1025YOPC   C3A13777  12.298  10.877   7.586  0.0712 -0.0591  0.0767
 1025YOPC   C4A13778  12.286  11.273   7.768  0.0894 -0.1632  0.0006
 1025YOPC   C1B13779  11.773  10.377   7.138  0.0630 -0.1648 -0.0361
 1025YOPC   C2B13780  11.684  10.378   7.545  0.1214 -0.0881  0.1172
 1025YOPC   D3B13781  11.815  10.699   7.794  0.1387 -0.1314  0.1839
 1025YOPC   C4B13782  12.111  10.849   8.124 -0.1714 -0.1115 -0.1383
 1026YOPC   NC313783   3.826   7.037   5.892  0.2492 -0.2016  0.0781
 1026YOPC   PO413784   3.836   6.613   5.939 -0.0678  0.1001  0.0680
 1026YOPC   GL113785   3.835   6.615   6.353 -0.0204 -0.1558  0.1672
 1026YOPC   GL213786   3.505   6.807   6.223  0.4650 -0.0597 -0.0957
 1026YOPC   C1A13787   3.974   6.564   6.742 -0.3654  0.0300  0.0672
 1026YOPC   D2A13788   4.168   6.384   7.082 -0.2605  0.0884 -0.1425
 1026YOPC   C3A13789   4.047   6.077   7.351  0.1265  0.3202 -0.0933
 1026YOPC   C4A13790   4.106   6.067   7.763  0.0625  0.2734 -0.1763
 1026YOPC   C1B13791   3.419   6.929   6.619  0.2812  0.0048 -0.0215
 1026YOPC   C2B13792   3.531   6.803   7.043 -0.2508  0.0337  0.1196
 1026YOPC   D3B13793   3.395   6.893   7.323  0.1481 -0.1062 -0.1365
 1026YOPC   C4B13794   3.381   7.135   7.676 -0.3128 -0.0549  0.1719
 1027YOPC   NC313795   7.497   5.677   5.971 -0.0415  0.1486 -0.0073
 1027YOPC   PO413796   7.276   5.994   6.311 -0.2605  0.0441  0.1812
 1027YOPC   GL113797   7.214   5.963   6.749  0.1941 -0.1446 -0.1028
 1027YOPC   GL213798   7.016   6.267   6.862  0.0463  0.2346  0.1432
 1027YOPC   C1A13799   7.247   5.921   7.142 -0.0067 -0.0405  0.1381
 1027YOPC   D2A13800   7.474   5.565   7.402 -0.0079  0.2595  0.0132
 1027YOPC   C3A13801   7.580   5.605   7.819  0.1276 -0.2406 -0.0161
 1027YOPC   C4A13802   7.857   5.614   8.058  0.0212  0.0761  0.0096
 1027YOPC   C1B13803   6.930   6.217   7.410  0.2203  0.2052  0.3633
 1027YOPC   C2B13804   6.896   6.417   7.787  0.0644  0.1775  0.1403
 1027YOPC   D3B13805   7.062   6.472   8.156 -0.0637 -0.0227 -0.0961
 1027YOPC   C4B13806   7.057   6.656   8.526  0.0771 -0.1090  0.0233
 1028YOPC   NC313807   2.419  15.179   5.472  0.1762 -0.2626  0.1745
 1028YOPC   PO413808   2.399  15.031   5.898  0.1670 -0.1417 -0.1962
 1028YOPC   GL113809   2.512  14.935   6.278  0.4626  0.0055  0.0032
 1028YOPC   GL213810   2.118  14.701   6.199 -0.2058  0.1095  0.0351
 1028YOPC   C1A13811   2.373  14.661   6.594 -0.1509  0.1236  0.1944
 1028YOPC   D2A13812   2.153  14.669   6.981 -0.1391 -0.1259  0.1975
 1028YOPC   C3A13813   1.717  14.512   6.954 -0.0379 -0.4977 -0.0304
 1028YOPC   C4A13814   1.463  14.713   7.253  0.0166  0.1150  0.1813
 1028YOPC   C1B13815   1.818  14.664   6.435 -0.0769  0.1660 -0.1384
 1028YOPC   C2B13816   1.430  14.566   6.458  0.1194  0.0809  0.1202
 1028YOPC   D3B13817   1.274  14.352   6.852  0.1863 -0.0574 -0.1603
 1028YOPC   C4B13818   0.998  14.418   7.171  0.2522 -0.2480 -0.0286
 1029YOPC   NC313819  14.258  15.952   5.368 -0.2648  0.1223 -0.4530
 1029YOPC   PO413820  13.944  16.060   5.655  0.0278 -0.0734  0.1181
 1029YOPC   GL113821  14.018  16.023   6.145 -0.1178  0.0183  0.3010
 1029YOPC   GL213822  13.832  16.212   6.473 -0.1130 -0.0397  0.4725
 1029YOPC   C1A13823  14.240  15.803   6.466  0.2472  0.0771 -0.0035
 1029YOPC   D2A13824  14.235  15.642   6.912  0.1042  0.2725  0.0565
 1029YOPC   C3A13825  14.404  16.017   7.102  0.1697  0.4620 -0.1114
 1029YOPC   C4A13826  14.500  16.059   7.546  0.0558  0.1576 -0.2355
 1029YOPC   C1B13827  13.449  16.221   6.626  0.0136 -0.1099  0.2407
 1029YOPC   C2B13828  13.238  15.963   6.855 -0.1311  0.4416 -0.0775
 1029YOPC   D3B13829  13.084  16.003   7.221  0.2938 -0.0801 -0.0955
 1029YOPC   C4B13830  12.837  16.262   7.467  0.0549  0.3803  0.1865
 1030YOPC   NC313831  10.935   0.017   6.548  0.2919 -0.0094 -0.1206
 1030YOPC   PO413832  10.629  -0.262   6.447  0.2352  0.2227 -0.0531
 1030YOPC   GL113833  10.739  -0.277   6.880  0.2616  0.0822  0.1516
 1030YOPC   GL213834  11.018  -0.412   6.857 -0.2785 -0.0596  0.0224
 1030YOPC   C1A13835  10.659  -0.588   7.214 -0.1057 -0.0222 -0.0998
 1030YOPC   D2A13836  10.541  -0.714   7.670 -0.2440  0.0763  0.0327
 1030YOPC   C3A13837  10.713  -0.879   8.054  0.2694  0.1074 -0.0741
 1030YOPC   C4A13838  11.124  -0.896   8.180  0.0302  0.1360  0.0398
 1030YOPC   C1B13839  11.105  -0.620   7.134 -0.3205 -0.5376 -0.3224
 1030YOPC   C2B13840  11.230  -0.800   7.514  0.0345  0.2003  0.0318
 1030YOPC   D3B13841  11.403  -0.464   7.874  0.0226 -0.1860  0.0816
 1030YOPC   C4B13842  11.589  -0.360   8.246 -0.0695 -0.2893  0.0353
 1031YOPC   NC313843  16.715   2.980   5.838 -0.1946 -0.0897  0.1208
 1031YOPC   PO413844  17.153   3.076   5.649 -0.2373 -0.1850 -0.4075
 1031YOPC   GL113845  17.085   2.757   6.029  0.0532 -0.0773 -0.1163
 1031YOPC   GL213846  17.075   2.472   6.137 -0.1640  0.1867  0.1151
 1031YOPC   C1A13847  16.916   2.832   6.433 -0.0664 -0.1561  0.0529
 1031YOPC   D2A13848  16.862   2.799   6.855  0.1501  0.2088  0.0109
 1031YOPC   C3A13849  16.793   2.602   7.208 -0.1692 -0.1115 -0.0917
 1031YOPC   C4A13850  16.977   2.624   7.633  0.1083  0.0967  0.0977
 1031YOPC   C1B13851  17.237   2.416   6.502 -0.0392  0.2131  0.3302
 1031YOPC   C2B13852  17.528   2.772   6.808 -0.0638  0.0604  0.1172
 1031YOPC   D3B13853  17.840   2.702   7.213  0.1335  0.0421  0.0645
 1031YOPC   C4B13854  17.809   2.807   7.626  0.0306 -0.0070  0.1550
 1032YOPC   NC313855  13.192  10.660   5.684  0.2043 -0.0087 -0.0641
 1032YOPC   PO413856  13.130  10.221   5.631 -0.3215 -0.0029 -0.0567
 1032YOPC   GL113857  13.033  10.387   6.053  0.0165  0.0596 -0.1338
 1032YOPC   GL213858  13.259  10.708   6.200  0.0189 -0.2226  0.2156
 1032YOPC   C1A13859  12.769  10.416   6.398  0.0129 -0.1815 -0.0856
 1032YOPC   D2A13860  12.530  10.747   6.430 -0.1671 -0.1070  0.1593
 1032YOPC   C3A13861  12.385  10.855   6.728 -0.0809  0.2162  0.2345
 1032YOPC   C4A13862  12.395  11.024   7.110 -0.2173 -0.1554 -0.1406
 1032YOPC   C1B13863  13.019  10.839   6.556  0.1260 -0.1660  0.0919
 1032YOPC   C2B13864  12.779  10.711   6.960 -0.2868  0.2381 -0.0976
 1032YOPC   D3B13865  12.738  10.805   7.313 -0.0176 -0.0153 -0.1110
 1032YOPC   C4B13866  12.691  11.140   7.527 -0.0832  0.0116 -0.3149
 1033YOPC   NC313867   8.754  11.045   5.883 -0.0339  0.0990  0.5411
 1033YOPC   PO413868   8.613  11.445   5.946  0.0761  0.2360  0.1551
 1033YOPC   GL113869   8.652  11.298   6.343 -0.1546  0.1103  0.0958
 1033YOPC   GL213870   8.587  10.929   6.397  0.2361 -0.2333  0.0976
 1033YOPC   C1A13871   8.741  11.456   6.611 -0.2271  0.0139 -0.1625
 1033YOPC   D2A13872   8.690  11.379   6.958  0.0908 -0.1203  0.3043
 1033YOPC   C3A13873   8.806  11.277   7.356 -0.2340 -0.1205 -0.1014
 1033YOPC   C4A13874   8.765  11.493   7.813  0.3508  0.1145  0.1792
 1033YOPC   C1B13875   8.598  10.920   6.780  0.0538 -0.0626 -0.1969
 1033YOPC   C2B13876   8.523  10.735   7.188  0.2372  0.1409 -0.0062
 1033YOPC   D3B13877   8.158  10.661   7.298  0.1924 -0.0669 -0.1226
 1033YOPC   C4B13878   7.894  10.382   7.518  0.3858 -0.0578  0.1553
 1034YOPC   NC313879  16.127  11.132   5.843  0.0740 -0.1236  0.2605
 1034YOPC   PO413880  15.700  11.310   5.815 -0.2857 -0.0783  0.0116
 1034YOPC   GL113881  15.610  11.296   6.099  0.0074 -0.0667 -0.1247
 1034YOPC   GL213882  15.662  11.048   6.302 -0.1378 -0.0293 -0.1849
 1034YOPC   C1A13883  15.748  11.472   6.576 -0.0547 -0.0951 -0.0214
 1034YOPC   D2A13884  15.793  11.701   6.845  0.1219 -0.1626  0.2123
 1034YOPC   C3A13885  15.755  11.634   7.282  0.0977 -0.0669  0.2610
 1034YOPC   C4A13886  15.676  11.518   7.703  0.1401  0.0602  0.4206
 1034YOPC   C1B13887  15.749  10.974   6.753 -0.1114 -0.1798  0.0587
 1034YOPC   C2B13888  15.935  11.237   6.993  0.0696 -0.2822 -0.0978
 1034YOPC   D3B13889  16.095  11.170   7.509 -0.0113 -0.1254 -0.1006
 1034YOPC   C4B13890  16.216  11.018   7.987  0.0025 -0.1096  0.3214
 1035YOPC   NC313891   0.093  10.947   6.072  0.2410 -0.0823 -0.1534
 1035YOPC   PO413892   0.206  10.539   5.888 -0.1319  0.1145  0.3093
 1035YOPC   GL113893   0.296  10.566   6.319  0.0067  0.3050  0.2897
 1035YOPC   GL213894   0.019  10.470   6.555 -0.3108  0.2890 -0.0004
 1035YOPC   C1A13895   0.614  10.723   6.583  0.3228 -0.1792 -0.0700
 1035YOPC   D2A13896   0.577  10.837   6.948  0.1038 -0.3883  0.0726
 1035YOPC   C3A13897   0.573  10.800   7.368  0.0391  0.0306  0.1995
 1035YOPC   C4A13898   0.809  10.838   7.656 -0.2031  0.0894  0.1676
 1035YOPC   C1B13899   0.161  10.580   6.908  0.0652 -0.0439  0.0280
 1035YOPC   C2B13900   0.053  10.750   7.298  0.0749  0.1064  0.1217
 1035YOPC   D3B13901   0.194  10.668   7.647  0.1669 -0.0872 -0.3048
 1035YOPC   C4B13902   0.457  10.586   7.939 -0.1722  0.0197 -0.0359
 1036YOPC   NC313903  17.735   8.718   5.707 -0.0289  0.2684 -0.2644
 1036YOPC   PO413904  17.689   8.280   5.755  0.0022  0.1999  0.0963
 1036YOPC   GL113905  17.808   8.065   6.082  0.1758 -0.3023 -0.2639
 1036YOPC   GL213906  17.604   7.790   6.186 -0.3723 -0.0495  0.0791
 1036YOPC   C1A13907  17.830   8.099   6.559 -0.1479 -0.2082 -0.0214
 1036YOPC   D2A13908  17.798   8.117   7.040  0.2206  0.3056 -0.0009
 1036YOPC   C3A13909  17.817   8.420   7.311  0.1667 -0.2142 -0.2049
 1036YOPC   C4A13910  17.844   8.370   7.788 -0.1571  0.2524  0.0092
 1036YOPC   C1B13911  17.461   7.845   6.722 -0.1797  0.4905  0.2748
 1036YOPC   C2B13912  17.382   7.715   7.131  0.1841  0.1068  0.4089
 1036YOPC   D3B13913  17.556   7.980   7.469  0.0138  0.1105 -0.3036
 1036YOPC   C4B13914  17.383   8.424   7.594 -0.2296  0.3352  0.1992
 1037YOPC   NC313915  16.539  10.344   5.821  0.0793  0.0858 -0.0972
 1037YOPC   PO413916  16.829  10.229   6.105 -0.3031  0.1957 -0.1501
 1037YOPC   GL113917  17.120  10.250   6.406  0.1016 -0.1018 -0.1678
 1037YOPC   GL213918  17.324  10.010   6.575  0.0483  0.1740  0.0187
 1037YOPC   C1A13919  17.145  10.502   6.709 -0.1152 -0.1384  0.0264
 1037YOPC   D2A13920  17.257  10.519   7.125 -0.1192 -0.1158 -0.1578
 1037YOPC   C3A13921  17.285  10.422   7.558 -0.0748 -0.0057  0.1667
 1037YOPC   C4A13922  17.553  10.097   7.783 -0.1453 -0.0591  0.1802
 1037YOPC   C1B13923  17.144  10.038   6.982 -0.1128  0.1207 -0.1755
 1037YOPC   C2B13924  17.272   9.835   7.422  0.0217 -0.0879 -0.1840
 1037YOPC   D3B13925  17.058  10.005   7.859 -0.0692 -0.0364 -0.0177
 1037YOPC   C4B13926  16.870   9.893   8.213 -0.2105  0.0784 -0.2058
 1038YOPC   NC313927  13.371   9.125   6.305 -0.1964 -0.0185 -0.0303
 1038YOPC   PO413928  13.184   9.467   6.195 -0.0725  0.0864 -0.1969
 1038YOPC   GL113929  13.221   9.616   6.620 -0.1210  0.0738 -0.1032
 1038YOPC   GL213930  13.512   9.427   6.742  0.1524  0.0611  0.0614
 1038YOPC   C1A13931  13.035   9.556   6.930 -0.0008 -0.0159 -0.1944
 1038YOPC   D2A13932  12.809   9.624   7.345  0.0132  0.0094 -0.2135
 1038YOPC   C3A13933  13.107   9.549   7.700  0.1753 -0.0499  0.0405
 1038YOPC   C4A13934  13.328   9.125   7.738  0.2068  0.1324 -0.0192
 1038YOPC   C1B13935  13.558   9.416   7.164  0.1523 -0.1805 -0.1696
 1038YOPC   C2B13936  13.629   9.531   7.641  0.0984  0.4166  0.1042
 1038YOPC   D3B13937  13.713   9.307   7.988 -0.2819 -0.2305 -0.3127
 1038YOPC   C4B13938  14.044   9.013   8.323  0.1216  0.2170 -0.0937
 1039YOPC   NC313939  17.787   4.372   5.795 -0.0593  0.0342 -0.0839
 1039YOPC   PO413940  17.695   4.753   6.095  0.0812  0.5015 -0.1419
 1039YOPC   GL113941  17.520   4.765   6.528  0.0237 -0.0339  0.5145
 1039YOPC   GL213942  17.234   4.557   6.615  0.1435 -0.0263  0.0636
 1039YOPC   C1A13943  17.484   4.783   6.993 -0.2471  0.4211  0.0586
 1039YOPC   D2A13944  17.279   4.800   7.384 -0.0115  0.0124  0.0751
 1039YOPC   C3A13945  17.302   4.509   7.745  0.1838 -0.1839 -0.3826
 1039YOPC   C4A13946  17.425   4.283   8.039 -0.1240 -0.1118 -0.1954
 1039YOPC   C1B13947  17.188   4.201   6.646 -0.0505  0.0329  0.0882
 1039YOPC   C2B13948  17.456   3.817   6.727  0.1143 -0.0133  0.3495
 1039YOPC   D3B13949  17.539   3.659   7.104 -0.2108  0.2224  0.1382
 1039YOPC   C4B13950  17.655   3.389   7.471  0.0697 -0.1581  0.3722
 1040YOPC   NC313951  16.514  17.450   5.480 -0.2467 -0.0008  0.3175
 1040YOPC   PO413952  16.222  17.538   5.849  0.0465 -0.2950  0.3308
 1040YOPC   GL113953  16.162  17.429   6.247 -0.0027  0.0537 -0.0096
 1040YOPC   GL213954  15.794  17.331   6.109 -0.2760 -0.1269  0.2826
 1040YOPC   C1A13955  16.198  17.587   6.585 -0.1286 -0.0567  0.0946
 1040YOPC   D2A13956  16.157  17.755   6.933  0.0698 -0.1412 -0.2505
 1040YOPC   C3A13957  15.857  17.603   7.219 -0.0539  0.1681  0.0742
 1040YOPC   C4A13958  15.440  17.748   7.360  0.0063  0.0019 -0.1145
 1040YOPC   C1B13959  15.621  17.408   6.427  0.1296  0.0164  0.2652
 1040YOPC   C2B13960  15.309  17.450   6.683 -0.1019  0.0889  0.3456
 1040YOPC   D3B13961  15.176  17.574   7.003 -0.0166  0.0736 -0.0658
 1040YOPC   C4B13962  14.970  17.869   7.183 -0.0623  0.0843  0.1746
 1041YOPC   NC313963   7.088  16.334   5.203  0.1143  0.1854 -0.2151
 1041YOPC   PO413964   6.710  16.553   5.437 -0.0584 -0.1460 -0.2217
 1041YOPC   GL113965   6.871  16.671   5.934 -0.0336  0.3391  0.2283
 1041YOPC   GL213966   6.995  16.402   6.039  0.0642 -0.1115 -0.2406
 1041YOPC   C1A13967   6.592  16.772   6.110  0.0317  0.2865  0.0565
 1041YOPC   D2A13968   6.364  16.966   6.484  0.0598  0.2064  0.1545
 1041YOPC   C3A13969   6.174  16.730   6.662 -0.1507  0.0727  0.2903
 1041YOPC   C4A13970   5.989  16.400   6.907  0.1420 -0.1879  0.0661
 1041YOPC   C1B13971   7.011  16.697   6.395 -0.3360  0.1288  0.2516
 1041YOPC   C2B13972   7.178  16.830   6.840 -0.3412  0.0340  0.1871
 1041YOPC   D3B13973   6.933  17.069   7.164 -0.0732  0.1117  0.2605
 1041YOPC   C4B13974   6.832  17.247   7.586 -0.1951 -0.1582  0.1460
 1042YOPC   NC313975  13.175   3.410   6.263 -0.0483  0.2323 -0.2128
 1042YOPC   PO413976  13.487   3.568   6.429 -0.1997  0.5160 -0.1955
 1042YOPC   GL113977  13.537   3.327   6.760 -0.0951 -0.2125 -0.4759
 1042YOPC   GL213978  13.356   3.013   6.709 -0.0145  0.0333  0.1682
 1042YOPC   C1A13979  13.406   3.353   7.230  0.1291  0.0630  0.3222
 1042YOPC   D2A13980  13.263   3.365   7.642  0.3676  0.0194 -0.2545
 1042YOPC   C3A13981  12.910   3.400   7.948 -0.0606  0.2772  0.0597
 1042YOPC   C4A13982  12.832   3.667   8.255 -0.2129 -0.1801  0.1325
 1042YOPC   C1B13983  13.605   2.878   7.111 -0.1295 -0.0328 -0.0297
 1042YOPC   C2B13984  13.608   2.966   7.505 -0.0812 -0.0292 -0.4268
 1042YOPC   D3B13985  13.464   2.977   7.870  0.2240 -0.0126  0.0346
 1042YOPC   C4B13986  13.474   2.853   8.284  0.1156 -0.0351  0.0124
 1043YOPC   NC313987  15.702  17.636   5.717 -0.3760  0.2910 -0.4474
 1043YOPC   PO413988  15.630  17.947   5.331  0.0979 -0.3094  0.0830
 1043YOPC   GL113989  15.600  18.222   5.782 -0.1722 -0.0360  0.0445
 1043YOPC   GL213990  15.856  18.479   5.760  0.0989  0.2072 -0.0410
 1043YOPC   C1A13991  15.420  18.307   6.219 -0.1710  0.1681 -0.4504
 1043YOPC   D2A13992  15.302  18.670   6.578  0.1715 -0.0153  0.1476
 1043YOPC   C3A13993  15.377  18.743   7.064  0.0057  0.0883 -0.1828
 1043YOPC   C4A13994  15.231  19.098   7.182  0.1180  0.0246 -0.1804
 1043YOPC   C1B13995  15.896  18.392   6.207  0.1120  0.1769 -0.0301
 1043YOPC   C2B13996  15.776  18.576   6.612 -0.2072  0.0435 -0.2704
 1043YOPC   D3B13997  15.807  18.455   7.052 -0.0173  0.2768  0.0531
 1043YOPC   C4B13998  15.790  18.102   7.281  0.0598  0.0119  0.0574
 1044YOPC   NC313999   8.104   0.329   5.561  0.0689  0.2245 -0.1170
 1044YOPC   PO414000   8.164   0.128   5.992  0.0048  0.1197 -0.0268
 1044YOPC   GL114001   8.255  -0.133   6.365  0.1464  0.0772  0.2942
 1044YOPC   GL214002   8.621  -0.209   6.430  0.0416  0.1836  0.0150
 1044YOPC   C1A14003   8.086  -0.260   6.776 -0.1848 -0.0058 -0.0632
 1044YOPC   D2A14004   8.162  -0.405   7.250  0.1889  0.2339  0.0948
 1044YOPC   C3A14005   7.886  -0.161   7.504  0.1742  0.2147  0.1998
 1044YOPC   C4A14006   7.710  -0.094   7.871 -0.3317 -0.0505 -0.0751
 1044YOPC   C1B14007   8.569  -0.290   6.855 -0.4372 -0.3244 -0.1467
 1044YOPC   C2B14008   8.599  -0.239   7.341  0.1842 -0.0548 -0.0244
 1044YOPC   D3B14009   9.034  -0.026   7.430  0.0310 -0.3260  0.2124
 1044YOPC   C4B14010   9.465   0.204   7.658 -0.3189  0.0200 -0.1400
 1045YOPC   NC314011   6.894  15.227   5.273 -0.0664  0.2656  0.0120
 1045YOPC   PO414012   6.827  14.850   5.387 -0.2069 -0.1057  0.1522
 1045YOPC   GL114013   6.841  14.926   5.798  0.2615  0.3030  0.2136
 1045YOPC   GL214014   7.132  14.869   6.057  0.0160 -0.1495  0.1002
 1045YOPC   C1A14015   6.641  15.078   6.140  0.0107 -0.0800  0.2883
 1045YOPC   D2A14016   6.536  15.069   6.505  0.1915 -0.2886  0.1096
 1045YOPC   C3A14017   6.672  14.981   6.922 -0.0121 -0.2975  0.0132
 1045YOPC   C4A14018   6.469  15.111   7.261  0.4258 -0.0442 -0.0732
 1045YOPC   C1B14019   7.039  14.914   6.460 -0.0967  0.0157  0.0299
 1045YOPC   C2B14020   7.186  14.722   6.805  0.1804 -0.2203  0.1740
 1045YOPC   D3B14021   7.019  14.694   7.172 -0.3229  0.1586 -0.1628
 1045YOPC   C4B14022   7.000  14.750   7.614  0.2766 -0.1673  0.3662
 1046YOPC   NC314023   3.879  13.735   5.795 -0.1382  0.0914  0.0475
 1046YOPC   PO414024   4.298  13.881   5.654 -0.2376  0.1963  0.1351
 1046YOPC   GL114025   4.304  13.611   6.050 -0.1809 -0.1848 -0.0269
 1046YOPC   GL214026   4.535  13.310   6.016 -0.1573  0.0243  0.1661
 1046YOPC   C1A14027   4.095  13.525   6.459  0.1337 -0.0568 -0.2693
 1046YOPC   D2A14028   4.083  13.631   6.868 -0.1322  0.1095 -0.2249
 1046YOPC   C3A14029   4.462  13.580   7.184 -0.0499  0.0915  0.0244
 1046YOPC   C4A14030   4.649  13.416   7.650 -0.1167  0.1763 -0.0898
 1046YOPC   C1B14031   4.912  13.500   6.268  0.0322 -0.0856 -0.2383
 1046YOPC   C2B14032   5.038  13.750   6.586  0.2033  0.0332  0.1718
 1046YOPC   D3B14033   4.968  13.523   6.975  0.2249 -0.1543 -0.1548
 1046YOPC   C4B14034   4.893  13.196   7.192 -0.0536 -0.0551 -0.0617
 1047YOPC   NC314035  17.617  14.353   5.583 -0.1813 -0.1495  0.1433
 1047YOPC   PO414036  17.320  14.419   5.903  0.0662 -0.0379 -0.0109
 1047YOPC   GL114037  16.989  14.180   6.135 -0.1075 -0.0657 -0.2594
 1047YOPC   GL214038  16.968  13.866   6.137 -0.0279 -0.0121  0.1854
 1047YOPC   C1A14039  16.915  14.157   6.563 -0.0567 -0.2655  0.2564
 1047YOPC   D2A14040  16.819  14.151   7.123 -0.1179 -0.0017  0.0815
 1047YOPC   C3A14041  17.004  13.843   7.439  0.0116  0.0902 -0.1967
 1047YOPC   C4A14042  16.856  13.823   7.812 -0.0903 -0.3696  0.3149
 1047YOPC   C1B14043  17.255  13.761   6.449  0.0541 -0.0277  0.1551
 1047YOPC   C2B14044  17.229  13.876   6.885  0.1298  0.0725 -0.0776
 1047YOPC   D3B14045  17.425  13.740   7.255 -0.0785 -0.2960 -0.1281
 1047YOPC   C4B14046  17.416  13.859   7.680 -0.1279  0.3547  0.1045
 1048YOPC   NC314047   3.925   8.327   5.531 -0.0541 -0.0295 -0.4696
 1048YOPC   PO414048   4.273   8.136   5.759  0.0988 -0.1634  0.2164
 1048YOPC   GL114049   4.342   8.282   6.157 -0.0153 -0.0207  0.1218
 1048YOPC   GL214050   4.374   7.995   6.246 -0.0697 -0.0104 -0.2199
 1048YOPC   C1A14051   4.298   8.587   6.586 -0.0103  0.1048 -0.0205
 1048YOPC   D2A14052   4.186   8.778   6.923  0.4263  0.0501 -0.1692
 1048YOPC   C3A14053   3.904   8.765   7.222 -0.0959  0.3022  0.4064
 1048YOPC   C4A14054   3.936   8.640   7.667  0.2994 -0.0264 -0.1746
 1048YOPC   C1B14055   4.272   8.078   6.654  0.2641  0.0774  0.0664
 1048YOPC   C2B14056   4.045   8.246   6.937 -0.2034  0.0705 -0.1079
 1048YOPC   D3B14057   4.119   8.316   7.328 -0.0207  0.0997 -0.0655
 1048YOPC   C4B14058   4.327   8.232   7.679  0.0058 -0.0357 -0.4153
 1049YOPC   NC314059   4.853  10.318   5.286 -0.2266 -0.1325  0.2403
 1049YOPC   PO414060   4.806  10.088   5.605 -0.0472  0.2641 -0.1273
 1049YOPC   GL114061   4.908  10.081   6.009  0.1500  0.0129  0.1787
 1049YOPC   GL214062   4.896   9.759   6.037  0.1230 -0.1029  0.1844
 1049YOPC   C1A14063   4.907  10.133   6.372  0.2115 -0.0050 -0.0346
 1049YOPC   D2A14064   4.770  10.390   6.677  0.1066 -0.2108  0.0859
 1049YOPC   C3A14065   4.551  10.793   6.696 -0.1802 -0.2389 -0.0811
 1049YOPC   C4A14066   4.304  11.093   6.603 -0.1153  0.1784  0.1377
 1049YOPC   C1B14067   5.043   9.659   6.452 -0.3146 -0.0220 -0.2089
 1049YOPC   C2B14068   5.151   9.881   6.848  0.0362 -0.0579  0.3233
 1049YOPC   D3B14069   5.316   9.904   7.245  0.4291 -0.1011  0.4735
 1049YOPC   C4B14070   5.257   9.949   7.746 -0.2997  0.0100  0.0999
 1050YOPC   NC314071   2.997  11.770   5.611 -0.0585  0.3355 -0.0202
 1050YOPC   PO414072   3.357  12.039   5.675  0.0823 -0.4271  0.2314
 1050YOPC   GL114073   3.245  11.888   6.028 -0.0633 -0.0006 -0.0895
 1050YOPC   GL214074   3.105  11.664   6.056 -0.0361  0.1444 -0.0140
 1050YOPC   C1A14075   3.124  11.916   6.520 -0.0201 -0.3224 -0.1712
 1050YOPC   D2A14076   2.778  12.129   6.752 -0.1228 -0.1454 -0.2003
 1050YOPC   C3A14077   2.684  12.462   7.060  0.1135  0.1809 -0.0658
 1050YOPC   C4A14078   2.558  12.594   7.461  0.1964 -0.0153  0.1683
 1050YOPC   C1B14079   3.152  11.454   6.394 -0.0668 -0.0634  0.0468
 1050YOPC   C2B14080   3.094  11.600   6.917  0.1112  0.2121  0.0345
 1050YOPC   D3B14081   3.466  11.508   7.211  0.0829 -0.0430  0.0747
 1050YOPC   C4B14082   3.833  11.436   7.400  0.0383  0.0012 -0.1737
 1051YOPC   NC314083   9.396   3.695   6.475 -0.2534 -0.0839 -0.0603
 1051YOPC   PO414084   9.876   3.548   6.397 -0.1701 -0.1498 -0.0141
 1051YOPC   GL114085   9.898   3.897   6.726  0.0856 -0.1341  0.1565
 1051YOPC   GL214086  10.107   4.084   6.709 -0.0807 -0.0647 -0.0774
 1051YOPC   C1A14087   9.801   3.867   7.203  0.0953  0.0366  0.1515
 1051YOPC   D2A14088   9.651   3.790   7.637  0.0264  0.2910  0.0050
 1051YOPC   C3A14089   9.904   3.851   7.892 -0.1915 -0.0606  0.1257
 1051YOPC   C4A14090  10.234   4.041   8.003  0.2060 -0.1089  0.0432
 1051YOPC   C1B14091  10.170   4.167   7.185 -0.2975 -0.0822 -0.2276
 1051YOPC   C2B14092   9.993   4.199   7.531  0.3313  0.0438  0.0361
 1051YOPC   D3B14093  10.028   4.510   7.922  0.1083  0.0409 -0.2214
 1051YOPC   C4B14094  10.136   4.729   8.301  0.1217 -0.0044  0.0067
 1052YOPC   NC314095   4.540  17.183   5.851 -0.0784  0.2017  0.1766
 1052YOPC   PO414096   4.286  16.732   5.997  0.5509 -0.3530  0.0157
 1052YOPC   GL114097   4.136  16.685   6.465  0.1141 -0.0790  0.1392
 1052YOPC   GL214098   3.872  16.883   6.450  0.0647  0.1506 -0.2188
 1052YOPC   C1A14099   3.888  16.570   6.891 -0.0939 -0.0661 -0.0656
 1052YOPC   D2A14100   3.670  16.549   7.338  0.1471 -0.0784  0.1709
 1052YOPC   C3A14101   3.744  16.252   7.575 -0.4990  0.1567  0.0497
 1052YOPC   C4A14102   3.588  15.887   7.607  0.2826 -0.3251 -0.1167
 1052YOPC   C1B14103   4.035  17.065   6.798  0.1544 -0.0464  0.0904
 1052YOPC   C2B14104   3.998  17.159   7.199  0.1061 -0.0841  0.0192
 1052YOPC   D3B14105   4.251  17.164   7.483  0.1043 -0.3310  0.1476
 1052YOPC   C4B14106   4.411  16.934   7.864  0.0172  0.0781  0.2085
 1053YOPC   NC314107  13.954  17.236   6.097  0.0199  0.2226  0.2284
 1053YOPC   PO414108  13.668  16.895   5.972  0.2309  0.1799 -0.2003
 1053YOPC   GL114109  13.747  16.837   6.397  0.0064 -0.2280 -0.0203
 1053YOPC   GL214110  14.078  16.791   6.403 -0.1011  0.2456 -0.0109
 1053YOPC   C1A14111  13.786  16.667   6.855  0.0829 -0.1031 -0.1109
 1053YOPC   D2A14112  14.204  16.642   7.078  0.0893 -0.0310  0.0640
 1053YOPC   C3A14113  14.233  16.744   7.519  0.0296 -0.1007  0.2603
 1053YOPC   C4A14114  14.192  16.463   7.914 -0.0439 -0.3084 -0.0810
 1053YOPC   C1B14115  14.413  16.933   6.749 -0.0172  0.2518  0.0323
 1053YOPC   C2B14116  14.543  17.036   7.196 -0.1737  0.0129 -0.1592
 1053YOPC   D3B14117  14.895  17.334   7.311 -0.3907 -0.2330  0.1963
 1053YOPC   C4B14118  14.976  17.618   7.644  0.0760 -0.3489 -0.2598
 1054YOPC   NC314119   1.767  17.630   5.893  0.2614 -0.0291  0.2126
 1054YOPC   PO414120   1.438  17.284   5.861 -0.1884  0.0358  0.0225
 1054YOPC   GL114121   1.400  16.891   6.219 -0.0219 -0.0835 -0.1386
 1054YOPC   GL214122   1.788  16.701   6.173  0.2139 -0.0054  0.2633
 1054YOPC   C1A14123   1.524  16.789   6.600  0.3563  0.1575 -0.0500
 1054YOPC   D2A14124   1.422  16.864   7.052  0.0816  0.1094 -0.2188
 1054YOPC   C3A14125   1.414  16.734   7.480 -0.1048 -0.5111  0.0954
 1054YOPC   C4A14126   1.515  16.999   7.852 -0.2457 -0.0549 -0.0824
 1054YOPC   C1B14127   1.973  16.995   6.399  0.0673 -0.0724 -0.2673
 1054YOPC   C2B14128   2.116  17.226   6.629 -0.0228  0.0106  0.0581
 1054YOPC   D3B14129   2.228  17.241   7.097  0.0682  0.0817  0.4466
 1054YOPC   C4B14130   2.429  17.212   7.381  0.0121 -0.1965 -0.3393
 1055YOPC   NC314131  17.795  12.720   5.969 -0.1049 -0.2097 -0.2379
 1055YOPC   PO414132  17.853  13.142   5.937  0.1018  0.4184 -0.1623
 1055YOPC   GL114133  17.742  13.188   6.308 -0.1569  0.1798 -0.2478
 1055YOPC   GL214134  17.749  13.474   6.326  0.1721 -0.3231  0.2301
 1055YOPC   C1A14135  17.682  12.981   6.808  0.0776 -0.0112  0.1406
 1055YOPC   D2A14136  17.779  12.867   7.275 -0.0702 -0.2794  0.3460
 1055YOPC   C3A14137  17.657  12.980   7.581 -0.0708  0.1939 -0.0550
 1055YOPC   C4A14138  17.380  13.011   7.876  0.1098  0.1169 -0.1350
 1055YOPC   C1B14139  17.660  13.479   6.772  0.0669 -0.1550 -0.0495
 1055YOPC   C2B14140  17.980  13.324   7.026  0.3042  0.0113 -0.0449
 1055YOPC   D3B14141  17.781  13.433   7.426 -0.1149 -0.0257 -0.0485
 1055YOPC   C4B14142  17.677  13.412   7.886 -0.0333 -0.2516  0.1470
 1056YOPC   NC314143   2.245   1.693   5.982 -0.3059 -0.0088 -0.2162
 1056YOPC   PO414144   1.834   1.852   6.053  0.1101  0.2773 -0.0726
 1056YOPC   GL114145   2.143   1.953   6.363  0.2188 -0.0212 -0.0759
 1056YOPC   GL214146   2.378   2.179   6.364  0.0924 -0.1865 -0.3538
 1056YOPC   C1A14147   2.260   1.922   6.767  0.0661  0.1753 -0.3297
 1056YOPC   D2A14148   2.339   2.245   7.178 -0.2824 -0.0380  0.3253
 1056YOPC   C3A14149   2.265   2.284   7.646  0.0460 -0.1271  0.1826
 1056YOPC   C4A14150   2.051   2.027   8.057  0.0952  0.1449  0.2206
 1056YOPC   C1B14151   2.642   2.265   6.756  0.2453  0.1725  0.2151
 1056YOPC   C2B14152   2.900   2.232   7.132 -0.0525 -0.1739  0.0359
 1056YOPC   D3B14153   2.713   2.036   7.431 -0.0118 -0.2726 -0.1489
 1056YOPC   C4B14154   2.611   1.805   7.831 -0.1067 -0.0417  0.2809
 1057YOPC   NC314155   5.797  13.433   5.723  0.1839 -0.0838  0.0784
 1057YOPC   PO414156   6.044  13.071   5.655 -0.2121 -0.3046 -0.1382
 1057YOPC   GL114157   6.235  13.199   5.983  0.2759  0.0799  0.0114
 1057YOPC   GL214158   6.114  13.438   6.081 -0.2666 -0.2108  0.0641
 1057YOPC   C1A14159   6.387  13.232   6.389 -0.0519 -0.2261  0.2664
 1057YOPC   D2A14160   6.404  13.513   6.728  0.1182  0.1555  0.1369
 1057YOPC   C3A14161   6.468  13.484   7.153  0.0890  0.1719 -0.0122
 1057YOPC   C4A14162   6.651  13.250   7.483  0.2068 -0.3188  0.1062
 1057YOPC   C1B14163   5.969  13.558   6.509  0.1554  0.0960  0.1575
 1057YOPC   C2B14164   5.889  13.721   6.846 -0.0640 -0.1938 -0.0636
 1057YOPC   D3B14165   6.018  13.643   7.181  0.3491  0.2259  0.0867
 1057YOPC   C4B14166   6.022  13.727   7.581  0.2177  0.0729  0.0248
 1058YOPC   NC314167   6.990  13.958   5.428  0.0783  0.0288 -0.4905
 1058YOPC   PO414168   7.354  14.114   5.583 -0.0676 -0.1400 -0.0599
 1058YOPC   GL114169   7.352  14.128   6.005 -0.0893  0.4397  0.1271
 1058YOPC   GL214170   7.658  14.062   6.002  0.1250  0.0418 -0.1001
 1058YOPC   C1A14171   7.375  14.076   6.486  0.0868 -0.0357 -0.1560
 1058YOPC   D2A14172   7.629  14.383   6.825  0.4063  0.0883 -0.0699
 1058YOPC   C3A14173   7.415  14.417   7.186 -0.1977  0.1821 -0.2416
 1058YOPC   C4A14174   7.516  14.582   7.679 -0.1216  0.2528 -0.0724
 1058YOPC   C1B14175   7.858  13.914   6.353  0.2208  0.0524 -0.0519
 1058YOPC   C2B14176   7.918  13.950   6.834 -0.2260  0.1302 -0.0120
 1058YOPC   D3B14177   7.729  13.932   7.261  0.1099  0.5083  0.3174
 1058YOPC   C4B14178   7.643  14.016   7.606  0.2484  0.2234  0.1209
 1059YOPC   NC314179  10.798  14.084   5.873  0.1053 -0.2907  0.0973
 1059YOPC   PO414180  10.524  13.771   5.871  0.4788  0.2571  0.0321
 1059YOPC   GL114181  10.594  13.842   6.255  0.2240  0.0545 -0.2299
 1059YOPC   GL214182  10.540  14.162   6.257 -0.2892 -0.0340 -0.0309
 1059YOPC   C1A14183  10.381  13.864   6.634  0.2050 -0.0196 -0.1378
 1059YOPC   D2A14184  10.422  13.864   7.068 -0.2882  0.1570 -0.4029
 1059YOPC   C3A14185  10.121  14.102   7.332 -0.0360  0.2643  0.2417
 1059YOPC   C4A14186   9.935  14.253   7.706  0.0275 -0.1989 -0.2123
 1059YOPC   C1B14187  10.838  14.165   6.530 -0.2737 -0.0609 -0.2108
 1059YOPC   C2B14188  10.877  14.030   6.892  0.2837  0.0907  0.0297
 1059YOPC   D3B14189  11.240  13.918   7.003  0.0800 -0.1221 -0.0148
 1059YOPC   C4B14190  11.674  14.144   6.989  0.0843 -0.1751  0.0004
 1060YOPC   NC314191   2.367  16.568   5.313  0.1703 -0.0685  0.1486
 1060YOPC   PO414192   2.780  16.770   5.494  0.1483  0.0451 -0.2820
 1060YOPC   GL114193   2.816  16.669   5.953 -0.0213 -0.1477 -0.3006
 1060YOPC   GL214194   2.786  16.858   6.121  0.2226  0.0983  0.0356
 1060YOPC   C1A14195   2.946  16.532   6.469  0.3099 -0.0172  0.0765
 1060YOPC   D2A14196   2.961  16.499   6.903  0.2062 -0.2219 -0.0292
 1060YOPC   C3A14197   3.186  16.686   7.232  0.0278  0.0639  0.1732
 1060YOPC   C4A14198   3.344  16.762   7.730  0.1056  0.0150 -0.0224
 1060YOPC   C1B14199   2.959  17.033   6.429 -0.0826 -0.3242  0.0476
 1060YOPC   C2B14200   3.095  17.149   6.822  0.1182 -0.1672  0.0287
 1060YOPC   D3B14201   2.977  17.289   7.286  0.0089 -0.2222 -0.2250
 1060YOPC   C4B14202   2.827  17.412   7.657  0.0166  0.2301 -0.2562
 1061YOPC   NC314203   4.685   4.439   6.154  0.0449  0.2062  0.1936
 1061YOPC   PO414204   4.266   4.265   6.238 -0.4953  0.0989 -0.0869
 1061YOPC   GL114205   4.418   4.464   6.614 -0.0701  0.2034 -0.0967
 1061YOPC   GL214206   4.366   4.717   6.588 -0.0338  0.1124 -0.1049
 1061YOPC   C1A14207   4.406   4.524   7.088 -0.1380  0.2923  0.1244
 1061YOPC   D2A14208   4.575   4.583   7.508  0.0037 -0.4187 -0.2589
 1061YOPC   C3A14209   4.429   4.834   7.899  0.0511  0.0759  0.0054
 1061YOPC   C4A14210   4.038   4.780   8.134  0.0495 -0.0404 -0.0719
 1061YOPC   C1B14211   4.095   4.953   6.936  0.0011 -0.1835 -0.1625
 1061YOPC   C2B14212   4.168   4.943   7.307  0.0188  0.1810  0.0592
 1061YOPC   D3B14213   4.073   4.689   7.614  0.0393 -0.0650  0.0189
 1061YOPC   C4B14214   4.238   4.403   7.801 -0.3233 -0.0243 -0.1322
 1062YOPC   NC314215  16.146  16.547   5.986  0.2427 -0.0704 -0.1780
 1062YOPC   PO414216  16.556  16.405   5.930 -0.0267  0.0232 -0.0832
 1062YOPC   GL114217  16.461  16.111   6.319 -0.3349 -0.0256 -0.0092
 1062YOPC   GL214218  16.547  15.796   6.241 -0.2205  0.0207  0.0473
 1062YOPC   C1A14219  16.662  15.969   6.727  0.2841 -0.0224 -0.1877
 1062YOPC   D2A14220  16.695  15.855   7.220 -0.1642 -0.0023  0.0617
 1062YOPC   C3A14221  16.983  16.019   7.583  0.0480 -0.0295 -0.0483
 1062YOPC   C4A14222  16.934  16.012   8.083  0.3801  0.0074 -0.0403
 1062YOPC   C1B14223  16.528  15.473   6.410  0.2669 -0.1793  0.1440
 1062YOPC   C2B14224  16.503  15.056   6.734  0.1240  0.0763  0.0271
 1062YOPC   D3B14225  16.408  14.929   7.154  0.0026  0.0601 -0.1462
 1062YOPC   C4B14226  16.394  14.799   7.559 -0.1104  0.0487  0.4373
 1063YOPC   NC314227  15.498   4.784   6.272  0.0365 -0.2157  0.0721
 1063YOPC   PO414228  15.862   4.637   6.485 -0.1754  0.0314  0.0567
 1063YOPC   GL114229  15.864   4.775   6.805  0.1727 -0.1043  0.1053
 1063YOPC   GL214230  15.794   4.501   6.987  0.1110  0.0710  0.0745
 1063YOPC   C1A14231  15.624   4.974   7.145 -0.2425 -0.2189 -0.2690
 1063YOPC   D2A14232  15.809   5.360   7.167 -0.0348 -0.0137  0.1057
 1063YOPC   C3A14233  15.692   5.685   6.981 -0.1036  0.2393 -0.2154
 1063YOPC   C4A14234  15.540   5.746   6.658 -0.1453  0.2391 -0.0653
 1063YOPC   C1B14235  15.854   4.575   7.393  0.0028  0.2254  0.0315
 1063YOPC   C2B14236  15.832   4.749   7.808  0.1117 -0.1296 -0.2287
 1063YOPC   D3B14237  15.556   4.728   8.179  0.1109  0.0765 -0.1101
 1063YOPC   C4B14238  15.704   4.704   8.613 -0.0436 -0.0288  0.2103
 1064YOPC   NC314239  17.267  12.872   5.527 -0.1553  0.0552 -0.1659
 1064YOPC   PO414240  17.028  13.229   5.800  0.0796  0.1226  0.0869
 1064YOPC   GL114241  16.965  13.239   6.225 -0.2122 -0.1305 -0.0987
 1064YOPC   GL214242  16.737  13.473   6.247 -0.1700  0.2831  0.0212
 1064YOPC   C1A14243  17.247  13.226   6.666  0.3114 -0.0659 -0.0396
 1064YOPC   D2A14244  17.369  13.207   7.159 -0.1940 -0.2754 -0.1435
 1064YOPC   C3A14245  17.232  13.365   7.542 -0.3033  0.1916 -0.2154
 1064YOPC   C4A14246  17.057  13.485   8.051  0.1497  0.3271 -0.1830
 1064YOPC   C1B14247  16.836  13.669   6.695 -0.2400 -0.1087 -0.1828
 1064YOPC   C2B14248  16.917  13.507   7.113 -0.2733  0.1973 -0.1836
 1064YOPC   D3B14249  16.628  13.421   7.501  0.0111  0.0003 -0.0574
 1064YOPC   C4B14250  16.183  13.595   7.667  0.0254  0.0255  0.0335
 1065YOPC   NC314251   5.297   2.699   5.768  0.2483  0.1655 -0.0539
 1065YOPC   PO414252   4.934   2.523   5.944 -0.1808  0.2482 -0.1574
 1065YOPC   GL114253   5.106   2.424   6.411 -0.1785 -0.2230  0.0283
 1065YOPC   GL214254   5.398   2.416   6.437 -0.2162  0.0224 -0.0724
 1065YOPC   C1A14255   4.936   2.458   6.779 -0.1655  0.1696 -0.1125
 1065YOPC   D2A14256   4.694   2.579   7.140  0.0016 -0.0786 -0.0699
 1065YOPC   C3A14257   4.456   2.193   7.362  0.1684 -0.1115  0.0612
 1065YOPC   C4A14258   4.531   1.935   7.566  0.2555 -0.2195  0.0223
 1065YOPC   C1B14259   5.368   2.773   6.749 -0.1074  0.1761  0.0794
 1065YOPC   C2B14260   5.111   2.846   7.098 -0.1763 -0.0646 -0.0273
 1065YOPC   D3B14261   5.282   2.853   7.501 -0.1095  0.2143  0.0048
 1065YOPC   C4B14262   5.234   2.703   7.869  0.0064 -0.0884  0.0441
 1066YOPC   NC314263   0.882  11.339   5.680  0.0100  0.0671 -0.0628
 1066YOPC   PO414264   1.160  11.382   5.987  0.3708  0.1970  0.0599
 1066YOPC   GL114265   0.948  11.241   6.405  0.1705  0.1145  0.1188
 1066YOPC   GL214266   1.045  10.939   6.396  0.0494 -0.2672 -0.1283
 1066YOPC   C1A14267   0.614  11.292   6.715  0.1765  0.1735  0.2832
 1066YOPC   D2A14268   0.228  11.152   7.033 -0.1809  0.2186 -0.0519
 1066YOPC   C3A14269   0.157  11.207   7.405  0.1465  0.0875  0.2740
 1066YOPC   C4A14270  -0.155  11.031   7.767  0.0219 -0.1582  0.0750
 1066YOPC   C1B14271   1.089  10.962   6.803 -0.0617  0.2031  0.0678
 1066YOPC   C2B14272   1.076  11.002   7.273  0.0718 -0.1188 -0.1766
 1066YOPC   D3B14273   1.099  11.397   7.518 -0.1374  0.1148 -0.2408
 1066YOPC   C4B14274   1.191  11.587   7.932  0.4001  0.0334  0.1585
 1067YOPC   NC314275  12.724   5.668   6.085 -0.1019  0.1299 -0.0133
 1067YOPC   PO414276  12.386   5.311   6.167 -0.0171  0.2849  0.1320
 1067YOPC   GL114277  12.091   5.330   6.523 -0.0661 -0.1275  0.4041
 1067YOPC   GL214278  11.960   5.598   6.510  0.0982 -0.1149 -0.2251
 1067YOPC   C1A14279  12.156   5.468   6.946  0.2411 -0.0267 -0.0278
 1067YOPC   D2A14280  12.224   5.284   7.358  0.0448  0.0630  0.0330
 1067YOPC   C3A14281  12.254   5.453   7.793  0.0119  0.0952  0.3073
 1067YOPC   C4A14282  12.347   5.374   8.270  0.0063 -0.0308 -0.1920
 1067YOPC   C1B14283  12.009   5.903   6.793 -0.0843  0.2125 -0.1491
 1067YOPC   C2B14284  11.891   6.231   6.943 -0.0481  0.3174  0.1112
 1067YOPC   D3B14285  11.806   6.285   7.345 -0.1102 -0.2135  0.1656
 1067YOPC   C4B14286  11.866   6.581   7.612 -0.1985  0.2505  0.2062
 1068YOPC   NC314287  16.078  18.093   5.132 -0.0179  0.2498  0.1332
 1068YOPC   PO414288  16.205  18.490   5.410 -0.2655 -0.1434 -0.2243
 1068YOPC   GL114289  16.287  18.723   5.751  0.0103  0.1344  0.0582
 1068YOPC   GL214290  16.485  18.668   5.973 -0.1695 -0.4536 -0.0388
 1068YOPC   C1A14291  16.023  18.956   6.004  0.2444 -0.2192 -0.1700
 1068YOPC   D2A14292  15.853  19.071   6.343  0.0599  0.0635  0.0763
 1068YOPC   C3A14293  15.671  19.520   6.449 -0.2362  0.1084 -0.0470
 1068YOPC   C4A14294  15.773  19.960   6.366  0.3159  0.1889  0.1163
 1068YOPC   C1B14295  16.344  18.619   6.393 -0.1763 -0.0002  0.0173
 1068YOPC   C2B14296  16.227  18.858   6.721 -0.0654  0.2914 -0.4182
 1068YOPC   D3B14297  16.370  18.642   7.132  0.0001  0.0891 -0.0769
 1068YOPC   C4B14298  16.618  18.845   7.491  0.1392 -0.1636 -0.2172
 1069YOPC   NC314299  12.766  14.031   5.808 -0.4177  0.0051  0.0964
 1069YOPC   PO414300  12.372  14.091   5.749 -0.1922  0.2989  0.0342
 1069YOPC   GL114301  12.404  14.065   6.155  0.0564 -0.1576 -0.0112
 1069YOPC   GL214302  12.149  14.301   6.232 -0.2558  0.1429 -0.0549
 1069YOPC   C1A14303  12.440  13.985   6.610 -0.0282 -0.0940  0.0675
 1069YOPC   D2A14304  12.678  13.918   6.948  0.1857 -0.0041  0.0115
 1069YOPC   C3A14305  12.530  13.975   7.260  0.2385  0.1263 -0.0188
 1069YOPC   C4A14306  12.085  14.115   7.478 -0.4571  0.0204  0.0607
 1069YOPC   C1B14307  12.241  14.437   6.602  0.0449  0.0464  0.3114
 1069YOPC   C2B14308  12.144  14.275   6.938 -0.2869  0.2438 -0.3057
 1069YOPC   D3B14309  12.110  13.870   7.014  0.0350 -0.1492  0.3469
 1069YOPC   C4B14310  12.378  13.492   7.025  0.3871 -0.1760  0.0130
 1070YOPC   NC314311  15.623   9.447   5.833  0.0825 -0.0957  0.1690
 1070YOPC   PO414312  15.445   9.281   6.166  0.0358  0.2506  0.2100
 1070YOPC   GL114313  15.583   8.975   6.379 -0.2953 -0.0282 -0.1307
 1070YOPC   GL214314  15.609   8.719   6.285 -0.1154  0.0370 -0.2097
 1070YOPC   C1A14315  15.602   8.837   6.840 -0.1162  0.1716 -0.1100
 1070YOPC   D2A14316  15.726   9.057   7.295  0.0295  0.0011 -0.1088
 1070YOPC   C3A14317  16.018   9.054   7.589 -0.1974 -0.1509 -0.2926
 1070YOPC   C4A14318  16.438   8.980   7.848  0.0633 -0.0477  0.0297
 1070YOPC   C1B14319  15.934   8.615   6.579 -0.1330  0.1585 -0.2330
 1070YOPC   C2B14320  16.230   8.492   6.829 -0.0886  0.1952 -0.0097
 1070YOPC   D3B14321  16.383   8.289   7.184  0.0458 -0.1814  0.2944
 1070YOPC   C4B14322  16.244   8.224   7.519 -0.2093 -0.2075  0.1463
 1071YOPC   NC314323  10.342   7.294   5.749 -0.3299  0.5297  0.3239
 1071YOPC   PO414324  10.044   7.078   6.032 -0.1391 -0.0523 -0.0811
 1071YOPC   GL114325   9.932   7.041   6.442  0.0740  0.2388 -0.1224
 1071YOPC   GL214326   9.930   6.692   6.511 -0.1160 -0.0545  0.6337
 1071YOPC   C1A14327   9.623   6.948   6.841  0.0406 -0.0332  0.1696
 1071YOPC   D2A14328   9.506   6.862   7.270  0.0535  0.0996 -0.1155
 1071YOPC   C3A14329   9.187   6.557   7.406  0.2640 -0.3623  0.1562
 1071YOPC   C4A14330   8.765   6.388   7.476 -0.2087  0.2149 -0.0471
 1071YOPC   C1B14331   9.948   6.575   6.984 -0.1131 -0.0757  0.2116
 1071YOPC   C2B14332  10.094   6.449   7.376 -0.1781  0.1953 -0.2370
 1071YOPC   D3B14333   9.837   6.585   7.646  0.0900  0.3479 -0.0015
 1071YOPC   C4B14334   9.464   6.708   7.786 -0.0735 -0.1122  0.0036
 1072YOPC   NC314335   6.066   2.744   6.242 -0.1270 -0.0108  0.1369
 1072YOPC   PO414336   5.903   2.374   6.247 -0.0438 -0.2643 -0.0237
 1072YOPC   GL114337   5.945   2.401   6.643 -0.1854  0.1223  0.1949
 1072YOPC   GL214338   5.884   2.647   6.756  0.1764 -0.2247 -0.0729
 1072YOPC   C1A14339   6.107   2.261   7.069  0.0506  0.1799 -0.1579
 1072YOPC   D2A14340   6.248   2.248   7.438 -0.0210 -0.0265  0.1668
 1072YOPC   C3A14341   6.170   2.179   7.854  0.1154  0.1554  0.0189
 1072YOPC   C4A14342   6.135   2.108   8.273 -0.0691  0.0620 -0.0421
 1072YOPC   C1B14343   5.673   2.643   7.171 -0.3260 -0.2112  0.1175
 1072YOPC   C2B14344   5.763   2.803   7.595  0.0583  0.0935 -0.1121
 1072YOPC   D3B14345   5.922   2.618   7.903  0.0735 -0.0319 -0.1844
 1072YOPC   C4B14346   5.905   2.527   8.241 -0.0575 -0.4309 -0.2666
 1073YOPC   NC314347  11.061  13.287   5.696 -0.0448 -0.0135 -0.1571
 1073YOPC   PO414348  10.976  13.732   5.614  0.2068  0.1499  0.0358
 1073YOPC   GL114349  11.024  13.672   6.068 -0.2464  0.0433  0.1478
 1073YOPC   GL214350  10.985  13.421   6.183 -0.3607 -0.0928 -0.0668
 1073YOPC   C1A14351  11.230  13.860   6.419  0.0462 -0.3277 -0.0622
 1073YOPC   D2A14352  11.596  13.915   6.575 -0.0620 -0.2051 -0.1849
 1073YOPC   C3A14353  11.974  13.823   6.536  0.2381  0.0630 -0.2209
 1073YOPC   C4A14354  12.269  13.471   6.561  0.1934  0.0312  0.2849
 1073YOPC   C1B14355  10.836  13.558   6.603  0.3688  0.0347  0.0303
 1073YOPC   C2B14356  10.747  13.536   6.990  0.0972  0.1225  0.1045
 1073YOPC   D3B14357  10.869  13.697   7.396  0.0903 -0.1201  0.0083
 1073YOPC   C4B14358  11.246  13.604   7.438 -0.0864  0.2351 -0.1575
 1074YOPC   NC314359  16.460   4.043   5.940 -0.0634  0.0857  0.1974
 1074YOPC   PO414360  16.719   3.620   5.952 -0.0748  0.0945  0.0412
 1074YOPC   GL114361  16.530   3.605   6.366 -0.0584 -0.2742  0.0930
 1074YOPC   GL214362  16.380   3.264   6.279 -0.1395 -0.1289  0.0640
 1074YOPC   C1A14363  16.329   3.571   6.828 -0.1068  0.0623 -0.0778
 1074YOPC   D2A14364  16.161   3.347   7.299  0.2602  0.0771  0.2763
 1074YOPC   C3A14365  16.074   3.635   7.626  0.0975  0.2726  0.2788
 1074YOPC   C4A14366  15.855   3.799   7.914 -0.0826 -0.0199  0.0941
 1074YOPC   C1B14367  16.654   3.235   6.630 -0.2759  0.1966  0.0551
 1074YOPC   C2B14368  16.697   3.361   7.019  0.1781  0.2576 -0.1155
 1074YOPC   D3B14369  16.567   3.608   7.291  0.0101  0.0608 -0.3969
 1074YOPC   C4B14370  16.541   3.429   7.720  0.0391 -0.0022 -0.2208
 1075YOPC   NC314371   9.807   5.302   6.133 -0.1226  0.0177  0.0589
 1075YOPC   PO414372   9.658   4.942   6.365 -0.1929  0.1432  0.0101
 1075YOPC   GL114373   9.407   4.730   6.701 -0.1231 -0.1548  0.0044
 1075YOPC   GL214374   9.095   4.525   6.735 -0.2870  0.0255  0.1124
 1075YOPC   C1A14375   9.445   4.883   7.146  0.0902  0.4944 -0.0439
 1075YOPC   D2A14376   9.542   4.975   7.440  0.1646 -0.2217  0.2991
 1075YOPC   C3A14377   9.625   4.758   7.756 -0.1703 -0.0665 -0.3810
 1075YOPC   C4A14378   9.657   4.818   8.186 -0.1181  0.4676  0.0395
 1075YOPC   C1B14379   9.126   4.469   7.195  0.2416 -0.0882  0.2110
 1075YOPC   C2B14380   9.037   4.497   7.569 -0.0519 -0.0754 -0.0667
 1075YOPC   D3B14381   9.072   4.382   7.974  0.3844  0.0661  0.0191
 1075YOPC   C4B14382   8.849   4.530   8.329  0.5773  0.2374  0.0051
 1076YOPC   NC314383  15.275  11.206   5.620  0.0131 -0.3678  0.0059
 1076YOPC   PO414384  15.069  11.594   5.784  0.0989  0.2511 -0.1125
 1076YOPC   GL114385  15.127  11.293   6.166  0.0855  0.2558 -0.0024
 1076YOPC   GL214386  15.210  10.966   6.056 -0.1291  0.2249 -0.1630
 1076YOPC   C1A14387  15.238  11.096   6.552  0.4137  0.1822 -0.2641
 1076YOPC   D2A14388  15.340  11.037   7.034  0.0512 -0.1600  0.0656
 1076YOPC   C3A14389  15.562  11.084   7.339  0.2282  0.1432 -0.2352
 1076YOPC   C4A14390  15.984  10.821   7.237  0.0896  0.2918  0.0882
 1076YOPC   C1B14391  15.409  10.592   6.473  0.1980 -0.0417  0.2055
 1076YOPC   C2B14392  15.522  10.255   6.594 -0.1892  0.0807  0.0227
 1076YOPC   D3B14393  15.566  10.031   7.016  0.1488 -0.1261  0.0217
 1076YOPC   C4B14394  15.483   9.918   7.389 -0.4120  0.0902  0.3171
 1077YOPC   NC314395   7.737   7.314   6.248 -0.0736  0.0666 -0.0037
 1077YOPC   PO414396   8.220   7.392   6.338  0.0219 -0.0092  0.1545
 1077YOPC   GL114397   8.084   7.162   6.661  0.1021  0.3574  0.1206
 1077YOPC   GL214398   7.846   6.904   6.688  0.1914 -0.2580 -0.4144
 1077YOPC   C1A14399   7.957   7.223   7.161  0.0327  0.1107 -0.0715
 1077YOPC   D2A14400   7.881   7.035   7.605  0.2278 -0.1184  0.0713
 1077YOPC   C3A14401   7.654   7.192   7.969 -0.4561 -0.3067 -0.0773
 1077YOPC   C4A14402   7.665   7.081   8.487  0.0710  0.3885  0.2426
 1077YOPC   C1B14403   7.610   6.842   7.098 -0.1207 -0.3689 -0.0407
 1077YOPC   C2B14404   7.373   6.976   7.500 -0.0917  0.0102 -0.0336
 1077YOPC   D3B14405   7.176   7.218   7.748 -0.1228 -0.1851  0.1078
 1077YOPC   C4B14406   6.905   7.385   8.103 -0.0989 -0.0789  0.1071
 1078YOPC   NC314407   8.948   9.427   5.857 -0.3557 -0.0892 -0.0057
 1078YOPC   PO414408   8.517   9.527   5.923 -0.2136 -0.3107  0.0150
 1078YOPC   GL114409   8.777   9.664   6.259  0.0426 -0.1788  0.1229
 1078YOPC   GL214410   8.738   9.997   6.116 -0.3033  0.0322 -0.1608
 1078YOPC   C1A14411   8.692   9.698   6.623  0.2652  0.1241  0.0795
 1078YOPC   D2A14412   8.846   9.805   7.099 -0.0416  0.1926  0.2511
 1078YOPC   C3A14413   9.173   9.883   7.460  0.1985  0.0215 -0.0489
 1078YOPC   C4A14414   9.260  10.011   7.910 -0.1570 -0.2926  0.0427
 1078YOPC   C1B14415   8.908  10.195   6.505  0.2859  0.1713 -0.3455
 1078YOPC   C2B14416   8.967  10.574   6.627 -0.2631  0.1557  0.2668
 1078YOPC   D3B14417   9.371  10.703   6.699 -0.2988 -0.0672  0.4549
 1078YOPC   C4B14418   9.616  11.022   6.761  0.2425  0.2687 -0.0312
 1079YOPC   NC314419  15.225   4.036   6.500  0.2910  0.2647  0.0166
 1079YOPC   PO414420  15.680   4.095   6.696 -0.0284  0.1494 -0.0821
 1079YOPC   GL114421  15.339   4.063   6.982  0.0719 -0.0988  0.1142
 1079YOPC   GL214422  15.516   4.171   7.296  0.0139  0.0033 -0.1608
 1079YOPC   C1A14423  15.058   4.001   7.405  0.2035 -0.1699 -0.0982
 1079YOPC   D2A14424  14.910   4.238   7.714 -0.0214  0.1577  0.1366
 1079YOPC   C3A14425  14.873   3.985   8.072  0.0219 -0.1975 -0.1157
 1079YOPC   C4A14426  14.603   4.072   8.370  0.1245 -0.2835  0.2342
 1079YOPC   C1B14427  15.500   4.065   7.707  0.1787  0.3750  0.0049
 1079YOPC   C2B14428  15.393   3.800   8.028  0.2171 -0.1026  0.0226
 1079YOPC   D3B14429  15.316   3.825   8.365 -0.0570  0.0399  0.3192
 1079YOPC   C4B14430  15.478   3.765   8.823  0.1148 -0.0972 -0.0069
 1080YOPC   NC314431   8.949  15.004   5.955 -0.2577  0.0422 -0.0043
 1080YOPC   PO414432   8.984  14.501   5.957  0.1451 -0.1230 -0.0145
 1080YOPC   GL114433   9.129  14.487   6.356  0.0021  0.0257  0.1638
 1080YOPC   GL214434   9.476  14.415   6.151  0.0590  0.1092 -0.0798
 1080YOPC   C1A14435   9.304  14.297   6.696  0.1527 -0.1008 -0.0527
 1080YOPC   D2A14436   9.246  14.008   7.069  0.0660 -0.0739  0.0009
 1080YOPC   C3A14437   9.074  13.808   7.438 -0.0259 -0.2196 -0.0285
 1080YOPC   C4A14438   9.068  13.490   7.800  0.0933 -0.2711  0.1414
 1080YOPC   C1B14439   9.563  14.662   6.456  0.1065 -0.0079  0.3722
 1080YOPC   C2B14440   9.639  14.673   6.839  0.0888 -0.0824  0.0763
 1080YOPC   D3B14441   9.378  14.476   7.168 -0.0799 -0.1865  0.1048
 1080YOPC   C4B14442   9.365  14.316   7.565 -0.0191 -0.2176  0.0106
 1081YOPC   NC314443  10.392   1.243   6.283 -0.0215 -0.3056 -0.2287
 1081YOPC   PO414444   9.967   1.044   6.336 -0.1401 -0.0417 -0.1889
 1081YOPC   GL114445  10.134   0.972   6.710 -0.2712 -0.2511 -0.1152
 1081YOPC   GL214446  10.136   0.651   6.765  0.1126  0.1042 -0.0890
 1081YOPC   C1A14447  10.188   1.075   7.222  0.0571 -0.1783  0.0324
 1081YOPC   D2A14448  10.122   0.931   7.545  0.0358  0.2014 -0.3430
 1081YOPC   C3A14449  10.462   0.749   7.895  0.2343 -0.2142 -0.3065
 1081YOPC   C4A14450  10.846   0.634   8.255 -0.2172  0.0236 -0.0561
 1081YOPC   C1B14451  10.232   0.368   7.195 -0.3698  0.1557 -0.0339
 1081YOPC   C2B14452  10.179   0.412   7.658  0.0717 -0.1907  0.0321
 1081YOPC   D3B14453  10.178   0.166   7.965 -0.2307  0.0156  0.4003
 1081YOPC   C4B14454  10.162   0.100   8.407 -0.0811 -0.0338 -0.0492
 1082YOPC   NC314455  14.154   7.059   5.960 -0.0512  0.0378  0.2659
 1082YOPC   PO414456  14.275   6.782   6.241  0.0587 -0.2777  0.3731
 1082YOPC   GL114457  14.435   6.530   6.574  0.2072 -0.0925 -0.0883
 1082YOPC   GL214458  14.699   6.348   6.551  0.0339 -0.1101  0.2564
 1082YOPC   C1A14459  14.452   6.381   6.995 -0.2515 -0.3367 -0.0599
 1082YOPC   D2A14460  14.611   6.178   7.314 -0.0755 -0.2326  0.2734
 1082YOPC   C3A14461  14.863   6.345   7.597  0.3335  0.1497  0.0347
 1082YOPC   C4A14462  14.647   6.364   7.992  0.0320 -0.0279  0.2008
 1082YOPC   C1B14463  14.948   6.422   6.952  0.1604  0.0539 -0.0333
 1082YOPC   C2B14464  15.052   6.688   7.289 -0.0024  0.0370  0.5018
 1082YOPC   D3B14465  14.842   6.843   7.675  0.0542  0.1711  0.0553
 1082YOPC   C4B14466  14.803   6.868   8.176  0.1160  0.1126  0.1427
 1083YOPC   NC314467  11.062  14.873   6.003  0.1250  0.0069 -0.0312
 1083YOPC   PO414468  10.687  14.578   5.999  0.1428 -0.2278  0.1722
 1083YOPC   GL114469  10.742  14.617   6.441  0.0345  0.0438  0.3585
 1083YOPC   GL214470  11.122  14.523   6.404 -0.2190 -0.1164 -0.1519
 1083YOPC   C1A14471  10.971  14.632   6.929  0.0518  0.2369 -0.1581
 1083YOPC   D2A14472  10.921  14.637   7.388 -0.0376 -0.0431 -0.0732
 1083YOPC   C3A14473  11.197  14.543   7.755  0.1002 -0.1071 -0.0365
 1083YOPC   C4A14474  11.443  14.197   8.003 -0.1811 -0.0476  0.2313
 1083YOPC   C1B14475  11.275  14.329   6.752 -0.0730 -0.0014  0.0130
 1083YOPC   C2B14476  11.336  14.401   7.199  0.0964  0.0636 -0.1627
 1083YOPC   D3B14477  11.249  14.131   7.505  0.0829  0.1904 -0.1816
 1083YOPC   C4B14478  11.068  13.933   7.789  0.1401 -0.1153 -0.1853
 1084YOPC   NC314479  10.156   4.372   5.852  0.2439  0.1489 -0.2468
 1084YOPC   PO414480  10.163   4.388   6.298  0.3093  0.2185 -0.0122
 1084YOPC   GL114481  10.454   4.638   6.627 -0.1102 -0.1004 -0.1601
 1084YOPC   GL214482  10.838   4.645   6.532 -0.1170  0.2730 -0.2960
 1084YOPC   C1A14483  10.620   4.797   7.140 -0.3851  0.1202  0.3669
 1084YOPC   D2A14484  10.567   5.010   7.556 -0.2675  0.0864 -0.1684
 1084YOPC   C3A14485  10.902   5.083   7.883  0.1332 -0.0023 -0.2001
 1084YOPC   C4A14486  11.044   5.083   8.337  0.5299  0.2687 -0.0250
 1084YOPC   C1B14487  11.130   4.717   6.864  0.2323 -0.1651 -0.0731
 1084YOPC   C2B14488  11.180   4.841   7.305  0.1693  0.0444  0.0189
 1084YOPC   D3B14489  10.898   4.589   7.588 -0.1843 -0.0955  0.3888
 1084YOPC   C4B14490  10.942   4.221   7.780 -0.2531  0.0369  0.1287
 1085YOPC   NC314491   3.257   6.668   5.785  0.0822 -0.3356 -0.1241
 1085YOPC   PO414492   2.953   6.294   5.665 -0.0065  0.0883  0.1326
 1085YOPC   GL114493   3.047   6.218   6.085  0.0322 -0.0003  0.3356
 1085YOPC   GL214494   3.338   6.338   6.162 -0.4838 -0.1100 -0.0808
 1085YOPC   C1A14495   2.967   6.206   6.510  0.0198  0.0147 -0.1279
 1085YOPC   D2A14496   2.616   6.266   6.730  0.0641  0.2045 -0.1967
 1085YOPC   C3A14497   2.664   6.284   7.091 -0.0698  0.1501 -0.0740
 1085YOPC   C4A14498   2.877   6.410   7.388  0.0924  0.0417 -0.0200
 1085YOPC   C1B14499   3.442   6.373   6.636  0.3064  0.2670  0.0389
 1085YOPC   C2B14500   3.612   6.303   7.051  0.1374 -0.1011 -0.1340
 1085YOPC   D3B14501   3.381   6.432   7.440  0.2396  0.3799  0.0127
 1085YOPC   C4B14502   3.141   6.620   7.787 -0.1080 -0.2621 -0.0425
 1086YOPC   NC314503  17.212  17.029   5.508  0.1450 -0.1277  0.1585
 1086YOPC   PO414504  17.165  17.162   5.886  0.2240 -0.0365  0.4076
 1086YOPC   GL114505  17.129  17.080   6.286  0.3199  0.2217 -0.2138
 1086YOPC   GL214506  16.911  16.895   6.367  0.0022  0.0138  0.2355
 1086YOPC   C1A14507  17.068  17.323   6.697  0.1379 -0.0526 -0.1523
 1086YOPC   D2A14508  17.265  17.393   7.163 -0.1135 -0.2093 -0.3249
 1086YOPC   C3A14509  17.412  17.680   7.442 -0.0800 -0.0102 -0.1773
 1086YOPC   C4A14510  17.520  17.803   7.763  0.2960 -0.0301  0.0841
 1086YOPC   C1B14511  16.867  16.857   6.784  0.2738  0.0557 -0.2352
 1086YOPC   C2B14512  16.806  16.806   7.175 -0.2252 -0.0964  0.0919
 1086YOPC   D3B14513  16.908  17.165   7.432 -0.0604 -0.1219 -0.2989
 1086YOPC   C4B14514  16.922  17.576   7.550 -0.3081  0.0270 -0.0259
 1087YOPC   NC314515  12.138   0.080   5.764  0.0832  0.2119  0.0824
 1087YOPC   PO414516  12.169   0.381   6.174  0.1289 -0.0164  0.1496
 1087YOPC   GL114517  12.286   0.359   6.596 -0.0724  0.1396  0.2877
 1087YOPC   GL214518  12.431   0.568   6.616  0.0314 -0.2494 -0.2050
 1087YOPC   C1A14519  12.499   0.121   6.807  0.0679 -0.0397 -0.0613
 1087YOPC   D2A14520  12.657  -0.073   7.094  0.2783 -0.1460 -0.0256
 1087YOPC   C3A14521  12.642  -0.026   7.574  0.2373 -0.0336 -0.1617
 1087YOPC   C4A14522  12.419  -0.303   7.917  0.0173 -0.1557 -0.0590
 1087YOPC   C1B14523  12.268   0.674   7.061 -0.1410  0.0501 -0.0999
 1087YOPC   C2B14524  12.163   0.667   7.490 -0.2594 -0.0182  0.1327
 1087YOPC   D3B14525  11.850   0.905   7.628  0.2722  0.0042  0.1599
 1087YOPC   C4B14526  11.664   1.026   7.979  0.0447  0.0462  0.0184
 1088YOPC   NC314527  10.281  18.072   6.118 -0.2533 -0.2008  0.0902
 1088YOPC   PO414528  10.342  18.407   6.363 -0.0401 -0.3837 -0.1930
 1088YOPC   GL114529  10.516  18.402   6.722  0.1640 -0.0216  0.0884
 1088YOPC   GL214530  10.360  18.080   6.811 -0.2211  0.0105  0.0585
 1088YOPC   C1A14531  10.679  18.335   7.116  0.1753 -0.1521 -0.3448
 1088YOPC   D2A14532  10.613  18.246   7.575  0.2909  0.0616  0.0627
 1088YOPC   C3A14533  10.686  18.272   7.998  0.1300  0.1675 -0.0774
 1088YOPC   C4A14534  10.713  18.227   8.522  0.2266  0.1824  0.1032
 1088YOPC   C1B14535  10.405  17.941   7.257 -0.0306 -0.1919  0.2592
 1088YOPC   C2B14536  10.335  17.848   7.674  0.2363  0.0901  0.2086
 1088YOPC   D3B14537  10.454  17.796   8.118 -0.0558 -0.0110  0.1068
 1088YOPC   C4B14538  10.434  17.782   8.515  0.0846  0.0401  0.0266
 1089YOPC   NC314539   8.872   5.224   5.792  0.0378  0.1660 -0.0882
 1089YOPC   PO414540   8.793   5.396   6.202  0.0373  0.0969  0.2578
 1089YOPC   GL114541   8.573   5.526   6.562 -0.0815 -0.0459  0.0008
 1089YOPC   GL214542   8.803   5.542   6.733 -0.0878  0.0221  0.2748
 1089YOPC   C1A14543   8.300   5.345   6.895  0.3054 -0.0093 -0.0316
 1089YOPC   D2A14544   8.405   5.052   7.140  0.1036  0.1394  0.0517
 1089YOPC   C3A14545   8.271   5.079   7.562  0.1200  0.2867 -0.0670
 1089YOPC   C4A14546   8.048   4.766   7.897  0.1472 -0.3089 -0.1598
 1089YOPC   C1B14547   8.767   5.366   7.117 -0.2873  0.3143 -0.1450
 1089YOPC   C2B14548   8.687   5.397   7.479  0.1532  0.3322  0.0067
 1089YOPC   D3B14549   8.689   5.091   7.848 -0.1400 -0.0777 -0.1602
 1089YOPC   C4B14550   8.562   4.894   8.220 -0.1855 -0.2169  0.3867
 1090YOPC   NC314551   3.183  14.038   5.934  0.3009 -0.0235 -0.1689
 1090YOPC   PO414552   2.772  14.119   6.069  0.0378  0.0221  0.0788
 1090YOPC   GL114553   2.769  13.963   6.506  0.1139  0.1048  0.0965
 1090YOPC   GL214554   3.053  13.902   6.463  0.3215 -0.2936  0.0694
 1090YOPC   C1A14555   2.834  14.029   6.985  0.0755  0.3268  0.0159
 1090YOPC   D2A14556   2.613  13.903   7.347  0.0904  0.0060 -0.1829
 1090YOPC   C3A14557   2.304  14.060   7.615 -0.2335  0.1568  0.0485
 1090YOPC   C4A14558   2.181  14.324   7.916 -0.1429 -0.0361  0.2650
 1090YOPC   C1B14559   3.243  13.765   6.826 -0.0146  0.2456  0.0071
 1090YOPC   C2B14560   3.175  13.715   7.341  0.0256  0.0047 -0.1250
 1090YOPC   D3B14561   3.051  14.067   7.551  0.3087  0.0043 -0.0824
 1090YOPC   C4B14562   3.204  14.251   7.829  0.0081 -0.2121  0.0717
 1091YOPC   NC314563   7.018   7.679   5.897  0.3466  0.0679  0.1130
 1091YOPC   PO414564   6.703   7.806   5.749  0.0614 -0.2515  0.0068
 1091YOPC   GL114565   6.476   7.931   6.118  0.2171  0.0713  0.1793
 1091YOPC   GL214566   6.164   8.065   6.220  0.2211  0.3115 -0.0060
 1091YOPC   C1A14567   6.580   8.007   6.438  0.1974 -0.0811  0.1200
 1091YOPC   D2A14568   6.489   7.965   6.912 -0.0471  0.0749 -0.0881
 1091YOPC   C3A14569   6.208   8.004   7.172 -0.1634 -0.3511  0.1184
 1091YOPC   C4A14570   5.814   7.829   7.324 -0.1445 -0.0836  0.0107
 1091YOPC   C1B14571   5.897   8.038   6.506  0.2261 -0.3969 -0.3707
 1091YOPC   C2B14572   5.762   8.183   6.967 -0.0690  0.0360  0.0247
 1091YOPC   D3B14573   5.732   8.351   7.341  0.1568 -0.4553  0.2780
 1091YOPC   C4B14574   5.670   8.619   7.727  0.0323  0.0840 -0.0765
 1092YOPC   NC314575   6.762   4.632   6.001  0.1531  0.1314  0.1680
 1092YOPC   PO414576   6.529   4.301   5.915  0.1330 -0.0288 -0.2828
 1092YOPC   GL114577   6.504   4.200   6.309 -0.1450 -0.1550  0.2447
 1092YOPC   GL214578   6.802   4.134   6.334 -0.0693  0.0684 -0.2596
 1092YOPC   C1A14579   6.478   4.283   6.732  0.0601  0.2760 -0.0947
 1092YOPC   D2A14580   6.272   4.149   7.155 -0.3441 -0.1528 -0.2475
 1092YOPC   C3A14581   5.979   4.246   7.392 -0.1341 -0.1632  0.2484
 1092YOPC   C4A14582   5.894   4.230   7.923 -0.2006 -0.2811  0.2051
 1092YOPC   C1B14583   6.899   3.885   6.664  0.0772 -0.3168 -0.0540
 1092YOPC   C2B14584   6.869   3.988   7.151  0.1132 -0.2020  0.2504
 1092YOPC   D3B14585   6.993   4.267   7.567  0.1834 -0.0703 -0.0152
 1092YOPC   C4B14586   6.844   4.551   7.870  0.1103  0.2038  0.0194
 1093YOPC   NC314587  18.087  10.168   6.147 -0.1930  0.0464 -0.2113
 1093YOPC   PO414588  17.628  10.002   6.114 -0.0595 -0.0708 -0.2761
 1093YOPC   GL114589  17.798   9.843   6.518 -0.2553 -0.1835  0.0220
 1093YOPC   GL214590  18.040   9.982   6.695  0.0548 -0.2905  0.0738
 1093YOPC   C1A14591  17.546   9.756   6.943  0.1273 -0.0632 -0.1922
 1093YOPC   D2A14592  17.774   9.743   7.397 -0.2036  0.0278 -0.0102
 1093YOPC   C3A14593  17.545   9.603   7.777 -0.1606 -0.1389 -0.0513
 1093YOPC   C4A14594  17.385   9.451   8.205  0.1588 -0.0174  0.2614
 1093YOPC   C1B14595  18.123   9.911   7.103  0.0045 -0.2941  0.0460
 1093YOPC   C2B14596  18.257   9.790   7.477 -0.0249  0.2873  0.0558
 1093YOPC   D3B14597  18.453   9.346   7.589 -0.4512  0.1952 -0.1363
 1093YOPC   C4B14598  18.544   9.168   7.943  0.0590  0.0102 -0.1561
 1094YOPC   NC314599  12.125  15.938   5.921  0.1780  0.0570  0.2361
 1094YOPC   PO414600  11.690  15.940   5.916 -0.1084 -0.1305 -0.2495
 1094YOPC   GL114601  11.786  15.831   6.273 -0.2296  0.1334  0.1481
 1094YOPC   GL214602  11.529  15.867   6.510 -0.2286 -0.0843 -0.0735
 1094YOPC   C1A14603  12.022  15.859   6.615  0.0838  0.0371  0.0460
 1094YOPC   D2A14604  12.173  15.791   6.961  0.2071 -0.1575 -0.0693
 1094YOPC   C3A14605  12.083  15.695   7.332 -0.2812 -0.0173  0.0040
 1094YOPC   C4A14606  12.211  15.650   7.760  0.0712  0.0256 -0.1147
 1094YOPC   C1B14607  11.701  15.714   6.978 -0.0424 -0.0405 -0.0617
 1094YOPC   C2B14608  11.554  15.343   7.068  0.0791  0.1168 -0.1170
 1094YOPC   D3B14609  11.619  15.345   7.446 -0.2526 -0.3334  0.0665
 1094YOPC   C4B14610  11.533  15.199   7.884 -0.1767  0.1905  0.1680
 1095YOPC   NC314611   0.622  13.562   5.716  0.4239 -0.0850 -0.0852
 1095YOPC   PO414612   0.231  13.599   5.797  0.4599  0.1995 -0.1020
 1095YOPC   GL114613   0.141  13.348   6.248  0.1942 -0.0645 -0.0610
 1095YOPC   GL214614   0.075  13.344   6.563  0.1369 -0.2946 -0.1365
 1095YOPC   C1A14615   0.503  13.017   6.406  0.1612  0.1511 -0.2525
 1095YOPC   D2A14616   0.865  12.949   6.718 -0.0706 -0.1604 -0.2889
 1095YOPC   C3A14617   1.098  12.777   7.055 -0.0550 -0.0617  0.0739
 1095YOPC   C4A14618   1.074  12.477   7.426  0.0151  0.0129  0.1298
 1095YOPC   C1B14619   0.183  12.985   6.845 -0.1689  0.1539  0.1101
 1095YOPC   C2B14620   0.373  12.979   7.104 -0.2007 -0.1306  0.2732
 1095YOPC   D3B14621   0.327  13.327   7.375 -0.4388 -0.0872 -0.0280
 1095YOPC   C4B14622   0.518  13.667   7.673  0.0849  0.2571 -0.0835
 1096YOPC   NC314623  17.656   7.171   5.921 -0.0612  0.2473 -0.0217
 1096YOPC   PO414624  17.501   6.809   6.045  0.0354  0.1592 -0.0207
 1096YOPC   GL114625  17.461   6.972   6.419  0.2845  0.0133 -0.0398
 1096YOPC   GL214626  17.636   7.341   6.432  0.2651 -0.1143  0.0358
 1096YOPC   C1A14627  17.467   6.852   6.745  0.0651 -0.1468  0.5133
 1096YOPC   D2A14628  17.621   6.566   7.127  0.1397  0.2481 -0.0484
 1096YOPC   C3A14629  17.691   6.819   7.395 -0.0553  0.1752  0.5839
 1096YOPC   C4A14630  17.505   7.026   7.725  0.3390 -0.2283 -0.0117
 1096YOPC   C1B14631  17.513   7.320   6.794 -0.4424 -0.3111 -0.2815
 1096YOPC   C2B14632  17.529   7.283   7.288  0.1131  0.3618 -0.0247
 1096YOPC   D3B14633  17.492   7.522   7.586  0.1182  0.1069 -0.1446
 1096YOPC   C4B14634  17.438   7.626   7.916  0.0029 -0.1595  0.3322
 1097YOPC   NC314635  10.738  17.248   6.207 -0.1443 -0.1753  0.2280
 1097YOPC   PO414636  10.258  17.074   6.184  0.3162 -0.1678  0.3147
 1097YOPC   GL114637  10.030  17.043   6.537 -0.1792  0.1166 -0.3966
 1097YOPC   GL214638   9.800  17.242   6.537 -0.0632  0.0334 -0.0467
 1097YOPC   C1A14639   9.576  16.863   6.726 -0.2101  0.3709 -0.1707
 1097YOPC   D2A14640   9.199  16.835   6.641 -0.1041 -0.2253  0.1430
 1097YOPC   C3A14641   8.956  16.930   6.918  0.1049  0.0819  0.1805
 1097YOPC   C4A14642   8.897  16.882   7.345 -0.0370  0.0116  0.3850
 1097YOPC   C1B14643   9.934  17.144   6.995 -0.2581 -0.0710  0.2914
 1097YOPC   C2B14644   9.850  17.123   7.428  0.1673 -0.0712  0.1908
 1097YOPC   D3B14645  10.079  17.233   7.788 -0.1774  0.1753 -0.0453
 1097YOPC   C4B14646  10.178  17.388   8.130  0.0287 -0.1615 -0.0131
 1098YOPC   NC314647   1.529  16.804   5.636 -0.3636  0.0432 -0.0013
 1098YOPC   PO414648   1.415  16.462   5.886  0.0105 -0.2278  0.0661
 1098YOPC   GL114649   1.348  16.353   6.280 -0.0207 -0.0318 -0.3787
 1098YOPC   GL214650   1.615  16.215   6.298  0.0654 -0.2713  0.2633
 1098YOPC   C1A14651   1.211  16.336   6.711  0.0993  0.0397 -0.0196
 1098YOPC   D2A14652   1.234  16.410   7.141  0.1224 -0.1756  0.0015
 1098YOPC   C3A14653   1.299  16.178   7.516 -0.2703 -0.0839 -0.0986
 1098YOPC   C4A14654   1.309  16.014   7.903 -0.0953 -0.0799 -0.1498
 1098YOPC   C1B14655   1.679  16.350   6.800 -0.0981  0.1520 -0.2944
 1098YOPC   C2B14656   1.708  16.402   7.171  0.2280 -0.1030 -0.0856
 1098YOPC   D3B14657   1.834  16.235   7.519 -0.0515  0.0056 -0.1117
 1098YOPC   C4B14658   2.164  16.020   7.833 -0.1753 -0.0796  0.1164
 1099YOPC   NC314659   1.541   2.411   5.160  0.2741  0.0018 -0.1138
 1099YOPC   PO414660   1.300   2.425   5.619 -0.2336 -0.1610  0.0876
 1099YOPC   GL114661   1.426   2.294   6.056 -0.0797 -0.1408 -0.0166
 1099YOPC   GL214662   1.711   2.350   6.330 -0.0510  0.1193  0.1517
 1099YOPC   C1A14663   1.236   2.336   6.489 -0.1307 -0.3014  0.1606
 1099YOPC   D2A14664   1.168   2.538   6.818 -0.1698 -0.2858 -0.2073
 1099YOPC   C3A14665   0.903   2.270   7.101  0.2114 -0.2686 -0.0003
 1099YOPC   C4A14666   0.614   2.032   6.976 -0.0248  0.1035  0.0219
 1099YOPC   C1B14667   1.680   2.516   6.757  0.1835 -0.0967 -0.1305
 1099YOPC   C2B14668   1.471   2.540   7.260 -0.0148 -0.2144 -0.0260
 1099YOPC   D3B14669   1.142   2.798   7.353 -0.0263  0.1369 -0.1096
 1099YOPC   C4B14670   0.895   2.810   7.602  0.1372  0.1827 -0.0069
 1100YOPC   NC314671  10.185   2.499   6.450 -0.1382 -0.1526 -0.2113
 1100YOPC   PO414672  10.399   2.921   6.434  0.1059  0.1219 -0.0670
 1100YOPC   GL114673  10.259   3.067   6.854  0.2020 -0.1305  0.0318
 1100YOPC   GL214674  10.006   2.926   6.899  0.0465  0.0486 -0.0253
 1100YOPC   C1A14675  10.221   2.975   7.331  0.0256 -0.0044  0.1722
 1100YOPC   D2A14676  10.144   2.956   7.763 -0.1758 -0.1048 -0.0841
 1100YOPC   C3A14677  10.384   3.007   8.131  0.3367 -0.1966  0.2233
 1100YOPC   C4A14678  10.565   3.174   8.455 -0.5355  0.0720  0.0849
 1100YOPC   C1B14679   9.569   3.016   7.099 -0.0902 -0.0317  0.0135
 1100YOPC   C2B14680   9.162   3.180   6.944  0.1969 -0.1270  0.0327
 1100YOPC   D3B14681   8.881   3.193   7.237  0.1737 -0.0032 -0.1366
 1100YOPC   C4B14682   8.692   3.614   7.335 -0.0313  0.1135 -0.0242
 1101YOPC   NC314683   3.077  11.285   5.708 -0.0301  0.2421 -0.1394
 1101YOPC   PO414684   3.207  10.941   5.779  0.0312 -0.2682 -0.0704
 1101YOPC   GL114685   3.085  10.845   6.122 -0.2800 -0.4283  0.3650
 1101YOPC   GL214686   2.911  10.602   6.167 -0.0255 -0.2027 -0.0117
 1101YOPC   C1A14687   3.100  10.949   6.501 -0.0200  0.0040 -0.1052
 1101YOPC   D2A14688   2.951  11.125   6.902 -0.1600 -0.0589 -0.2149
 1101YOPC   C3A14689   3.103  11.126   7.245  0.3003  0.3160 -0.1871
 1101YOPC   C4A14690   2.995  10.679   7.416 -0.0046  0.0197 -0.0082
 1101YOPC   C1B14691   2.924  10.406   6.613  0.1601  0.2651  0.1834
 1101YOPC   C2B14692   3.250  10.203   6.829  0.1833  0.0081  0.1732
 1101YOPC   D3B14693   3.051  10.258   7.146 -0.1043  0.0626 -0.2187
 1101YOPC   C4B14694   3.075   9.973   7.382  0.1694 -0.0362  0.0410
 1102YOPC   NC314695  14.695  16.866   5.781  0.1951 -0.2402 -0.0928
 1102YOPC   PO414696  15.082  16.885   5.675  0.1449 -0.1661  0.2932
 1102YOPC   GL114697  15.076  16.727   6.047 -0.3571  0.1906 -0.0445
 1102YOPC   GL214698  15.159  16.459   6.185  0.2313 -0.1009  0.1564
 1102YOPC   C1A14699  14.789  16.681   6.459  0.1281 -0.0707  0.0402
 1102YOPC   D2A14700  14.791  16.640   6.919 -0.1515  0.1437  0.1925
 1102YOPC   C3A14701  14.640  16.485   7.296  0.2988 -0.2799  0.1092
 1102YOPC   C4A14702  14.693  16.468   7.676  0.3163  0.1272  0.1505
 1102YOPC   C1B14703  15.210  16.447   6.637  0.0051  0.0974  0.0185
 1102YOPC   C2B14704  15.213  16.505   7.155  0.2245 -0.1756 -0.0700
 1102YOPC   D3B14705  14.999  16.802   7.323 -0.0270 -0.1605 -0.0887
 1102YOPC   C4B14706  14.812  16.959   7.651 -0.1255 -0.0976 -0.1024
 1103YOPC   NC314707   1.431  15.957   5.925  0.3528 -0.1517  0.4847
 1103YOPC   PO414708   1.034  16.069   5.854 -0.3438 -0.3368  0.0775
 1103YOPC   GL114709   0.949  15.728   6.173 -0.0440 -0.4310 -0.1945
 1103YOPC   GL214710   0.888  15.994   6.410 -0.2343 -0.2460 -0.1429
 1103YOPC   C1A14711   0.729  15.506   6.534  0.0291 -0.3358  0.0898
 1103YOPC   D2A14712   0.876  15.414   6.922  0.0151 -0.0412 -0.0124
 1103YOPC   C3A14713   0.575  15.749   7.150 -0.1084 -0.0222  0.1018
 1103YOPC   C4A14714   0.379  15.991   7.406 -0.3006  0.2067 -0.0076
 1103YOPC   C1B14715   0.987  15.901   6.742 -0.2127  0.0848 -0.1411
 1103YOPC   C2B14716   1.074  15.772   7.128 -0.2024  0.0132 -0.0487
 1103YOPC   D3B14717   0.864  15.875   7.547  0.1494  0.1178  0.0922
 1103YOPC   C4B14718   0.749  16.287   7.646 -0.1764 -0.0473 -0.0473
 1104YOPC   NC314719   3.203   3.745   5.290  0.2001  0.1245  0.0207
 1104YOPC   PO414720   3.150   3.608   5.699 -0.0534  0.0389 -0.0337
 1104YOPC   GL114721   3.252   3.818   6.028 -0.1834  0.3105  0.0114
 1104YOPC   GL214722   3.659   3.877   6.115 -0.1836 -0.1883  0.0378
 1104YOPC   C1A14723   3.259   3.768   6.418 -0.2801 -0.3026 -0.2606
 1104YOPC   D2A14724   3.155   3.800   6.741 -0.0500  0.0579  0.0550
 1104YOPC   C3A14725   3.056   3.719   7.129 -0.1218 -0.0811 -0.0742
 1104YOPC   C4A14726   3.079   3.589   7.514  0.0504 -0.1501 -0.3467
 1104YOPC   C1B14727   3.810   3.913   6.577 -0.2823 -0.1795  0.3388
 1104YOPC   C2B14728   3.745   3.957   7.020  0.3319  0.2263 -0.2049
 1104YOPC   D3B14729   3.507   3.788   7.351  0.0386 -0.2497  0.0790
 1104YOPC   C4B14730   3.500   3.876   7.872  0.0243 -0.0509 -0.1229
 1105YOPC   NC314731   1.970  13.927   5.595  0.0667 -0.1550  0.0744
 1105YOPC   PO414732   2.149  14.313   5.857  0.0148  0.1551 -0.0488
 1105YOPC   GL114733   1.793  14.268   6.183  0.0037  0.0382 -0.1583
 1105YOPC   GL214734   1.380  14.255   6.079 -0.1551  0.1460  0.2204
 1105YOPC   C1A14735   1.681  14.162   6.551  0.1240  0.3730 -0.0694
 1105YOPC   D2A14736   1.611  13.949   6.856  0.0869  0.0770  0.0764
 1105YOPC   C3A14737   1.435  14.179   7.235 -0.0579  0.1821 -0.0912
 1105YOPC   C4A14738   1.234  14.412   7.663 -0.2071  0.0824  0.0551
 1105YOPC   C1B14739   1.063  14.163   6.275 -0.0148 -0.1388  0.2060
 1105YOPC   C2B14740   0.760  13.980   6.483 -0.2980 -0.1391  0.1534
 1105YOPC   D3B14741   0.646  14.089   6.883 -0.3010 -0.0029 -0.0673
 1105YOPC   C4B14742   0.515  14.096   7.344  0.0066 -0.2680 -0.1462
 1106YOPC   NC314743  14.601   1.376   5.068  0.1517  0.0475  0.0011
 1106YOPC   PO414744  15.114   1.411   5.230  0.0431  0.2446 -0.0087
 1106YOPC   GL114745  15.163   1.452   5.640  0.1549  0.1356 -0.0760
 1106YOPC   GL214746  15.218   1.727   5.820 -0.3232  0.1952 -0.0825
 1106YOPC   C1A14747  14.881   1.360   5.987  0.0386  0.0496  0.1337
 1106YOPC   D2A14748  14.694   1.405   6.425 -0.1966  0.2905 -0.1067
 1106YOPC   C3A14749  14.404   1.110   6.570 -0.1052 -0.0640  0.0988
 1106YOPC   C4A14750  14.374   0.824   6.896 -0.1717  0.1728  0.1396
 1106YOPC   C1B14751  15.266   1.625   6.246  0.0356 -0.1540  0.1312
 1106YOPC   C2B14752  15.194   1.819   6.609 -0.1446  0.1724 -0.0288
 1106YOPC   D3B14753  15.397   2.017   6.709  0.1702 -0.4304  0.0334
 1106YOPC   C4B14754  15.597   1.774   7.045  0.1404  0.0609  0.2326
 1107YOPC   NC314755   1.870  16.171   5.889  0.0281 -0.0234  0.1631
 1107YOPC   PO414756   2.019  16.537   5.732 -0.0864  0.1610  0.0598
 1107YOPC   GL114757   2.193  16.400   6.187  0.0009 -0.0294 -0.2791
 1107YOPC   GL214758   2.474  16.436   6.226 -0.1658  0.1473 -0.0271
 1107YOPC   C1A14759   2.100  16.522   6.583 -0.0529  0.2859  0.0624
 1107YOPC   D2A14760   1.987  16.825   6.852  0.0456  0.0628  0.0689
 1107YOPC   C3A14761   2.049  16.719   7.339 -0.2781  0.2866 -0.1367
 1107YOPC   C4A14762   1.864  16.680   7.711 -0.1852  0.2057  0.0512
 1107YOPC   C1B14763   2.468  16.811   6.476 -0.1531 -0.0845 -0.1619
 1107YOPC   C2B14764   2.548  16.995   6.800 -0.2524  0.0460 -0.0250
 1107YOPC   D3B14765   2.706  16.805   7.265  0.0765  0.2818  0.0717
 1107YOPC   C4B14766   2.870  16.546   7.625  0.2861 -0.1120  0.0020
 1108YOPC   NC314767  11.396   3.683   6.180 -0.0288  0.2150  0.0445
 1108YOPC   PO414768  11.278   3.249   6.267  0.1521 -0.2399  0.0813
 1108YOPC   GL114769  11.289   3.045   6.645 -0.1677 -0.2266  0.0719
 1108YOPC   GL214770  11.610   2.899   6.743 -0.0820  0.2862 -0.2956
 1108YOPC   C1A14771  11.179   3.059   7.060 -0.0466  0.1979  0.0062
 1108YOPC   D2A14772  11.203   3.038   7.504 -0.1967  0.0934  0.0770
 1108YOPC   C3A14773  11.415   3.204   7.804 -0.1129 -0.0064  0.1437
 1108YOPC   C4A14774  11.302   2.925   8.196  0.1009  0.1118 -0.1432
 1108YOPC   C1B14775  11.692   2.920   7.130  0.1729  0.1518 -0.2544
 1108YOPC   C2B14776  11.745   2.853   7.580 -0.4261  0.1505  0.0650
 1108YOPC   D3B14777  11.711   2.641   7.885 -0.2220 -0.0998 -0.0138
 1108YOPC   C4B14778  11.733   2.651   8.382 -0.0197 -0.2004  0.0795
 1109YOPC   NC314779   5.365   0.757   5.968  0.1500  0.3202 -0.0053
 1109YOPC   PO414780   5.642   0.397   6.017  0.3010  0.0288  0.2823
 1109YOPC   GL114781   5.716   0.426   6.408  0.2228 -0.1358 -0.0602
 1109YOPC   GL214782   5.889   0.185   6.384  0.0075  0.0414  0.0273
 1109YOPC   C1A14783   5.737   0.625   6.756  0.1161  0.0077  0.1965
 1109YOPC   D2A14784   5.677   0.662   7.176 -0.0701  0.0198 -0.0883
 1109YOPC   C3A14785   5.715   0.553   7.595 -0.2433 -0.0555  0.0812
 1109YOPC   C4A14786   5.827   0.650   7.962 -0.1033 -0.1575 -0.2124
 1109YOPC   C1B14787   5.982  -0.142   6.610 -0.0229 -0.0646  0.1735
 1109YOPC   C2B14788   6.191  -0.380   6.865 -0.0669  0.1304 -0.0353
 1109YOPC   D3B14789   5.963  -0.626   7.147  0.1344  0.5205 -0.1244
 1109YOPC   C4B14790   5.712  -0.698   7.446  0.0933  0.1842  0.1464
 1110YOPC   NC314791   0.658  15.584   5.721  0.0843 -0.1449 -0.1431
 1110YOPC   PO414792   0.600  15.174   5.566  0.1744 -0.3895 -0.0890
 1110YOPC   GL114793   0.409  15.242   5.958 -0.0242 -0.2930 -0.1126
 1110YOPC   GL214794   0.510  14.945   6.051  0.0959 -0.0845  0.0411
 1110YOPC   C1A14795   0.288  15.319   6.304  0.0499 -0.0697  0.2546
 1110YOPC   D2A14796  -0.141  15.495   6.351 -0.0837 -0.0076  0.1914
 1110YOPC   C3A14797  -0.226  15.570   6.696  0.0289 -0.1739 -0.4222
 1110YOPC   C4A14798  -0.407  15.441   7.080  0.2110  0.3763  0.0277
 1110YOPC   C1B14799   0.630  14.952   6.448 -0.1124  0.0671 -0.0740
 1110YOPC   C2B14800   0.456  15.162   6.740 -0.2381  0.2341  0.2373
 1110YOPC   D3B14801   0.439  15.173   7.188 -0.1873  0.1406  0.2478
 1110YOPC   C4B14802   0.549  15.321   7.609 -0.0067  0.0019  0.0179
 1111YOPC   NC314803   5.051  12.490   5.585  0.0212  0.2407  0.0925
 1111YOPC   PO414804   4.629  12.339   5.618 -0.1790  0.1062  0.0121
 1111YOPC   GL114805   4.683  12.610   5.898 -0.2705  0.3330 -0.0057
 1111YOPC   GL214806   4.416  12.594   6.137 -0.4375 -0.0737  0.1326
 1111YOPC   C1A14807   4.795  12.920   6.220 -0.0130  0.0115  0.0052
 1111YOPC   D2A14808   4.798  13.193   6.605  0.0268  0.2370 -0.1672
 1111YOPC   C3A14809   4.456  13.174   6.927  0.4694 -0.0874 -0.1045
 1111YOPC   C4A14810   4.446  13.030   7.336  0.0730  0.1044  0.1286
 1111YOPC   C1B14811   4.523  12.682   6.554 -0.0218  0.1938  0.1228
 1111YOPC   C2B14812   4.583  12.745   6.913 -0.1713 -0.1223  0.1413
 1111YOPC   D3B14813   4.366  12.536   7.131 -0.0464 -0.2142  0.1292
 1111YOPC   C4B14814   3.988  12.792   7.153 -0.1147 -0.0352 -0.1668
 1112YOPC   NC314815  14.747  17.290   5.493  0.1752 -0.1997 -0.2416
 1112YOPC   PO414816  14.948  17.716   5.390  0.0702 -0.0469  0.1766
 1112YOPC   GL114817  15.024  17.939   5.791 -0.0198 -0.0244  0.3221
 1112YOPC   GL214818  15.268  17.832   5.863  0.1021 -0.1851 -0.1829
 1112YOPC   C1A14819  14.877  18.064   6.149  0.0533  0.0877  0.0613
 1112YOPC   D2A14820  15.015  18.266   6.495 -0.1142 -0.0340  0.0131
 1112YOPC   C3A14821  14.922  18.418   6.827  0.0476 -0.0811  0.3422
 1112YOPC   C4A14822  14.769  18.715   7.066 -0.0319  0.0229  0.0457
 1112YOPC   C1B14823  15.162  17.678   6.291  0.2321 -0.2540 -0.1965
 1112YOPC   C2B14824  14.968  17.813   6.649 -0.0606 -0.0657  0.1331
 1112YOPC   D3B14825  14.785  17.533   6.720 -0.1981  0.0243  0.0310
 1112YOPC   C4B14826  14.916  17.148   6.902 -0.2972 -0.0159 -0.1909
 1113YOPC   NC314827  16.196   8.074   6.006 -0.1043  0.1358  0.1337
 1113YOPC   PO414828  16.585   8.021   6.073 -0.1079  0.0314  0.1082
 1113YOPC   GL114829  16.725   8.289   6.410  0.2926 -0.2312  0.0952
 1113YOPC   GL214830  16.364   8.246   6.483 -0.1252  0.0263 -0.2581
 1113YOPC   C1A14831  16.790   8.638   6.763 -0.3199 -0.1324  0.1912
 1113YOPC   D2A14832  16.804   8.531   7.218 -0.1056 -0.2063  0.0218
 1113YOPC   C3A14833  16.877   8.161   7.408  0.1240  0.0853  0.3168
 1113YOPC   C4A14834  16.630   8.019   7.840 -0.0906  0.4551  0.1586
 1113YOPC   C1B14835  16.170   8.001   6.793  0.2821 -0.0148 -0.2646
 1113YOPC   C2B14836  15.984   7.961   7.173  0.2197  0.0142 -0.1939
 1113YOPC   D3B14837  15.887   7.949   7.643 -0.1515 -0.1108  0.1556
 1113YOPC   C4B14838  15.832   7.824   8.014 -0.0319 -0.0387 -0.0696
 1114YOPC   NC314839  15.303  16.398   5.708  0.1180  0.3470  0.0011
 1114YOPC   PO414840  14.848  16.373   5.668 -0.2266  0.1085  0.2603
 1114YOPC   GL114841  14.638  16.358   6.050 -0.1327 -0.1378  0.2501
 1114YOPC   GL214842  14.378  16.482   6.203 -0.0091 -0.0216 -0.3802
 1114YOPC   C1A14843  14.712  16.222   6.436  0.1229  0.3394 -0.1389
 1114YOPC   D2A14844  14.844  16.170   6.901 -0.2403  0.1303 -0.2800
 1114YOPC   C3A14845  14.963  16.154   7.412 -0.1708 -0.0622  0.3955
 1114YOPC   C4A14846  15.334  16.321   7.624 -0.1363 -0.0323 -0.0246
 1114YOPC   C1B14847  14.261  16.319   6.659  0.1679 -0.0295 -0.2714
 1114YOPC   C2B14848  13.966  16.218   6.962 -0.1374  0.0638 -0.1544
 1114YOPC   D3B14849  14.023  16.302   7.399  0.3338  0.0636 -0.2141
 1114YOPC   C4B14850  14.025  16.020   7.784  0.2094  0.1053 -0.0356
 1115YOPC   NC314851   2.693  17.352   5.479  0.0702  0.0046 -0.1318
 1115YOPC   PO414852   2.202  17.452   5.709 -0.1979  0.1236 -0.0242
 1115YOPC   GL114853   2.302  17.396   6.181 -0.1997 -0.0435  0.3284
 1115YOPC   GL214854   2.175  17.682   6.309 -0.1034 -0.0153 -0.0687
 1115YOPC   C1A14855   2.645  17.435   6.538 -0.0129 -0.2056 -0.0402
 1115YOPC   D2A14856   2.646  17.483   6.996  0.1236  0.2350 -0.0483
 1115YOPC   C3A14857   2.765  17.737   7.350 -0.0148  0.2011  0.0941
 1115YOPC   C4A14858   2.696  18.031   7.685  0.2178  0.1757 -0.0008
 1115YOPC   C1B14859   2.210  17.667   6.799 -0.0503 -0.1564  0.1266
 1115YOPC   C2B14860   2.272  17.756   7.219 -0.0631 -0.1225  0.0325
 1115YOPC   D3B14861   2.237  18.095   7.450  0.0467  0.1022  0.0494
 1115YOPC   C4B14862   2.224  18.134   7.863 -0.1132 -0.2924 -0.0102
 1116YOPC   NC314863   2.636  10.504   5.330 -0.0765 -0.1118 -0.1428
 1116YOPC   PO414864   2.569  10.406   5.795  0.0391  0.0794 -0.1863
 1116YOPC   GL114865   2.371  10.718   6.138 -0.0466 -0.0760  0.0128
 1116YOPC   GL214866   2.296  10.996   6.202  0.0310 -0.0774  0.1558
 1116YOPC   C1A14867   2.545  10.756   6.561 -0.1084 -0.3165 -0.2607
 1116YOPC   D2A14868   2.718  10.686   6.979  0.0078 -0.0658 -0.0133
 1116YOPC   C3A14869   3.190  10.697   6.948 -0.7022 -0.2482  0.1344
 1116YOPC   C4A14870   3.458  11.178   6.794  0.2643 -0.1658 -0.2399
 1116YOPC   C1B14871   2.288  11.222   6.646  0.2163 -0.0672  0.0135
 1116YOPC   C2B14872   2.467  11.130   7.065 -0.0393 -0.1022 -0.1263
 1116YOPC   D3B14873   2.619  11.091   7.500  0.1553  0.0681  0.1867
 1116YOPC   C4B14874   2.931  11.232   7.758  0.0588  0.1214  0.1303
 1117YOPC   NC314875   8.198  15.037   5.723 -0.0719 -0.0718  0.1422
 1117YOPC   PO414876   8.482  15.239   5.977  0.1689  0.0503  0.0426
 1117YOPC   GL114877   8.352  15.178   6.426  0.0370  0.0461 -0.0075
 1117YOPC   GL214878   8.151  14.897   6.404  0.0272  0.1157  0.1497
 1117YOPC   C1A14879   8.265  15.305   6.884 -0.2531  0.0645 -0.3388
 1117YOPC   D2A14880   8.255  15.374   7.342  0.1987  0.1543 -0.3042
 1117YOPC   C3A14881   8.260  15.125   7.609  0.1248 -0.0799  0.1103
 1117YOPC   C4A14882   8.346  14.963   8.106  0.1570 -0.4043  0.0794
 1117YOPC   C1B14883   8.002  14.775   6.776  0.0023 -0.0206 -0.1010
 1117YOPC   C2B14884   7.948  14.983   7.073  0.2637 -0.0150  0.3503
 1117YOPC   D3B14885   7.991  14.811   7.417  0.0804 -0.1964 -0.1900
 1117YOPC   C4B14886   7.896  14.854   7.799 -0.1039 -0.2512  0.0611
 1118YOPC   NC314887   8.415   8.506   5.354  0.1619 -0.0366  0.2423
 1118YOPC   PO414888   8.106   8.513   5.745  0.0948 -0.1539  0.0791
 1118YOPC   GL114889   8.203   8.609   6.145 -0.0209 -0.2145  0.1749
 1118YOPC   GL214890   8.162   8.958   6.287  0.0907 -0.1876  0.4583
 1118YOPC   C1A14891   8.263   8.668   6.648 -0.2568  0.0102  0.2429
 1118YOPC   D2A14892   8.141   8.585   7.031  0.0352 -0.1103  0.0295
 1118YOPC   C3A14893   8.019   8.945   7.349 -0.3807 -0.2074 -0.1080
 1118YOPC   C4A14894   7.950   9.366   7.242 -0.4841 -0.2679 -0.3547
 1118YOPC   C1B14895   8.379   9.237   6.595  0.2460  0.0450  0.1029
 1118YOPC   C2B14896   8.536   8.969   7.006  0.1176 -0.1121 -0.3603
 1118YOPC   D3B14897   8.510   9.077   7.466 -0.0234 -0.0082 -0.0317
 1118YOPC   C4B14898   8.681   9.102   7.857  0.2541  0.3075 -0.5140
 1119YOPC   NC314899  13.547  10.065   5.497 -0.0278 -0.1608  0.3968
 1119YOPC   PO414900  13.884   9.935   5.940 -0.2845 -0.1297 -0.0763
 1119YOPC   GL114901  13.733  10.074   6.302 -0.5191  0.1341 -0.1723
 1119YOPC   GL214902  13.628   9.907   6.571  0.0738  0.3322 -0.1744
 1119YOPC   C1A14903  13.564  10.405   6.542  0.1486 -0.0127 -0.0182
 1119YOPC   D2A14904  13.229  10.465   6.795 -0.1829  0.1136 -0.0213
 1119YOPC   C3A14905  13.315  10.353   7.236 -0.1141  0.1296  0.1184
 1119YOPC   C4A14906  13.111  10.563   7.474 -0.2304  0.0179 -0.3095
 1119YOPC   C1B14907  13.339   9.955   6.914  0.1546 -0.2847 -0.4070
 1119YOPC   C2B14908  13.283   9.877   7.374  0.0185 -0.1543 -0.0468
 1119YOPC   D3B14909  13.157  10.081   7.723 -0.0427 -0.0475 -0.1749
 1119YOPC   C4B14910  12.933   9.987   8.054 -0.2234  0.3491  0.1507
 1120YOPC   NC314911  14.319   2.019   5.269 -0.2116  0.0579  0.0069
 1120YOPC   PO414912  14.657   1.865   5.341 -0.0821 -0.3678 -0.1393
 1120YOPC   GL114913  14.651   1.722   5.793 -0.0123 -0.1947 -0.0071
 1120YOPC   GL214914  14.412   1.480   5.903 -0.4176  0.2158 -0.1207
 1120YOPC   C1A14915  14.753   1.853   6.193 -0.1529 -0.1132  0.0013
 1120YOPC   D2A14916  14.599   1.949   6.569  0.2908  0.1086 -0.0441
 1120YOPC   C3A14917  14.803   1.616   6.855 -0.0998 -0.2010 -0.2332
 1120YOPC   C4A14918  15.160   1.607   7.212 -0.0670  0.2001 -0.0629
 1120YOPC   C1B14919  14.146   1.239   6.196  0.3498  0.0343  0.0138
 1120YOPC   C2B14920  13.869   1.065   6.448  0.1620 -0.2319  0.1689
 1120YOPC   D3B14921  14.005   1.175   6.891  0.5121  0.0219  0.0546
 1120YOPC   C4B14922  14.054   1.216   7.396  0.1579 -0.1021 -0.2281
 1121YOPC   NC314923   5.942  16.763   5.450  0.1710 -0.0999 -0.2880
 1121YOPC   PO414924   5.841  17.007   5.867  0.0111  0.2161 -0.3069
 1121YOPC   GL114925   5.796  17.229   6.269 -0.1220  0.1490  0.1472
 1121YOPC   GL214926   5.687  17.612   6.404  0.1975 -0.0688  0.0997
 1121YOPC   C1A14927   5.902  17.196   6.712 -0.0037  0.0196  0.1008
 1121YOPC   D2A14928   5.938  16.934   7.158 -0.2741  0.0838  0.1503
 1121YOPC   C3A14929   5.997  16.952   7.640  0.0976  0.1475 -0.0679
 1121YOPC   C4A14930   6.239  17.037   7.946 -0.0198  0.0052  0.1460
 1121YOPC   C1B14931   5.638  17.750   6.868 -0.1787 -0.2272  0.0606
 1121YOPC   C2B14932   5.901  17.948   7.198  0.2707 -0.2255 -0.0158
 1121YOPC   D3B14933   6.036  17.781   7.545 -0.0405  0.2575 -0.2326
 1121YOPC   C4B14934   6.213  17.444   7.639  0.1052 -0.1288 -0.0211
 1122YOPC   NC314935   6.276   0.180   6.043  0.0728  0.1150 -0.3355
 1122YOPC   PO414936   6.346   0.585   5.754  0.2431 -0.1099 -0.1594
 1122YOPC   GL114937   6.672   0.576   6.096 -0.0416 -0.0191 -0.1704
 1122YOPC   GL214938   6.626   0.789   6.372 -0.0240  0.3313  0.0724
 1122YOPC   C1A14939   6.808   0.395   6.530 -0.0668  0.0950  0.1433
 1122YOPC   D2A14940   6.763   0.302   6.914 -0.1420 -0.2102 -0.4922
 1122YOPC   C3A14941   6.728   0.276   7.337 -0.0038 -0.1211  0.1682
 1122YOPC   C4A14942   6.863   0.115   7.723  0.0199 -0.2998 -0.1914
 1122YOPC   C1B14943   6.665   0.808   6.833  0.2058 -0.0083  0.0302
 1122YOPC   C2B14944   6.784   0.897   7.281  0.1384 -0.2087 -0.0439
 1122YOPC   D3B14945   7.019   0.572   7.570 -0.3752 -0.2777 -0.1199
 1122YOPC   C4B14946   7.380   0.642   7.876 -0.3960  0.0748 -0.1626
 1123YOPC   NC314947   4.541   0.855   6.058  0.1519  0.1027  0.0173
 1123YOPC   PO414948   4.598   1.248   5.813 -0.0367 -0.1076  0.0794
 1123YOPC   GL114949   4.468   1.323   6.208 -0.0249  0.1454 -0.0304
 1123YOPC   GL214950   4.771   1.318   6.403 -0.0353 -0.0207 -0.0922
 1123YOPC   C1A14951   4.227   1.257   6.587  0.0226 -0.0718  0.0403
 1123YOPC   D2A14952   4.117   1.452   6.947  0.3204  0.1828  0.1681
 1123YOPC   C3A14953   4.080   1.414   7.384 -0.1655 -0.1758  0.0334
 1123YOPC   C4A14954   3.855   1.265   7.729  0.0781  0.1950 -0.2448
 1123YOPC   C1B14955   5.156   1.512   6.658  0.0116  0.2030 -0.0070
 1123YOPC   C2B14956   5.369   1.717   7.065  0.0266 -0.0621 -0.0125
 1123YOPC   D3B14957   5.539   1.583   7.394 -0.0657  0.0575  0.0652
 1123YOPC   C4B14958   5.363   1.430   7.771  0.0909 -0.0840  0.1064
 1124YOPC   NC314959  11.978   9.505   5.662  0.0087 -0.1265  0.1212
 1124YOPC   PO414960  12.233   9.319   5.905  0.0642 -0.0393 -0.1700
 1124YOPC   GL114961  12.267   9.155   6.319 -0.1111  0.1151 -0.4447
 1124YOPC   GL214962  12.017   8.941   6.335  0.1127 -0.1552  0.4118
 1124YOPC   C1A14963  12.341   8.991   6.718 -0.0231  0.1292  0.0634
 1124YOPC   D2A14964  12.350   8.904   7.133  0.0818  0.1732  0.0221
 1124YOPC   C3A14965  12.402   8.576   7.552 -0.0895  0.1888  0.0279
 1124YOPC   C4A14966  12.429   8.233   7.789 -0.0425 -0.1645  0.0905
 1124YOPC   C1B14967  11.849   8.847   6.728 -0.3261 -0.3419 -0.1949
 1124YOPC   C2B14968  11.769   8.693   7.098 -0.1285 -0.0778  0.2709
 1124YOPC   D3B14969  11.989   8.817   7.422 -0.4334  0.2937 -0.1104
 1124YOPC   C4B14970  12.077   8.987   7.845  0.0577  0.0935 -0.3517
 1125YOPC   NC314971  15.235  12.397   5.286 -0.1592  0.2317 -0.0426
 1125YOPC   PO414972  15.195  12.167   5.694 -0.2719 -0.3685 -0.0346
 1125YOPC   GL114973  15.190  12.314   6.047 -0.0286 -0.1900  0.0001
 1125YOPC   GL214974  15.283  12.198   6.273 -0.1635  0.1192  0.1351
 1125YOPC   C1A14975  15.451  12.683   6.151  0.3822 -0.2668  0.3028
 1125YOPC   D2A14976  15.319  13.002   6.345 -0.0114 -0.1642 -0.2352
 1125YOPC   C3A14977  15.262  13.078   6.802  0.2372  0.0422  0.0892
 1125YOPC   C4A14978  15.240  13.162   7.282 -0.2064  0.0831  0.2096
 1125YOPC   C1B14979  15.405  12.170   6.713 -0.2710 -0.2925 -0.4527
 1125YOPC   C2B14980  15.440  12.039   7.083 -0.0696 -0.0384  0.0849
 1125YOPC   D3B14981  15.428  12.008   7.487  0.1125  0.2976  0.0903
 1125YOPC   C4B14982  15.573  12.308   7.797 -0.1204  0.0827 -0.1627
 1126YOPC   NC314983   8.573  17.861   5.924  0.3740  0.0708 -0.1642
 1126YOPC   PO414984   8.464  17.507   6.149 -0.0392  0.0744 -0.1186
 1126YOPC   GL114985   8.082  17.539   6.370 -0.2135  0.1800 -0.0976
 1126YOPC   GL214986   8.033  17.168   6.409 -0.3060  0.0756  0.2900
 1126YOPC   C1A14987   7.684  17.621   6.616  0.0586 -0.0542 -0.3156
 1126YOPC   D2A14988   7.692  17.932   7.016 -0.1840 -0.5015 -0.1030
 1126YOPC   C3A14989   7.378  17.864   7.412  0.2061 -0.1046 -0.3345
 1126YOPC   C4A14990   7.197  17.874   7.842 -0.0141  0.1557 -0.0340
 1126YOPC   C1B14991   7.822  17.172   6.818 -0.0134  0.1347  0.2782
 1126YOPC   C2B14992   7.754  17.460   7.180  0.1150  0.0269 -0.0426
 1126YOPC   D3B14993   7.872  17.447   7.635 -0.0790 -0.1671 -0.1464
 1126YOPC   C4B14994   8.092  17.246   7.949 -0.1722  0.0406 -0.3198
 1127YOPC   NC314995   5.806   9.470   5.782 -0.0082  0.0764  0.0685
 1127YOPC   PO414996   5.822   9.076   5.931 -0.0149  0.3718 -0.0925
 1127YOPC   GL114997   5.906   9.042   6.324  0.0038  0.0886  0.3522
 1127YOPC   GL214998   6.266   9.046   6.435  0.1042 -0.1405  0.2054
 1127YOPC   C1A14999   5.822   9.449   6.592 -0.1548  0.0144 -0.1939
 1127YOPC   D2A15000   5.488   9.444   6.961 -0.0110 -0.0631 -0.0443
 1127YOPC   C3A15001   5.577   9.404   7.328  0.1470  0.1505  0.3932
 1127YOPC   C4A15002   5.556   9.564   7.733 -0.1211 -0.0683 -0.1213
 1127YOPC   C1B15003   6.108   9.077   6.819 -0.0537 -0.2050 -0.0630
 1127YOPC   C2B15004   6.021   9.192   7.208 -0.2334 -0.0778  0.0379
 1127YOPC   D3B15005   6.338   9.145   7.531  0.0226 -0.1713  0.1252
 1127YOPC   C4B15006   6.640   8.986   7.947  0.0130 -0.2432 -0.1501
 1128YOPC   NC315007   7.032  11.792   5.299 -0.0259  0.1353 -0.1871
 1128YOPC   PO415008   6.767  11.768   5.541 -0.1603  0.0188  0.2012
 1128YOPC   GL115009   6.714  11.737   5.967 -0.2356  0.0896 -0.0382
 1128YOPC   GL215010   6.406  11.966   6.125 -0.2524 -0.0413 -0.1167
 1128YOPC   C1A15011   6.751  11.751   6.434 -0.0260 -0.1349  0.1675
 1128YOPC   D2A15012   6.839  11.951   6.825 -0.3641 -0.0460 -0.0867
 1128YOPC   C3A15013   6.589  11.748   7.160  0.2765  0.0260 -0.0448
 1128YOPC   C4A15014   6.132  11.751   7.397  0.1231  0.0115  0.2577
 1128YOPC   C1B15015   6.181  11.955   6.484 -0.2382  0.1585  0.3585
 1128YOPC   C2B15016   6.125  11.848   6.915  0.3545  0.1246  0.1190
 1128YOPC   D3B15017   5.847  12.157   7.084  0.0002  0.1276 -0.2465
 1128YOPC   C4B15018   5.398  12.279   7.019 -0.0566  0.1088  0.2363
 1129YOPC   NC315019   8.015  10.330   5.719 -0.0241  0.2820 -0.0843
 1129YOPC   PO415020   8.378  10.623   5.703  0.3773  0.1166 -0.2898
 1129YOPC   GL115021   8.265  10.515   6.165  0.4458  0.0791  0.1910
 1129YOPC   GL215022   7.981  10.800   6.169 -0.0838  0.1203  0.4321
 1129YOPC   C1A15023   8.164  10.533   6.610 -0.1029  0.0745  0.0706
 1129YOPC   D2A15024   7.981  10.763   6.876 -0.0044 -0.2364  0.1273
 1129YOPC   C3A15025   7.753  10.862   7.180 -0.1381 -0.1169  0.1335
 1129YOPC   C4A15026   7.415  10.660   7.204 -0.2541 -0.0320  0.2063
 1129YOPC   C1B15027   7.941  11.027   6.443  0.0032 -0.0288 -0.3334
 1129YOPC   C2B15028   8.218  11.294   6.671 -0.1985 -0.1171 -0.1387
 1129YOPC   D3B15029   8.269  11.200   7.119  0.1988  0.1344  0.2659
 1129YOPC   C4B15030   8.323  11.096   7.624 -0.0624 -0.2067  0.1784
 1130YOPC   NC315031  17.745  16.317   5.619 -0.0479  0.1106 -0.2348
 1130YOPC   PO415032  17.380  16.233   5.850  0.3327 -0.1489 -0.0761
 1130YOPC   GL115033  17.448  16.061   6.093  0.0973  0.0182 -0.1809
 1130YOPC   GL215034  17.465  16.123   6.384 -0.1792 -0.2560  0.1488
 1130YOPC   C1A15035  17.504  15.653   6.402 -0.1284  0.0286  0.2651
 1130YOPC   D2A15036  17.411  15.269   6.644 -0.0037  0.4447 -0.2077
 1130YOPC   C3A15037  17.214  15.196   7.028  0.1890 -0.3186 -0.1307
 1130YOPC   C4A15038  17.281  15.222   7.372 -0.2124  0.1995  0.0839
 1130YOPC   C1B15039  17.587  15.966   6.793  0.0707 -0.2670  0.0880
 1130YOPC   C2B15040  17.888  15.893   7.131 -0.0033 -0.0971 -0.1439
 1130YOPC   D3B15041  17.915  15.928   7.482  0.0266 -0.1522 -0.1717
 1130YOPC   C4B15042  18.064  15.779   7.858 -0.0853 -0.1266  0.2291
 1131YOPC   NC315043   6.159  17.425   5.913 -0.1473 -0.1363 -0.0704
 1131YOPC   PO415044   6.393  17.840   5.863  0.0706 -0.2866  0.1440
 1131YOPC   GL115045   6.448  17.682   6.281  0.1811  0.1834 -0.1944
 1131YOPC   GL215046   6.249  17.446   6.487  0.1047 -0.1378 -0.0583
 1131YOPC   C1A15047   6.542  17.967   6.596 -0.2356 -0.1332  0.1134
 1131YOPC   D2A15048   6.435  18.060   7.141  0.0381  0.2264  0.0364
 1131YOPC   C3A15049   6.445  17.998   7.520  0.0429 -0.0953  0.0433
 1131YOPC   C4A15050   6.511  17.758   7.916  0.1131 -0.0839  0.0401
 1131YOPC   C1B15051   6.374  17.156   6.915 -0.1386 -0.0159  0.1529
 1131YOPC   C2B15052   6.375  17.117   7.349 -0.1769  0.3664  0.1152
 1131YOPC   D3B15053   6.517  16.839   7.557  0.3180  0.0448  0.1740
 1131YOPC   C4B15054   6.577  16.372   7.627 -0.0085  0.1190  0.1230
 1132YOPC   NC315055   4.192   8.862   5.564  0.2129  0.5021 -0.2403
 1132YOPC   PO415056   3.691   8.820   5.660  0.0961  0.2253 -0.2001
 1132YOPC   GL115057   3.689   8.926   6.044  0.0622  0.1097  0.3700
 1132YOPC   GL215058   3.484   8.876   6.146  0.0937  0.1590  0.1137
 1132YOPC   C1A15059   3.925   9.033   6.383 -0.0386 -0.0392  0.2533
 1132YOPC   D2A15060   3.791   9.110   6.806 -0.1561  0.2581  0.0942
 1132YOPC   C3A15061   3.686   9.206   7.176 -0.0569  0.0040  0.1591
 1132YOPC   C4A15062   3.731   9.137   7.602 -0.0425  0.1619  0.1218
 1132YOPC   C1B15063   3.298   9.102   6.661  0.0016  0.1547  0.4492
 1132YOPC   C2B15064   3.189   9.306   7.129  0.0438  0.1453 -0.1018
 1132YOPC   D3B15065   3.350   9.431   7.523  0.0151 -0.0899  0.1036
 1132YOPC   C4B15066   3.507   9.599   7.857 -0.0857  0.2244 -0.0357
 1133YOPC   NC315067   3.875   3.071   6.041 -0.0551 -0.1372  0.0117
 1133YOPC   PO415068   4.060   3.433   6.080 -0.0614  0.0473  0.2700
 1133YOPC   GL115069   4.052   3.448   6.487  0.0249 -0.0079  0.2801
 1133YOPC   GL215070   4.080   3.142   6.625  0.2778 -0.0457 -0.0143
 1133YOPC   C1A15071   4.135   3.531   6.930 -0.1122 -0.2638 -0.3019
 1133YOPC   D2A15072   4.042   3.629   7.276 -0.1763 -0.2852  0.2838
 1133YOPC   C3A15073   4.358   3.533   7.518  0.0357  0.3920 -0.2464
 1133YOPC   C4A15074   4.362   3.150   7.641  0.1477 -0.1581 -0.0717
 1133YOPC   C1B15075   4.255   2.798   6.796 -0.2854  0.2425 -0.1138
 1133YOPC   C2B15076   4.155   2.622   7.169  0.1858  0.1460 -0.0818
 1133YOPC   D3B15077   4.324   2.696   7.464 -0.0816  0.1316 -0.1143
 1133YOPC   C4B15078   4.456   2.779   7.971  0.2306  0.0388  0.0936
 1134YOPC   NC315079  17.102   0.645   5.255  0.2201  0.1091 -0.1448
 1134YOPC   PO415080  17.156   0.390   5.515  0.0963  0.2142 -0.2484
 1134YOPC   GL115081  17.163   0.469   5.978  0.0264  0.0343 -0.0670
 1134YOPC   GL215082  16.964   0.665   6.046 -0.1155 -0.0316  0.0306
 1134YOPC   C1A15083  17.274   0.554   6.431 -0.0224  0.1611  0.0687
 1134YOPC   D2A15084  17.292   0.361   6.892  0.4974  0.4716  0.0786
 1134YOPC   C3A15085  17.403   0.640   7.162  0.1746  0.2068 -0.0407
 1134YOPC   C4A15086  17.404   1.068   7.233 -0.1968 -0.0502  0.0169
 1134YOPC   C1B15087  16.786   0.811   6.448  0.1863  0.0346  0.0507
 1134YOPC   C2B15088  16.619   1.075   6.718  0.1086  0.3763 -0.0954
 1134YOPC   D3B15089  16.270   1.067   7.115  0.1583  0.0889 -0.0179
 1134YOPC   C4B15090  16.147   0.861   7.551  0.4387  0.1035 -0.0176
 1135YOPC   NC315091   0.454   5.521   5.714 -0.1720 -0.1083  0.0604
 1135YOPC   PO415092   0.073   5.516   5.787 -0.0801 -0.0461 -0.1952
 1135YOPC   GL115093   0.213   5.795   6.121  0.0252  0.1393 -0.0460
 1135YOPC   GL215094  -0.033   5.567   6.338  0.0026  0.1344 -0.1842
 1135YOPC   C1A15095   0.375   5.986   6.369 -0.1718  0.0471  0.0609
 1135YOPC   D2A15096   0.490   6.139   6.792  0.2026  0.3815 -0.2176
 1135YOPC   C3A15097   0.858   6.197   6.935  0.3908 -0.0848  0.2917
 1135YOPC   C4A15098   1.320   6.027   6.875 -0.1692 -0.1352 -0.3073
 1135YOPC   C1B15099   0.132   5.679   6.820 -0.1567 -0.0498 -0.0283
 1135YOPC   C2B15100   0.076   5.469   7.261  0.0533 -0.0111 -0.2945
 1135YOPC   D3B15101   0.318   5.635   7.574  0.0723 -0.1819  0.0953
 1135YOPC   C4B15102   0.456   5.751   7.990 -0.0208 -0.0058 -0.1678
 1136YOPC   NC315103   3.062  13.421   5.532  0.0740  0.1895 -0.0646
 1136YOPC   PO415104   2.909  13.112   5.789 -0.1639 -0.0428 -0.0231
 1136YOPC   GL115105   2.830  13.146   6.221  0.3763  0.0786 -0.0107
 1136YOPC   GL215106   2.567  12.996   6.373  0.2721  0.2652  0.0887
 1136YOPC   C1A15107   2.748  13.490   6.586  0.2796  0.1869 -0.1393
 1136YOPC   D2A15108   2.428  13.706   6.807  0.2074 -0.1011  0.1222
 1136YOPC   C3A15109   2.310  13.549   7.201 -0.1145  0.3342 -0.0120
 1136YOPC   C4A15110   2.296  13.544   7.652  0.1991 -0.1946 -0.0929
 1136YOPC   C1B15111   2.874  12.798   6.667  0.3484 -0.1603 -0.1247
 1136YOPC   C2B15112   2.975  12.815   7.131  0.0582  0.2641 -0.0258
 1136YOPC   D3B15113   2.953  12.926   7.580  0.2990 -0.4283  0.0059
 1136YOPC   C4B15114   3.056  13.176   7.965  0.1784  0.1882  0.0184
 1137YOPC   NC315115  10.760  16.698   5.895  0.1277 -0.0880 -0.2009
 1137YOPC   PO415116  10.633  16.770   6.338  0.2072 -0.0715  0.3814
 1137YOPC   GL115117  10.446  16.826   6.682  0.4597  0.1008  0.0306
 1137YOPC   GL215118  10.477  17.074   6.889  0.2051  0.3309 -0.1850
 1137YOPC   C1A15119  10.454  16.476   7.013 -0.0704  0.0965 -0.0877
 1137YOPC   D2A15120  10.391  16.333   7.464 -0.5644  0.0969  0.1727
 1137YOPC   C3A15121  10.671  16.258   7.741 -0.1315 -0.0987  0.2014
 1137YOPC   C4A15122  10.928  16.253   8.147  0.2418 -0.3175  0.0194
 1137YOPC   C1B15123  10.360  17.058   7.309 -0.0051 -0.0542 -0.1152
 1137YOPC   C2B15124  10.339  16.830   7.671 -0.0453 -0.0862 -0.0909
 1137YOPC   D3B15125  10.364  16.931   8.042  0.1173 -0.1161 -0.0981
 1137YOPC   C4B15126  10.075  16.916   8.368 -0.5219 -0.2040 -0.2145
 1138YOPC   NC315127  10.925   4.341   6.126  0.3469  0.0534  0.1470
 1138YOPC   PO415128  10.573   4.136   6.082 -0.2054  0.0268 -0.0936
 1138YOPC   GL115129  10.683   4.103   6.562  0.1288 -0.1683  0.1494
 1138YOPC   GL215130  10.632   3.891   6.720  0.1183  0.1412 -0.0374
 1138YOPC   C1A15131  10.668   4.276   7.019 -0.0553  0.2048  0.1570
 1138YOPC   D2A15132  10.575   4.237   7.428 -0.0991 -0.1149  0.1816
 1138YOPC   C3A15133  10.408   4.534   7.612 -0.0009  0.0731 -0.0813
 1138YOPC   C4A15134  10.457   4.759   7.942 -0.0621 -0.0548 -0.0587
 1138YOPC   C1B15135  10.755   3.795   7.163  0.2387  0.1951  0.0116
 1138YOPC   C2B15136  11.072   3.513   7.268 -0.2824  0.0806  0.1108
 1138YOPC   D3B15137  11.009   3.464   7.728 -0.0706  0.0942  0.2396
 1138YOPC   C4B15138  10.857   3.313   8.078  0.0531 -0.0510  0.3149
 1139YOPC   NC315139  14.149   5.463   6.079  0.3586  0.2012  0.1666
 1139YOPC   PO415140  14.409   5.197   6.288 -0.0481 -0.2890 -0.1679
 1139YOPC   GL115141  14.406   4.920   6.619  0.1433 -0.0696  0.1558
 1139YOPC   GL215142  14.233   4.746   6.605  0.1035 -0.2435  0.0587
 1139YOPC   C1A15143  14.144   5.087   6.962  0.1434 -0.1616  0.1617
 1139YOPC   D2A15144  14.014   5.272   7.293 -0.2333 -0.0312  0.1761
 1139YOPC   C3A15145  14.132   5.132   7.648 -0.1198  0.1071 -0.1333
 1139YOPC   C4A15146  14.015   4.886   8.020  0.2605 -0.1010 -0.2841
 1139YOPC   C1B15147  14.193   4.616   7.044 -0.1177 -0.1954 -0.0087
 1139YOPC   C2B15148  13.991   4.778   7.373 -0.0373  0.0587 -0.0174
 1139YOPC   D3B15149  13.650   4.645   7.631  0.0591  0.3607  0.2712
 1139YOPC   C4B15150  13.259   4.784   7.632  0.0707 -0.0219  0.0501
 1140YOPC   NC315151   7.591   3.876   6.036 -0.2558 -0.0089 -0.1166
 1140YOPC   PO415152   8.045   3.854   6.179 -0.0737  0.2911 -0.0816
 1140YOPC   GL115153   8.304   3.971   6.564 -0.2212  0.1468 -0.1653
 1140YOPC   GL215154   8.489   3.760   6.567 -0.1089  0.2099 -0.0641
 1140YOPC   C1A15155   8.341   3.945   7.059 -0.2500 -0.3386  0.1180
 1140YOPC   D2A15156   8.078   3.624   7.355 -0.5160 -0.4077  0.0396
 1140YOPC   C3A15157   8.196   3.574   7.757 -0.2114  0.0280  0.0427
 1140YOPC   C4A15158   8.661   3.545   7.844 -0.1458  0.2501 -0.0157
 1140YOPC   C1B15159   8.088   3.621   6.829 -0.1308 -0.0773 -0.1481
 1140YOPC   C2B15160   7.951   3.222   7.109  0.1166  0.1198  0.2800
 1140YOPC   D3B15161   7.918   3.188   7.488  0.1249  0.1525 -0.2251
 1140YOPC   C4B15162   7.704   3.132   7.890  0.0424  0.0861  0.3578
 1141YOPC   NC315163  14.789  10.087   6.023  0.0120  0.2702 -0.1843
 1141YOPC   PO415164  14.632   9.659   6.225 -0.0910  0.5151 -0.0016
 1141YOPC   GL115165  14.739   9.916   6.498  0.1734 -0.1804 -0.0668
 1141YOPC   GL215166  14.993   9.751   6.611 -0.1100  0.1012  0.0828
 1141YOPC   C1A15167  14.691   9.874   6.935  0.2633  0.3598 -0.0392
 1141YOPC   D2A15168  14.567   9.988   7.247 -0.1197 -0.0806  0.1013
 1141YOPC   C3A15169  14.538   9.927   7.657  0.1075 -0.1279  0.1647
 1141YOPC   C4A15170  14.245  10.163   7.963 -0.2072  0.2025 -0.1885
 1141YOPC   C1B15171  15.094  10.128   6.889  0.0507  0.0791 -0.0096
 1141YOPC   C2B15172  15.158  10.321   7.244  0.1465  0.3374 -0.7746
 1141YOPC   D3B15173  15.050  10.265   7.719 -0.1329 -0.1081 -0.0157
 1141YOPC   C4B15174  14.830  10.090   8.035  0.0681  0.0420  0.1692
 1142YOPC   NC315175  14.305   7.957   5.698  0.0763  0.1192  0.0028
 1142YOPC   PO415176  14.111   7.667   6.028 -0.2579  0.1023 -0.0382
 1142YOPC   GL115177  14.213   7.692   6.562 -0.0773  0.4852 -0.0942
 1142YOPC   GL215178  14.531   7.555   6.720 -0.0240 -0.0334  0.1847
 1142YOPC   C1A15179  14.200   7.850   6.938  0.1134 -0.0922 -0.1455
 1142YOPC   D2A15180  13.941   8.047   7.246  0.0073 -0.1783  0.2096
 1142YOPC   C3A15181  13.979   7.849   7.706  0.2049 -0.2918 -0.2430
 1142YOPC   C4A15182  13.915   7.740   8.153  0.2684  0.1188  0.0007
 1142YOPC   C1B15183  14.581   7.425   7.154 -0.0918  0.1453  0.0753
 1142YOPC   C2B15184  14.512   7.187   7.489  0.2300 -0.2657  0.1571
 1142YOPC   D3B15185  14.194   7.017   7.636  0.0607  0.0519  0.0066
 1142YOPC   C4B15186  13.999   7.334   7.911  0.1088 -0.0336  0.1823
 1143YOPC   NC315187   2.404   6.206   5.542 -0.2672  0.3366 -0.0528
 1143YOPC   PO415188   2.059   6.337   5.719 -0.0449  0.0264 -0.2002
 1143YOPC   GL115189   2.103   6.353   6.166  0.0149 -0.2473 -0.1629
 1143YOPC   GL215190   2.014   6.660   6.275 -0.1418  0.5429  0.1061
 1143YOPC   C1A15191   2.132   6.309   6.631  0.2817 -0.0013  0.4213
 1143YOPC   D2A15192   2.194   6.293   7.035 -0.1621 -0.0371  0.1211
 1143YOPC   C3A15193   2.333   6.301   7.457 -0.0535  0.1351  0.1326
 1143YOPC   C4A15194   2.487   5.889   7.749  0.1686 -0.1455 -0.1809
 1143YOPC   C1B15195   1.981   6.840   6.685  0.0104  0.1133 -0.1671
 1143YOPC   C2B15196   1.790   7.346   6.793  0.2387 -0.0559 -0.2276
 1143YOPC   D3B15197   1.730   7.473   7.210 -0.1287 -0.1065 -0.2327
 1143YOPC   C4B15198   1.635   7.518   7.723  0.1779 -0.0532  0.1704
 1144ERGO   ROH15199  17.773  10.909   6.488 -0.2137 -0.2636  0.1050
 1144ERGO    R115200  17.776  10.824   6.758  0.0207 -0.1003  0.1584
 1144ERGO    R215201  17.835  10.995   6.967 -0.0630  0.0988  0.0318
 1144ERGO    R315202  17.596  10.907   7.063  0.0787 -0.1164  0.1948
 1144ERGO    R415203  17.739  11.006   7.299  0.0976  0.1112  0.0777
 1144ERGO    R515204  17.649  10.809   7.275  0.2897  0.0133  0.1994
 1144ERGO    C115205  17.459  10.930   7.582  0.3242 -0.0837  0.2575
 1144ERGO    C215206  17.301  10.852   7.837 -0.0788 -0.2353 -0.2187
 1145ERGO   ROH15207  14.891  12.684   6.084  0.0153  0.0471  0.0365
 1145ERGO    R115208  14.879  12.592   6.351 -0.0958  0.0649  0.0369
 1145ERGO    R215209  15.095  12.604   6.523 -0.0954 -0.1516  0.0461
 1145ERGO    R315210  14.919  12.736   6.683  0.0296  0.0302  0.0394
 1145ERGO    R415211  15.108  12.613   6.868 -0.1320 -0.2315  0.0506
 1145ERGO    R515212  14.892  12.593   6.873 -0.1648  0.0201  0.0117
 1145ERGO    C115213  14.950  12.742   7.219 -0.0358 -0.1074  0.0468
 1145ERGO    C215214  14.947  12.834   7.584  0.1332 -0.1735 -0.0168
 1146ERGO   ROH15215   3.268   0.551   6.387  0.0810 -0.0933 -0.0708
 1146ERGO    R115216   3.308   0.531   6.666  0.0654 -0.2519 -0.0786
 1146ERGO    R215217   3.518   0.391   6.777  0.2108 -0.1005 -0.1537
 1146ERGO    R315218   3.566   0.626   6.904 -0.0695 -0.1335  0.0218
 1146ERGO    R415219   3.658   0.420   7.092  0.2520 -0.1652 -0.1662
 1146ERGO    R515220   3.517   0.581   7.134  0.0476 -0.3834 -0.0003
 1146ERGO    C115221   3.785   0.658   7.394  0.0128 -0.2338 -0.0088
 1146ERGO    C215222   3.968   0.530   7.555  0.0812  0.1549  0.1829
 1147ERGO   ROH15223   9.080   9.248   6.406  0.2166  0.1793 -0.0323
 1147ERGO    R115224   9.098   9.350   6.670  0.0131  0.0937  0.0159
 1147ERGO    R215225   8.910   9.293   6.864  0.0154 -0.2070 -0.0666
 1147ERGO    R315226   9.127   9.212   7.005  0.0681 -0.0100 -0.0307
 1147ERGO    R415227   8.934   9.299   7.208 -0.1495 -0.4183 -0.0489
 1147ERGO    R515228   9.140   9.367   7.187 -0.2277 -0.1166  0.0890
 1147ERGO    C115229   9.152   9.226   7.542 -0.1963 -0.3564 -0.0049
 1147ERGO    C215230   9.186   9.245   7.949  0.0182 -0.2102  0.1595
 1148ERGO   ROH15231   1.752  17.407   6.344  0.0633  0.3440  0.1040
 1148ERGO    R115232   1.655  17.443   6.608 -0.1377 -0.0645  0.0954
 1148ERGO    R215233   1.652  17.240   6.795  0.1601 -0.2402 -0.0788
 1148ERGO    R315234   1.790  17.420   6.945 -0.2488 -0.0945  0.1373
 1148ERGO    R415235   1.735  17.197   7.127  0.2020 -0.4193 -0.1116
 1148ERGO    R515236   1.688  17.407   7.161 -0.2602 -0.5487  0.1125
 1148ERGO    C115237   1.913  17.341   7.462 -0.1574 -0.3865  0.0721
 1148ERGO    C215238   2.061  17.185   7.727  0.1087  0.3025  0.0322
 1149ERGO   ROH15239  11.132  10.457   6.177  0.0309  0.1049 -0.0692
 1149ERGO    R115240  11.159  10.259   6.379 -0.2991  0.0527 -0.0715
 1149ERGO    R215241  11.397  10.214   6.512 -0.3468 -0.4000 -0.1277
 1149ERGO    R315242  11.243  10.253   6.733 -0.2264 -0.0983 -0.0904
 1149ERGO    R415243  11.473  10.098   6.829 -0.3686 -0.3174 -0.0913
 1149ERGO    R515244  11.262  10.048   6.855 -0.4222 -0.0584  0.0136
 1149ERGO    C115245  11.373  10.067   7.220 -0.2682  0.0140 -0.0351
 1149ERGO    C215246  11.336  10.007   7.557 -0.2120 -0.1637 -0.0548
 1150ERGO   ROH15247  16.581  17.272   6.465  0.0150 -0.2204  0.1102
 1150ERGO    R115248  16.523  17.173   6.724  0.1590 -0.0477  0.2115
 1150ERGO    R215249  16.570  17.319   6.954 -0.0090  0.2374  0.0698
 1150ERGO    R315250  16.307  17.268   7.001  0.0547 -0.0515  0.1328
 1150ERGO    R415251  16.427  17.295   7.268  0.0974  0.0478  0.1052
 1150ERGO    R515252  16.308  17.127   7.195  0.2574 -0.0749  0.1176
 1150ERGO    C115253  16.098  17.233   7.495  0.2191 -0.3343  0.1850
 1150ERGO    C215254  15.788  17.272   7.575  0.1630 -0.2201 -0.1059
 1151ERGO   ROH15255  14.795  13.738   6.137  0.0525  0.0105 -0.1256
 1151ERGO    R115256  14.776  13.816   6.408 -0.1286  0.0586 -0.1511
 1151ERGO    R215257  14.536  13.820   6.545 -0.1769 -0.2259 -0.2208
 1151ERGO    R315258  14.671  13.663   6.721 -0.0115 -0.0016 -0.1414
 1151ERGO    R415259  14.450  13.776   6.877 -0.0419 -0.0443 -0.1593
 1151ERGO    R515260  14.662  13.783   6.928 -0.0321  0.1441 -0.2269
 1151ERGO    C115261  14.527  13.602   7.235  0.1919  0.2722 -0.0489
 1151ERGO    C215262  14.435  13.656   7.523  0.3507 -0.1320  0.1199
 1152ERGO   ROH15263   8.427  17.339   6.667 -0.1229  0.1112 -0.0528
 1152ERGO    R115264   8.406  17.386   6.945  0.0651  0.0404 -0.0263
 1152ERGO    R215265   8.267  17.217   7.115 -0.0785  0.1631 -0.0302
 1152ERGO    R315266   8.502  17.213   7.251 -0.0214 -0.1951 -0.1279
 1152ERGO    R415267   8.296  17.194   7.458 -0.0096  0.5533 -0.0046
 1152ERGO    R515268   8.459  17.339   7.449  0.3356  0.1843 -0.2698
 1152ERGO    C115269   8.535  17.176   7.786  0.0841  0.4442 -0.0813
 1152ERGO    C215270   8.644  17.282   8.108 -0.1623  0.0205  0.5898
 1153ERGO   ROH15271  10.427   7.038   6.338 -0.0217  0.0358  0.1743
 1153ERGO    R115272  10.429   6.967   6.613 -0.0226 -0.0738  0.1459
 1153ERGO    R215273  10.385   7.151   6.815  0.0880 -0.1359  0.2212
 1153ERGO    R315274  10.192   6.975   6.889  0.0147 -0.0740  0.1805
 1153ERGO    R415275  10.246   7.130   7.130 -0.0175 -0.0398  0.1819
 1153ERGO    R515276  10.249   6.913   7.112 -0.0690 -0.0516  0.2146
 1153ERGO    C115277   9.984   6.952   7.384 -0.1478  0.0743  0.1210
 1153ERGO    C215278   9.816   7.064   7.728  0.2658  0.0995 -0.2213
 1154ERGO   ROH15279  16.304   2.072   6.136  0.0894 -0.1541 -0.2009
 1154ERGO    R115280  16.313   1.901   6.362  0.1846 -0.0798 -0.1466
 1154ERGO    R215281  16.408   1.985   6.609 -0.0668  0.1196 -0.1084
 1154ERGO    R315282  16.167   1.896   6.695 -0.0052 -0.1747 -0.2313
 1154ERGO    R415283  16.342   1.869   6.927 -0.0739 -0.0386 -0.1679
 1154ERGO    R515284  16.218   1.713   6.840  0.1369 -0.1545 -0.2592
 1154ERGO    C115285  16.076   1.718   7.194 -0.0205 -0.4071 -0.3179
 1154ERGO    C215286  15.891   1.724   7.448  0.2340 -0.0096  0.1199
 1155ERGO   ROH15287  16.765   9.848   6.518  0.0415  0.1723 -0.0855
 1155ERGO    R115288  16.645   9.749   6.754  0.0616  0.2148 -0.0577
 1155ERGO    R215289  16.788   9.700   6.985  0.0882  0.2160 -0.0759
 1155ERGO    R315290  16.602   9.863   7.097  0.1302  0.2551 -0.0619
 1155ERGO    R415291  16.755   9.758   7.324  0.0248  0.0939 -0.0603
 1155ERGO    R515292  16.539   9.751   7.299  0.0260  0.2001 -0.1226
 1155ERGO    C115293  16.561   9.946   7.627  0.0273  0.0596 -0.0380
 1155ERGO    C215294  16.481   9.950   7.885 -0.0290  0.3345  0.2663
 1156ERGO   ROH15295  10.999  12.075   6.607  0.0885 -0.1016  0.2072
 1156ERGO    R115296  10.858  12.111   6.850  0.0391 -0.1090  0.1794
 1156ERGO    R215297  10.584  12.081   6.869  0.0251 -0.0265  0.1032
 1156ERGO    R315298  10.650  11.907   7.068 -0.0807 -0.0900  0.0842
 1156ERGO    R415299  10.398  12.030   7.155 -0.0709 -0.0337  0.0404
 1156ERGO    R515300  10.584  12.020   7.269 -0.1037 -0.1131  0.0911
 1156ERGO    C115301  10.351  11.838   7.509 -0.2262 -0.0976 -0.0139
 1156ERGO    C215302  10.133  11.756   7.586 -0.1364  0.3072 -0.1920
 1157ERGO   ROH15303  12.666   9.954   6.467  0.2228  0.1445 -0.0638
 1157ERGO    R115304  12.807   9.974   6.712  0.3445  0.4920 -0.1544
 1157ERGO    R215305  12.827  10.211   6.853 -0.2980  0.5301 -0.0805
 1157ERGO    R315306  12.727  10.060   7.056  0.2981  0.1173 -0.0698
 1157ERGO    R415307  12.814  10.309   7.184 -0.4603  0.3757 -0.0412
 1157ERGO    R515308  12.871  10.106   7.241  0.2456  0.5339 -0.1328
 1157ERGO    C115309  12.712  10.224   7.568  0.0047 -0.1018 -0.0082
 1157ERGO    C215310  12.723  10.432   7.770 -0.1110  0.1070 -0.2916
 1158ERGO   ROH15311  11.750   4.752   6.622  0.1204 -0.0488  0.0080
 1158ERGO    R115312  11.634   4.936   6.802  0.0603  0.0405 -0.1213
 1158ERGO    R215313  11.610   4.885   7.072 -0.1866  0.1021 -0.1325
 1158ERGO    R315314  11.742   5.121   7.096 -0.0936  0.0444 -0.0656
 1158ERGO    R415315  11.645   5.062   7.367 -0.3494  0.1313 -0.1294
 1158ERGO    R515316  11.612   5.246   7.255 -0.1707  0.1315 -0.1918
 1158ERGO    C115317  11.790   5.387   7.561 -0.3568  0.0943 -0.0648
 1158ERGO    C215318  11.674   5.674   7.706  0.1594  0.0848 -0.3512
 1159ERGO   ROH15319  13.202  12.971   6.510  0.1285 -0.0549  0.0929
 1159ERGO    R115320  13.134  13.046   6.775  0.0544 -0.1244  0.0936
 1159ERGO    R215321  13.236  12.916   6.997  0.1785 -0.0309  0.0901
 1159ERGO    R315322  13.312  13.166   7.069 -0.0636  0.0427  0.0984
 1159ERGO    R415323  13.305  13.016   7.320  0.3488 -0.0557  0.0623
 1159ERGO    R515324  13.203  13.204   7.279  0.0761 -0.1624  0.2130
 1159ERGO    C115325  13.417  13.310   7.576  0.2206 -0.0010  0.0539
 1159ERGO    C215326  13.466  13.354   7.874  0.1587  0.0322  0.0517
 1160ERGO   ROH15327  14.790   2.586   6.410  0.0086 -0.2735 -0.1649
 1160ERGO    R115328  14.762   2.410   6.630  0.0094 -0.2449 -0.1409
 1160ERGO    R215329  14.961   2.233   6.705  0.0844 -0.1081 -0.0036
 1160ERGO    R315330  14.931   2.353   6.947 -0.1111 -0.0713 -0.0454
 1160ERGO    R415331  14.988   2.072   7.010 -0.0962 -0.0437  0.0468
 1160ERGO    R515332  14.818   2.190   7.081 -0.1695 -0.0677 -0.0938
 1160ERGO    C115333  14.975   2.091   7.414 -0.3849  0.0283  0.0370
 1160ERGO    C215334  15.032   1.854   7.592  0.1340  0.0261 -0.2057
 1161ERGO   ROH15335   7.270   0.131   6.162  0.0087 -0.0334 -0.0932
 1161ERGO    R115336   7.160  -0.023   6.372  0.0169 -0.0588 -0.1065
 1161ERGO    R215337   7.311  -0.120   6.582  0.0402 -0.1432 -0.1563
 1161ERGO    R315338   7.125   0.008   6.733  0.0988 -0.1331 -0.0932
 1161ERGO    R415339   7.195  -0.231   6.888  0.2107 -0.0729 -0.0651
 1161ERGO    R515340   6.995  -0.169   6.829  0.1745 -0.1215  0.0236
 1161ERGO    C115341   6.952  -0.175   7.208  0.3650 -0.0225  0.0472
 1161ERGO    C215342   6.836  -0.382   7.541  0.2319 -0.0905  0.0776
 1162ERGO   ROH15343   6.052   7.141   6.700 -0.1067  0.1276 -0.0386
 1162ERGO    R115344   5.959   6.903   6.823 -0.1447  0.0958 -0.1277
 1162ERGO    R215345   6.067   6.803   7.057 -0.0446 -0.1024 -0.2536
 1162ERGO    R315346   5.809   6.811   7.141  0.0101 -0.0267 -0.0901
 1162ERGO    R415347   5.942   6.628   7.327  0.0744 -0.0483 -0.1628
 1162ERGO    R515348   5.763   6.587   7.211 -0.0090 -0.0070 -0.0454
 1162ERGO    C115349   5.627   6.533   7.564  0.1951  0.0543  0.0436
 1162ERGO    C215350   5.528   6.484   7.835  0.2431  0.2698 -0.1692
 1163ERGO   ROH15351   0.307  16.791   6.010 -0.0648  0.1216 -0.1921
 1163ERGO    R115352   0.299  16.966   6.232 -0.0437 -0.0798 -0.0302
 1163ERGO    R215353   0.477  16.948   6.442  0.0707 -0.1771 -0.1364
 1163ERGO    R315354   0.521  17.211   6.385 -0.0932 -0.0998  0.0762
 1163ERGO    R415355   0.684  17.158   6.623 -0.0091 -0.2120 -0.0024
 1163ERGO    R515356   0.536  17.316   6.599 -0.1075 -0.2740  0.1662
 1163ERGO    C115357   0.845  17.526   6.675 -0.2094 -0.1598  0.2751
 1163ERGO    C215358   1.061  17.749   6.785  0.3278  0.1737  0.1099
 1164ERGO   ROH15359  14.858   7.000   6.305  0.0440  0.0809  0.0339
 1164ERGO    R115360  14.829   7.032   6.584  0.2038 -0.0654  0.0693
 1164ERGO    R215361  14.585   7.014   6.712  0.2273  0.1763  0.1554
 1164ERGO    R315362  14.715   6.829   6.864  0.0477 -0.1024 -0.0200
 1164ERGO    R415363  14.479   6.905   7.022  0.2821  0.2234  0.1907
 1164ERGO    R515364  14.687   6.908   7.089  0.3465 -0.1439  0.0367
 1164ERGO    C115365  14.538   6.668   7.345  0.1454 -0.0110  0.0466
 1164ERGO    C215366  14.388   6.524   7.582  0.0465 -0.1444  0.2634
 1165ERGO   ROH15367   1.977  11.624   6.605 -0.1121 -0.0520  0.0192
 1165ERGO    R115368   2.087  11.728   6.844  0.2817 -0.0242 -0.1668
 1165ERGO    R215369   1.966  11.694   7.090  0.3128  0.5898 -0.0627
 1165ERGO    R315370   2.209  11.594   7.159  0.1070  0.0539 -0.0605
 1165ERGO    R415371   2.055  11.596   7.409  0.0935  0.4598 -0.0388
 1165ERGO    R515372   2.251  11.685   7.377  0.3156  0.0237 -0.0752
 1165ERGO    C115373   2.335  11.444   7.660 -0.2274 -0.1191 -0.0229
 1165ERGO    C215374   2.541  11.480   7.890  0.2223 -0.1716 -0.0106
 1166ERGO   ROH15375  11.248   0.010   6.998  0.0388 -0.0766  0.1682
 1166ERGO    R115376  11.134   0.004   7.257 -0.0125  0.0118  0.1505
 1166ERGO    R215377  10.926  -0.166   7.324 -0.0861  0.0868  0.1496
 1166ERGO    R315378  11.095  -0.242   7.523 -0.1391  0.0738  0.1875
 1166ERGO    R415379  10.828  -0.262   7.642 -0.1730 -0.0821  0.0708
 1166ERGO    R515380  10.998  -0.151   7.722 -0.2532 -0.0497  0.1841
 1166ERGO    C115381  10.930  -0.388   8.013 -0.2733 -0.1928  0.0604
 1166ERGO    C215382  10.904  -0.491   8.359  0.1217 -0.1306 -0.0940
 1167ERGO   ROH15383   6.529  10.836   5.893 -0.0592  0.1644  0.1535
 1167ERGO    R115384   6.653  10.736   6.127 -0.1822 -0.0095  0.1473
 1167ERGO    R215385   6.895  10.833   6.219  0.0231 -0.4196  0.0702
 1167ERGO    R315386   6.755  10.870   6.449  0.1341 -0.1121  0.0932
 1167ERGO    R415387   7.007  10.749   6.535  0.1486 -0.0486  0.1292
 1167ERGO    R515388   6.807  10.678   6.582  0.1588  0.0425  0.3093
 1167ERGO    C115389   6.941  10.735   6.935  0.3259  0.4563  0.1853
 1167ERGO    C215390   6.974  10.833   7.347 -0.1659  0.1515 -0.1383
 1168ERGO   ROH15391   3.506   9.360   6.315 -0.1588 -0.1079  0.0012
 1168ERGO    R115392   3.528   9.557   6.517  0.0058 -0.0619 -0.0597
 1168ERGO    R215393   3.335   9.593   6.711  0.0450  0.1450 -0.0574
 1168ERGO    R315394   3.545   9.564   6.880  0.0341  0.0349 -0.0624
 1168ERGO    R415395   3.363   9.746   7.020 -0.0208 -0.1311  0.0884
 1168ERGO    R515396   3.574   9.781   6.978 -0.0233 -0.0463  0.1406
 1168ERGO    C115397   3.577   9.807   7.359 -0.0692 -0.3952  0.1684
 1168ERGO    C215398   3.679   9.999   7.572  0.0759  0.1496 -0.0865
 1169ERGO   ROH15399  12.875   7.182   6.667  0.1281 -0.0224  0.0124
 1169ERGO    R115400  12.863   7.315   6.917 -0.0404  0.0146 -0.0136
 1169ERGO    R215401  12.626   7.359   7.052 -0.1111 -0.1572 -0.0771
 1169ERGO    R315402  12.755   7.233   7.255 -0.0527 -0.0149 -0.0251
 1169ERGO    R415403  12.555   7.400   7.387 -0.2636 -0.2079 -0.1023
 1169ERGO    R515404  12.769   7.398   7.428 -0.2746  0.0089 -0.0300
 1169ERGO    C115405  12.635   7.307   7.774 -0.2977 -0.1038 -0.0682
 1169ERGO    C215406  12.420   7.264   8.092 -0.0978  0.0692 -0.0668
 1170ERGO   ROH15407   0.206   5.184   6.566  0.1719 -0.0537 -0.1784
 1170ERGO    R115408   0.377   5.095   6.774  0.2118  0.0542 -0.1651
 1170ERGO    R215409   0.492   5.268   6.956  0.0728  0.1248 -0.1456
 1170ERGO    R315410   0.377   5.102   7.138  0.1694  0.0358 -0.1645
 1170ERGO    R415411   0.565   5.263   7.294 -0.0301  0.2342 -0.1205
 1170ERGO    R515412   0.555   5.046   7.288  0.1768  0.2203 -0.1002
 1170ERGO    C115413   0.500   5.104   7.661  0.0006  0.2143 -0.1236
 1170ERGO    C215414   0.455   5.279   7.892 -0.0198  0.1976  0.2122
 1171ERGO   ROH15415   8.529  12.300   6.407  0.1718 -0.1632  0.0470
 1171ERGO    R115416   8.586  12.340   6.681  0.2672 -0.1838  0.0312
 1171ERGO    R215417   8.392  12.323   6.878  0.2541  0.1753  0.0606
 1171ERGO    R315418   8.564  12.144   6.987 -0.0154 -0.0789  0.0796
 1171ERGO    R415419   8.419  12.256   7.216  0.0815  0.0757  0.0556
 1171ERGO    R515420   8.635  12.247   7.191  0.0738 -0.2135  0.1132
 1171ERGO    C115421   8.596  12.049   7.515 -0.2718 -0.2211  0.0705
 1171ERGO    C215422   8.604  11.976   7.827  0.2713  0.0466 -0.2283
 1172ERGO   ROH15423   4.742   4.043   6.463 -0.2228  0.1832  0.0812
 1172ERGO    R115424   4.892   4.101   6.696 -0.1426  0.2048  0.0263
 1172ERGO    R215425   4.818   4.297   6.876 -0.0898  0.2187  0.0467
 1172ERGO    R315426   4.837   4.093   7.056 -0.0222  0.2236  0.0431
 1172ERGO    R415427   4.844   4.337   7.219  0.1113  0.2081  0.0327
 1172ERGO    R515428   4.989   4.174   7.222  0.0795  0.1917 -0.0442
 1172ERGO    C115429   4.877   4.169   7.586  0.2919  0.2067  0.0211
 1172ERGO    C215430   5.024   4.079   8.001 -0.1854 -0.1002 -0.0483
 1173ERGO   ROH15431   2.780  15.045   6.666 -0.1401  0.0899 -0.1262
 1173ERGO    R115432   2.976  15.064   6.869 -0.0815  0.0139 -0.1752
 1173ERGO    R215433   3.036  15.302   6.996  0.0545 -0.0063 -0.2024
 1173ERGO    R315434   2.984  15.158   7.221  0.0468  0.0288 -0.1814
 1173ERGO    R415435   3.192  15.348   7.301 -0.0857  0.1677 -0.1549
 1173ERGO    R515436   3.197  15.131   7.325  0.0234  0.1756 -0.0916
 1173ERGO    C115437   3.234  15.240   7.689 -0.1747  0.3020 -0.1075
 1173ERGO    C215438   3.428  15.375   7.763  0.0114 -0.0418 -0.2636
 1174ERGO   ROH15439  11.676  16.785   6.284 -0.1268  0.1749 -0.1597
 1174ERGO    R115440  11.867  16.804   6.493 -0.0779  0.1847 -0.2060
 1174ERGO    R215441  11.813  16.932   6.732 -0.0647  0.0844 -0.1529
 1174ERGO    R315442  11.891  16.695   6.839  0.0636  0.0829 -0.2465
 1174ERGO    R415443  11.890  16.881   7.065  0.1305  0.0395 -0.2029
 1174ERGO    R515444  12.056  16.755   7.002  0.1371  0.0993 -0.3219
 1174ERGO    C115445  12.008  16.629   7.359  0.3647  0.0118 -0.3199
 1174ERGO    C215446  11.914  16.777   7.665  0.0534  0.1208  0.2079
 1175ERGO   ROH15447   0.413   9.199   6.434  0.2088 -0.1177  0.0498
 1175ERGO    R115448   0.506   9.208   6.701  0.0355 -0.0438  0.1096
 1175ERGO    R215449   0.342   9.164   6.919 -0.0611 -0.2095  0.0063
 1175ERGO    R315450   0.529   8.977   6.982  0.0764 -0.0397  0.1089
 1175ERGO    R415451   0.381   9.020   7.231 -0.2480 -0.3417 -0.0293
 1175ERGO    R515452   0.597   9.034   7.205 -0.2306 -0.0890  0.2171
 1175ERGO    C115453   0.579   8.762   7.472 -0.2277 -0.2594  0.0463
 1175ERGO    C215454   0.578   8.660   7.861 -0.3200  0.0731 -0.1234
 1176ERGO   ROH15455  10.590   4.367   8.266  0.1751 -0.0124  0.0074
 1176ERGO    R115456  10.560   4.541   8.488  0.1162  0.0135 -0.0192
 1176ERGO    R215457  10.382   4.491   8.693  0.0709  0.0266 -0.0458
 1176ERGO    R315458  10.603   4.519   8.848  0.0403  0.0552 -0.0094
 1176ERGO    R415459  10.380   4.560   9.032  0.0208  0.0561 -0.0531
 1176ERGO    R515460  10.548   4.695   9.001  0.0112  0.0595 -0.0342
 1176ERGO    C115461  10.587   4.627   9.374 -0.0369  0.1001 -0.0232
 1176ERGO    C215462  10.591   4.754   9.669 -0.0203  0.2112  0.0297
 1177ERGO   ROH15463  10.926  15.610   6.438  0.0112  0.1327 -0.1960
 1177ERGO    R115464  10.775  15.645   6.675 -0.0475  0.1470 -0.2362
 1177ERGO    R215465  10.577  15.470   6.752  0.0442  0.0652 -0.1941
 1177ERGO    R315466  10.719  15.460   6.984  0.0103  0.2482 -0.1637
 1177ERGO    R415467  10.447  15.383   7.061  0.0996 -0.1769 -0.2361
 1177ERGO    R515468  10.567  15.541   7.150 -0.1556 -0.0018 -0.1853
 1177ERGO    C115469  10.505  15.324   7.457  0.1002 -0.1459 -0.2320
 1177ERGO    C215470  10.543  15.158   7.768  0.0432  0.1371 -0.1943
 1178ERGO   ROH15471  10.135  15.518   6.298  0.0311  0.1114 -0.0877
 1178ERGO    R115472   9.979  15.488   6.533 -0.0810  0.1176 -0.1613
 1178ERGO    R215473  10.084  15.394   6.771 -0.2442 -0.0812 -0.1686
 1178ERGO    R315474   9.980  15.624   6.870 -0.1024 -0.0491 -0.0921
 1178ERGO    R415475   9.950  15.430   7.087 -0.2460 -0.1151 -0.1649
 1178ERGO    R515476   9.793  15.554   7.001 -0.1607  0.0209 -0.1337
 1178ERGO    C115477   9.775  15.668   7.365 -0.1140 -0.1046 -0.0910
 1178ERGO    C215478   9.727  15.785   7.764 -0.3698 -0.0123 -0.0078
 1179ERGO   ROH15479   2.671  17.907   6.230 -0.1023 -0.1855 -0.0263
 1179ERGO    R115480   2.562  17.933   6.490  0.0965 -0.2187  0.0620
 1179ERGO    R215481   2.719  17.938   6.717  0.3043  0.1300 -0.0818
 1179ERGO    R315482   2.586  18.170   6.764 -0.0029 -0.0390 -0.0824
 1179ERGO    R415483   2.703  18.098   7.023  0.3601  0.2707 -0.1516
 1179ERGO    R515484   2.493  18.143   6.983  0.2476 -0.0646  0.0238
 1179ERGO    C115485   2.568  18.409   7.245  0.1043  0.1942 -0.1927
 1179ERGO    C215486   2.518  18.563   7.459 -0.1758 -0.3264  0.0577
 1180ERGO   ROH15487   1.514  15.756   6.389  0.3104  0.3896  0.0420
 1180ERGO    R115488   1.622  15.877   6.621  0.1267  0.3191  0.1672
 1180ERGO    R215489   1.485  15.888   6.861  0.0281  0.0377  0.1306
 1180ERGO    R315490   1.710  15.771   6.958  0.0914  0.1546  0.1248
 1180ERGO    R415491   1.565  15.861   7.196 -0.1074 -0.2077  0.1449
 1180ERGO    R515492   1.772  15.907   7.145 -0.1244  0.0348  0.2856
 1180ERGO    C115493   1.823  15.735   7.482 -0.1268 -0.2408  0.1477
 1180ERGO    C215494   1.774  15.750   7.781  0.0569  0.1585 -0.0563
 1181ERGO   ROH15495  12.659  14.547   6.062  0.0363  0.2086 -0.0385
 1181ERGO    R115496  12.622  14.455   6.327 -0.1474  0.2460 -0.0500
 1181ERGO    R215497  12.829  14.359   6.483 -0.3058 -0.0407 -0.0044
 1181ERGO    R315498  12.741  14.547   6.658 -0.0967  0.0741 -0.0203
 1181ERGO    R415499  12.868  14.342   6.826  0.1623  0.2216 -0.0362
 1181ERGO    R515500  12.666  14.421   6.847  0.1784  0.2025  0.1802
 1181ERGO    C115501  12.808  14.509   7.190  0.6310  0.4820 -0.0695
 1181ERGO    C215502  12.903  14.630   7.514 -0.1653 -0.0221 -0.2400
 1182ERGO   ROH15503   3.461  15.208   6.475 -0.2328  0.0725  0.0990
 1182ERGO    R115504   3.590  15.251   6.723 -0.1618  0.1081  0.0567
 1182ERGO    R215505   3.492  15.153   6.961 -0.0748  0.1101  0.0968
 1182ERGO    R315506   3.740  15.045   6.983 -0.0535  0.1464  0.0242
 1182ERGO    R415507   3.663  15.111   7.259 -0.0869 -0.1033  0.0743
 1182ERGO    R515508   3.846  15.173   7.156 -0.0941  0.0228  0.1400
 1182ERGO    C115509   3.996  14.985   7.452 -0.0741 -0.1936 -0.0070
 1182ERGO    C215510   3.983  15.011   7.750  0.2255  0.3752 -0.1965
 1183ERGO   ROH15511  11.665  11.216   6.511 -0.2203  0.0276 -0.0091
 1183ERGO    R115512  11.699  11.181   6.790 -0.0534 -0.1974 -0.0545
 1183ERGO    R215513  11.539  11.309   6.977  0.2586 -0.0925  0.1512
 1183ERGO    R315514  11.500  11.055   7.067 -0.0193 -0.1014  0.0136
 1183ERGO    R415515  11.466  11.224   7.303  0.2587 -0.1997  0.1235
 1183ERGO    R515516  11.599  11.053   7.284  0.0468 -0.3514 -0.0180
 1183ERGO    C115517  11.386  10.937   7.578 -0.0023 -0.2705 -0.0219
 1183ERGO    C215518  11.393  10.905   7.902  0.0372 -0.0630  0.0599
 1184ERGO   ROH15519  15.928   3.834   7.027  0.0783 -0.1159  0.1987
 1184ERGO    R115520  15.728   3.664   7.132  0.0565 -0.0474  0.2652
 1184ERGO    R215521  15.651   3.670   7.397 -0.0516  0.1774  0.2245
 1184ERGO    R315522  15.403   3.704   7.291 -0.0175  0.0514  0.0962
 1184ERGO    R415523  15.355   3.599   7.561 -0.1015  0.2367  0.1637
 1184ERGO    R515524  15.277   3.518   7.374 -0.0114  0.0811  0.1852
 1184ERGO    C115525  14.950   3.590   7.557 -0.0985  0.1529  0.0080
 1184ERGO    C215526  14.665   3.632   7.798  0.0513  0.1225 -0.4435
 1185ERGO   ROH15527  12.115  11.382   6.536  0.3665 -0.0474  0.0951
 1185ERGO    R115528  12.156  11.335   6.812  0.1437 -0.1542  0.1113
 1185ERGO    R215529  12.070  11.512   7.006  0.1636 -0.1332  0.0966
 1185ERGO    R315530  11.946  11.291   7.106 -0.0906 -0.0551 -0.0368
 1185ERGO    R415531  11.967  11.475   7.334  0.2388 -0.2555  0.1076
 1185ERGO    R515532  12.035  11.268   7.327 -0.0331 -0.3481 -0.0847
 1185ERGO    C115533  11.790  11.246   7.619  0.0438 -0.2535 -0.0113
 1185ERGO    C215534  11.743  11.192   8.021  0.3831  0.0968  0.0589
 1186ERGO   ROH15535   3.727   5.037   6.104  0.0328  0.0845  0.1004
 1186ERGO    R115536   3.629   4.858   6.301 -0.1162  0.0797  0.0230
 1186ERGO    R215537   3.740   4.840   6.553 -0.0582 -0.2008 -0.0207
 1186ERGO    R315538   3.485   4.886   6.634  0.0167  0.0518  0.0839
 1186ERGO    R415539   3.623   4.795   6.875 -0.0007 -0.2103 -0.0008
 1186ERGO    R515540   3.440   4.712   6.792 -0.1248  0.0303  0.0224
 1186ERGO    C115541   3.315   4.811   7.138  0.1032  0.0212  0.1091
 1186ERGO    C215542   3.208   4.913   7.474  0.1330  0.0810  0.1329
 1187ERGO   ROH15543  10.462  13.347   6.221  0.4393 -0.1184 -0.0007
 1187ERGO    R115544  10.302  13.367   6.454  0.2511 -0.1469 -0.1242
 1187ERGO    R215545  10.284  13.163   6.640  0.2194 -0.1136 -0.0860
 1187ERGO    R315546  10.357  13.358   6.813 -0.0142 -0.0311 -0.0796
 1187ERGO    R415547  10.276  13.135   6.984  0.0968 -0.0731 -0.0859
 1187ERGO    R515548  10.202  13.339   6.994 -0.0740 -0.1335 -0.1434
 1187ERGO    C115549  10.340  13.302   7.347 -0.1938  0.0279 -0.0799
 1187ERGO    C215550  10.487  13.340   7.569 -0.1822  0.1839 -0.0994
 1188ERGO   ROH15551  14.445  13.378   6.127 -0.1421 -0.1427 -0.0638
 1188ERGO    R115552  14.323  13.451   6.372  0.0219  0.0051 -0.0240
 1188ERGO    R215553  14.176  13.274   6.524 -0.2615  0.2094 -0.0432
 1188ERGO    R315554  14.348  13.350   6.721 -0.0885 -0.1318 -0.0562
 1188ERGO    R415555  14.131  13.212   6.861 -0.3080  0.2282 -0.0465
 1188ERGO    R515556  14.206  13.413   6.903  0.0559  0.0880 -0.0197
 1188ERGO    C115557  14.265  13.247   7.242 -0.1725 -0.0811 -0.0607
 1188ERGO    C215558  14.466  12.994   7.450  0.1463  0.1514  0.2797
 1189ERGO   ROH15559   6.353   0.275   6.482 -0.0796 -0.2223  0.0331
 1189ERGO    R115560   6.280   0.426   6.711  0.0565 -0.0758 -0.0182
 1189ERGO    R215561   6.095   0.336   6.895 -0.0779  0.1863 -0.0236
 1189ERGO    R315562   6.296   0.382   7.072 -0.0515  0.0018 -0.0028
 1189ERGO    R415563   6.064   0.318   7.239 -0.1118  0.1197 -0.0299
 1189ERGO    R515564   6.190   0.495   7.254  0.0139  0.0316  0.0203
 1189ERGO    C115565   6.235   0.351   7.605 -0.1068 -0.0923 -0.0141
 1189ERGO    C215566   6.414   0.206   7.897 -0.0134 -0.1593  0.1323
 1190ERGO   ROH15567  13.079  16.118   6.338  0.1615  0.0881  0.3357
 1190ERGO    R115568  12.959  16.296   6.523  0.1544  0.1241  0.2949
 1190ERGO    R215569  13.030  16.563   6.540 -0.0158  0.1818  0.0791
 1190ERGO    R315570  12.763  16.602   6.505 -0.0667 -0.0182  0.2196
 1190ERGO    R415571  12.845  16.811   6.693 -0.0425  0.2801 -0.1071
 1190ERGO    R515572  12.684  16.668   6.721  0.0566  0.2180  0.1988
 1190ERGO    C115573  12.487  16.993   6.750 -0.1059  0.1496 -0.0837
 1190ERGO    C215574  12.312  17.229   6.660 -0.0239  0.1126 -0.1801
 1191ERGO   ROH15575   5.911  16.625   6.289 -0.0845 -0.1360 -0.0167
 1191ERGO    R115576   5.688  16.705   6.445 -0.0048  0.0669 -0.0050
 1191ERGO    R215577   5.587  16.549   6.650 -0.0767  0.2032  0.0588
 1191ERGO    R315578   5.624  16.775   6.797  0.0972  0.2259 -0.0156
 1191ERGO    R415579   5.475  16.594   6.973 -0.0535  0.3901  0.0424
 1191ERGO    R515580   5.420  16.799   6.921  0.1060  0.4218 -0.0282
 1191ERGO    C115581   5.444  16.833   7.300  0.1233  0.5200 -0.0370
 1191ERGO    C215582   5.474  16.955   7.600  0.1308 -0.2217  0.0003
 1192ERGO   ROH15583  13.421  11.981   6.333 -0.3927  0.0925 -0.0010
 1192ERGO    R115584  13.544  11.958   6.586 -0.2444 -0.2731 -0.1010
 1192ERGO    R215585  13.469  12.113   6.802  0.2505 -0.1873  0.0119
 1192ERGO    R315586  13.441  11.871   6.924 -0.1793 -0.1814 -0.0545
 1192ERGO    R415587  13.431  12.068   7.143  0.4523 -0.2087  0.0341
 1192ERGO    R515588  13.564  11.894   7.129  0.0678 -0.5148 -0.1483
 1192ERGO    C115589  13.383  11.815   7.456  0.1664 -0.2155 -0.0154
 1192ERGO    C215590  13.220  11.822   7.772 -0.3230  0.1628 -0.0365
 1193ERGO   ROH15591   2.878   2.648   6.340 -0.1148  0.0497  0.0894
 1193ERGO    R115592   2.844   2.782   6.587 -0.2231  0.0728  0.0625
 1193ERGO    R215593   2.613   2.762   6.737 -0.2392 -0.0174  0.0260
 1193ERGO    R315594   2.786   2.688   6.934 -0.2354  0.0990  0.0676
 1193ERGO    R415595   2.524   2.698   7.065 -0.2664 -0.0309  0.0160
 1193ERGO    R515596   2.705   2.800   7.129 -0.3347  0.0763  0.0400
 1193ERGO    C115597   2.633   2.590   7.440 -0.2787  0.0705  0.0493
 1193ERGO    C215598   2.687   2.470   7.731 -0.0252 -0.2573  0.3820
 1194ERGO   ROH15599  11.344  14.967   6.392  0.1032 -0.0834  0.0895
 1194ERGO    R115600  11.565  14.864   6.536  0.0383 -0.2356  0.0835
 1194ERGO    R215601  11.641  14.963   6.782  0.2724 -0.1078 -0.0333
 1194ERGO    R315602  11.618  14.703   6.858 -0.0299 -0.0170  0.2052
 1194ERGO    R415603  11.788  14.827   7.064  0.3884 -0.0920 -0.0867
 1194ERGO    R515604  11.834  14.649   6.946 -0.0072 -0.2625  0.0041
 1194ERGO    C115605  11.853  14.503   7.299  0.1720  0.0024  0.1061
 1194ERGO    C215606  11.698  14.369   7.592  0.1656 -0.2106  0.0574
 1195ERGO   ROH15607   6.798  10.272   6.275 -0.0441 -0.2072  0.0125
 1195ERGO    R115608   6.680  10.199   6.521 -0.1314 -0.1254 -0.0047
 1195ERGO    R215609   6.636   9.936   6.593 -0.0844 -0.1036  0.0988
 1195ERGO    R315610   6.778  10.006   6.814 -0.2035  0.0412  0.1316
 1195ERGO    R415611   6.730   9.719   6.845  0.0772 -0.0140  0.1171
 1195ERGO    R515612   6.683   9.874   6.990 -0.1139 -0.0577  0.1091
 1195ERGO    C115613   6.918   9.658   7.199  0.0593  0.1740  0.1585
 1195ERGO    C215614   7.169   9.450   7.300 -0.2822  0.2667  0.0094
 1196ERGO   ROH15615   2.462  10.209   6.282 -0.0598 -0.1074 -0.0153
 1196ERGO    R115616   2.407  10.271   6.553  0.1696  0.0021  0.0100
 1196ERGO    R215617   2.338  10.079   6.739 -0.1436  0.1243  0.0406
 1196ERGO    R315618   2.547  10.185   6.877  0.1354 -0.2862 -0.0524
 1196ERGO    R415619   2.383  10.052   7.081 -0.2218  0.3351  0.0670
 1196ERGO    R515620   2.450  10.259   7.083  0.3223  0.1664 -0.1258
 1196ERGO    C115621   2.604  10.136   7.409 -0.0054  0.0726 -0.0050
 1196ERGO    C215622   2.886  10.244   7.710  0.2813  0.0345 -0.2548
 1197ERGO   ROH15623  15.105  15.879   6.494 -0.1541  0.1695  0.1841
 1197ERGO    R115624  15.236  15.817   6.737 -0.0860  0.0498  0.1178
 1197ERGO    R215625  15.329  16.012   6.910 -0.0154 -0.0359  0.1742
 1197ERGO    R315626  15.177  15.878   7.091  0.0283 -0.1003  0.1639
 1197ERGO    R415627  15.400  15.986   7.247 -0.1598  0.2175  0.2270
 1197ERGO    R515628  15.336  15.778   7.240  0.0600  0.1421  0.3001
 1197ERGO    C115629  15.299  15.845   7.613 -0.2031  0.3046  0.2480
 1197ERGO    C215630  15.491  15.962   7.913 -0.1346 -0.2609  0.0477
 1198ERGO   ROH15631  15.219  14.699   6.221 -0.1877  0.2557  0.0813
 1198ERGO    R115632  15.156  14.833   6.463 -0.1993  0.1956  0.1120
 1198ERGO    R215633  14.904  14.826   6.576 -0.1763  0.0723  0.1596
 1198ERGO    R315634  15.040  14.738   6.795 -0.0968  0.0990  0.1210
 1198ERGO    R415635  14.770  14.797   6.893 -0.0595  0.1180  0.2132
 1198ERGO    R515636  14.957  14.874   6.974 -0.0275  0.1248  0.1334
 1198ERGO    C115637  14.820  14.698   7.283  0.0832  0.1697  0.2083
 1198ERGO    C215638  14.618  14.534   7.363  0.3964 -0.0708  0.0373
 1199ERGO   ROH15639  13.886   6.515   6.489  0.1120  0.0269 -0.2150
 1199ERGO    R115640  13.943   6.451   6.759 -0.2726 -0.1483 -0.1703
 1199ERGO    R215641  14.064   6.629   6.932  0.0156 -0.4585 -0.0554
 1199ERGO    R315642  13.847   6.577   7.087 -0.2533  0.0472 -0.2356
 1199ERGO    R415643  14.034   6.717   7.264  0.0045 -0.4724 -0.0515
 1199ERGO    R515644  13.939   6.524   7.302 -0.5319 -0.2620 -0.1766
 1199ERGO    C115645  13.812   6.720   7.604 -0.2545 -0.0059 -0.2184
 1199ERGO    C215646  13.797   6.842   7.952  0.1928 -0.1873 -0.2531
 1200ERGO   ROH15647   0.050  13.898   6.196 -0.1155  0.1675  0.0027
 1200ERGO    R115648   0.190  13.855   6.439 -0.1375  0.0031 -0.0129
 1200ERGO    R215649   0.167  14.024   6.656 -0.0298 -0.0531  0.0420
 1200ERGO    R315650   0.103  13.795   6.787 -0.1679 -0.0565 -0.0303
 1200ERGO    R415651   0.168  13.985   6.999  0.0138 -0.1776  0.0282
 1200ERGO    R515652   0.254  13.787   6.972 -0.1331 -0.2321 -0.0631
 1200ERGO    C115653   0.108  13.747   7.322 -0.0905 -0.2534 -0.0477
 1200ERGO    C215654  -0.091  13.806   7.781  0.0971 -0.0627 -0.0176
 1201ERGO   ROH15655  14.346   3.372   6.737 -0.0640 -0.1763  0.0312
 1201ERGO    R115656  14.493   3.395   6.978  0.1004 -0.1627 -0.0689
 1201ERGO    R215657  14.371   3.396   7.226  0.2445  0.1188  0.0023
 1201ERGO    R315658  14.544   3.192   7.276  0.0745 -0.0215  0.0327
 1201ERGO    R415659  14.470   3.293   7.541  0.1058  0.0352  0.0202
 1201ERGO    R515660  14.672   3.267   7.464  0.1013 -0.1252  0.0571
 1201ERGO    C115661  14.691   3.042   7.771 -0.1346 -0.1452  0.0592
 1201ERGO    C215662  14.493   3.008   8.070 -0.2813  0.0267  0.1422
 1202ERGO   ROH15663   9.976   0.181   6.646  0.1243  0.0932  0.0923
 1202ERGO    R115664   9.892   0.186   6.916  0.2036  0.1560  0.1165
 1202ERGO    R215665   9.742  -0.017   7.028 -0.0779  0.3507  0.1056
 1202ERGO    R315666   9.942  -0.020   7.212 -0.0246  0.0019  0.0506
 1202ERGO    R415667   9.704  -0.105   7.360 -0.1731  0.5697  0.1551
 1202ERGO    R515668   9.839   0.058   7.414  0.1935  0.3113  0.0494
 1202ERGO    C115669   9.870  -0.160   7.726 -0.1784  0.3695  0.1323
 1202ERGO    C215670   9.919  -0.348   7.953 -0.0587 -0.0606  0.0074
 1203ERGO   ROH15671   5.211  17.622   6.558  0.1634 -0.0393 -0.0438
 1203ERGO    R115672   5.115  17.727   6.803  0.0381 -0.1258 -0.0550
 1203ERGO    R215673   4.847  17.727   6.870  0.0101 -0.2055 -0.1656
 1203ERGO    R315674   4.937  17.600   7.093 -0.0530 -0.2437 -0.1615
 1203ERGO    R415675   4.658  17.669   7.154  0.0035 -0.0340 -0.1338
 1203ERGO    R515676   4.833  17.718   7.274  0.0551 -0.1457 -0.1622
 1203ERGO    C115677   4.632  17.517   7.528 -0.0596  0.0299 -0.1113
 1203ERGO    C215678   4.444  17.460   7.805 -0.1608  0.0325  0.0162
 1204ERGO   ROH15679  13.726   2.656   6.595 -0.1992  0.0819  0.1007
 1204ERGO    R115680  13.887   2.488   6.756 -0.1618  0.0449  0.0262
 1204ERGO    R215681  13.909   2.520   7.029 -0.1087 -0.0250  0.0326
 1204ERGO    R315682  13.835   2.259   7.034 -0.1012 -0.0277 -0.0224
 1204ERGO    R415683  13.946   2.309   7.301  0.1866 -0.1682 -0.1142
 1204ERGO    R515684  14.005   2.151   7.163  0.0400 -0.0958 -0.2615
 1204ERGO    C115685  13.897   1.941   7.463  0.3656 -0.2541 -0.2514
 1204ERGO    C215686  13.938   1.735   7.699  0.2653  0.0500  0.2750
 1205ERGO   ROH15687  16.596   5.426   6.811 -0.2351 -0.3521 -0.0735
 1205ERGO    R115688  16.648   5.353   7.080 -0.1598 -0.3048 -0.0743
 1205ERGO    R215689  16.581   5.514   7.294  0.0099 -0.2108 -0.0871
 1205ERGO    R315690  16.451   5.291   7.380 -0.0676 -0.1232  0.0240
 1205ERGO    R415691  16.488   5.454   7.621  0.1676 -0.1085 -0.0228
 1205ERGO    R515692  16.547   5.246   7.595  0.0322 -0.1455 -0.0266
 1205ERGO    C115693  16.312   5.210   7.893  0.1868  0.0332  0.1189
 1205ERGO    C215694  16.179   4.961   8.160  0.0756  0.0006 -0.2121
 1206ERGO   ROH15695   6.931   7.707   6.361  0.0420 -0.0751 -0.0768
 1206ERGO    R115696   7.068   7.732   6.607  0.0243  0.0120 -0.0746
 1206ERGO    R215697   7.010   7.931   6.791 -0.0737  0.0049 -0.0914
 1206ERGO    R315698   6.982   7.720   6.960  0.0178  0.0048 -0.0777
 1206ERGO    R415699   7.072   7.941   7.130 -0.3549  0.1264 -0.0419
 1206ERGO    R515700   7.163   7.744   7.115 -0.1314  0.2233  0.0637
 1206ERGO    C115701   7.082   7.750   7.488 -0.4329  0.1970 -0.0002
 1206ERGO    C215702   7.020   7.755   7.733 -0.2142  0.0200 -0.1477
 1207ERGO   ROH15703   6.489   8.540   6.363  0.2590  0.1044  0.1342
 1207ERGO    R115704   6.287   8.513   6.559  0.0436  0.2739 -0.0579
 1207ERGO    R215705   6.337   8.413   6.811 -0.3527 -0.1503 -0.1295
 1207ERGO    R315706   6.221   8.645   6.891  0.0658  0.0029  0.0558
 1207ERGO    R415707   6.218   8.476   7.130 -0.4992 -0.2955 -0.1546
 1207ERGO    R515708   6.047   8.577   7.041 -0.2131  0.1789 -0.1832
 1207ERGO    C115709   6.040   8.731   7.390 -0.1916 -0.2362  0.0047
 1207ERGO    C215710   6.125   8.800   7.827 -0.0771 -0.0417 -0.2028
 1208ERGO   ROH15711   1.634   4.095   6.003 -0.1710 -0.0783 -0.0520
 1208ERGO    R115712   1.700   3.948   6.236 -0.1989 -0.1441 -0.0846
 1208ERGO    R215713   1.794   4.069   6.466 -0.0411 -0.2273 -0.1010
 1208ERGO    R315714   1.587   3.936   6.581 -0.0993 -0.0922 -0.0503
 1208ERGO    R415715   1.772   3.991   6.802 -0.0010 -0.2316 -0.1000
 1208ERGO    R515716   1.690   3.797   6.746 -0.1491 -0.1717 -0.0877
 1208ERGO    C115717   1.565   3.821   7.106 -0.0323 -0.1073 -0.0519
 1208ERGO    C215718   1.564   4.029   7.408 -0.0897  0.0698 -0.4317
 1209ERGO   ROH15719  14.979  11.817   6.309 -0.2913 -0.2307 -0.0722
 1209ERGO    R115720  15.029  11.655   6.536 -0.0526 -0.1264 -0.0476
 1209ERGO    R215721  15.281  11.627   6.646  0.0077  0.1828 -0.1016
 1209ERGO    R315722  15.155  11.705   6.874 -0.0256  0.0892 -0.0873
 1209ERGO    R415723  15.361  11.517   6.964  0.0144  0.1088 -0.1284
 1209ERGO    R515724  15.148  11.507   7.009  0.0117  0.0468 -0.1447
 1209ERGO    C115725  15.288  11.526   7.363 -0.0132 -0.0221 -0.1307
 1209ERGO    C215726  15.196  11.359   7.724  0.3146  0.1693 -0.3530
 1210ERGO   ROH15727  17.317  16.696   6.565 -0.1454 -0.2155  0.1372
 1210ERGO    R115728  17.426  16.786   6.810 -0.0431 -0.2240  0.0963
 1210ERGO    R215729  17.272  16.904   7.008  0.0522 -0.1494  0.1321
 1210ERGO    R315730  17.381  16.709   7.163  0.0328 -0.1706  0.1170
 1210ERGO    R415731  17.301  16.917   7.352  0.0533 -0.1814  0.1322
 1210ERGO    R515732  17.498  16.827   7.335  0.0424 -0.1976  0.1263
 1210ERGO    C115733  17.420  16.741   7.698  0.0355 -0.2198  0.1181
 1210ERGO    C215734  17.325  16.528   8.051 -0.0729 -0.1541 -0.2250
 1211ERGO   ROH15735  13.327   0.691   6.660  0.2623  0.4015  0.1964
 1211ERGO    R115736  13.248   0.594   6.914  0.0980  0.2085  0.0749
 1211ERGO    R215737  13.412   0.607   7.136 -0.0240 -0.0054  0.1822
 1211ERGO    R315738  13.198   0.733   7.247 -0.0614 -0.0523  0.1629
 1211ERGO    R415739  13.333   0.603   7.472 -0.0042  0.0516  0.1875
 1211ERGO    R515740  13.123   0.583   7.417  0.0001 -0.0352  0.2045
 1211ERGO    C115741  13.085   0.719   7.772 -0.0281  0.0407  0.1725
 1211ERGO    C215742  13.063   0.931   8.032  0.1708  0.1045 -0.2791
 1212ERGO   ROH15743   3.860  17.466   6.307  0.1046 -0.2033 -0.0277
 1212ERGO    R115744   4.045  17.521   6.514  0.0313 -0.1160  0.0159
 1212ERGO    R215745   4.027  17.747   6.673 -0.0552 -0.0733 -0.0499
 1212ERGO    R315746   4.032  17.565   6.875 -0.0898 -0.0180  0.0002
 1212ERGO    R415747   4.150  17.808   6.990  0.2956 -0.1157 -0.1736
 1212ERGO    R515748   4.238  17.608   6.989  0.0639 -0.2208 -0.1934
 1212ERGO    C115749   4.226  17.672   7.364  0.4673 -0.0883 -0.1986
 1212ERGO    C215750   4.115  17.756   7.655  0.0823  0.0698 -0.1828
 1213ERGO   ROH15751   0.248  17.930   6.009  0.1556 -0.0365  0.1064
 1213ERGO    R115752   0.298  17.948   6.287  0.1946 -0.0097  0.0977
 1213ERGO    R215753   0.201  17.763   6.468  0.0875  0.0941  0.1466
 1213ERGO    R315754   0.462  17.745   6.540  0.0827 -0.0663  0.1262
 1213ERGO    R415755   0.314  17.726   6.792  0.0867  0.0158  0.1380
 1213ERGO    R515756   0.475  17.865   6.746  0.1691 -0.0791  0.1298
 1213ERGO    C115757   0.625  17.687   7.049  0.0817 -0.1803  0.1139
 1213ERGO    C215758   0.713  17.660   7.292  0.1345 -0.0286 -0.0062
 1214ERGO   ROH15759  17.373  17.624   6.442  0.0995  0.0076 -0.1500
 1214ERGO    R115760  17.537  17.723   6.650  0.1225 -0.0670 -0.1347
 1214ERGO    R215761  17.563  17.595   6.893  0.0217 -0.0638 -0.1345
 1214ERGO    R315762  17.828  17.608   6.835  0.0421 -0.2018 -0.0842
 1214ERGO    R415763  17.815  17.605   7.129 -0.0669  0.4157 -0.0485
 1214ERGO    R515764  17.918  17.752   7.004 -0.0139  0.1628 -0.3394
 1214ERGO    C115765  18.211  17.624   7.212 -0.0992  0.5652  0.0487
 1214ERGO    C215766  18.319  17.349   7.476 -0.3015 -0.0177  0.2451
 1215ERGO   ROH15767   2.008   0.521   6.352  0.0090 -0.0957  0.0551
 1215ERGO    R115768   1.884   0.528   6.606 -0.0728 -0.0346  0.0134
 1215ERGO    R215769   1.610   0.552   6.637 -0.0991 -0.1986 -0.0844
 1215ERGO    R315770   1.640   0.327   6.787  0.0057 -0.0957  0.0522
 1215ERGO    R415771   1.424   0.477   6.918 -0.0797 -0.1269 -0.0520
 1215ERGO    R515772   1.606   0.401   7.012 -0.0472  0.0214  0.0065
 1215ERGO    C115773   1.344   0.222   7.223  0.0299  0.0115  0.0952
 1215ERGO    C215774   1.330   0.059   7.531 -0.2261  0.0720  0.0789
 1216ERGO   ROH15775   1.403   6.819   6.281  0.0129  0.1425  0.0026
 1216ERGO    R115776   1.496   6.948   6.516  0.2012  0.0452 -0.0193
 1216ERGO    R215777   1.330   7.012   6.726  0.2906  0.3415 -0.0471
 1216ERGO    R315778   1.511   6.871   6.871  0.0695  0.0922 -0.0002
 1216ERGO    R415779   1.324   6.978   7.070  0.0113  0.1540 -0.0653
 1216ERGO    R515780   1.541   7.000   7.071  0.0437 -0.0375  0.0981
 1216ERGO    C115781   1.491   6.826   7.407 -0.3589 -0.1893 -0.0317
 1216ERGO    C215782   1.558   6.904   7.704  0.0911 -0.0156 -0.1000
 1217ERGO   ROH15783   4.876   4.638   6.580  0.4604  0.2464 -0.0244
 1217ERGO    R115784   4.915   4.835   6.780  0.1236  0.1714  0.1221
 1217ERGO    R215785   4.711   4.920   6.946 -0.0665 -0.1846  0.0886
 1217ERGO    R315786   4.886   4.852   7.143 -0.0703 -0.0970  0.1215
 1217ERGO    R415787   4.702   5.041   7.270 -0.0392 -0.0125  0.0251
 1217ERGO    R515788   4.920   5.055   7.265 -0.0427 -0.0391  0.0127
 1217ERGO    C115789   4.862   5.048   7.642 -0.0268  0.1699  0.0189
 1217ERGO    C215790   4.863   5.136   7.934  0.0961  0.1044  0.1639
 1218ERGO   ROH15791   9.730   2.508   7.075  0.1491 -0.0207  0.1718
 1218ERGO    R115792   9.549   2.487   7.292  0.1235 -0.0622  0.1478
 1218ERGO    R215793   9.398   2.260   7.339  0.1008 -0.0671  0.0769
 1218ERGO    R315794   9.511   2.276   7.585  0.0795 -0.1331  0.0898
 1218ERGO    R415795   9.302   2.074   7.614 -0.0966  0.0563  0.0934
 1218ERGO    R515796   9.329   2.250   7.738  0.0401  0.0476  0.0698
 1218ERGO    C115797   9.353   1.979   8.005 -0.2315  0.0662  0.1150
 1218ERGO    C215798   9.452   1.751   8.202 -0.0448  0.0938  0.1391
 1219ERGO   ROH15799   0.608  10.117   6.442 -0.0866 -0.2213  0.0483
 1219ERGO    R115800   0.503  10.256   6.665 -0.1002 -0.0763 -0.0479
 1219ERGO    R215801   0.417  10.127   6.894 -0.1978  0.0656 -0.0054
 1219ERGO    R315802   0.590  10.298   7.015 -0.1770  0.0738 -0.0454
 1219ERGO    R415803   0.452  10.162   7.236 -0.0928  0.0376 -0.0128
 1219ERGO    R515804   0.471  10.377   7.207 -0.1256  0.0432  0.0005
 1219ERGO    C115805   0.636  10.342   7.549 -0.0121  0.0290 -0.0547
 1219ERGO    C215806   0.648  10.126   7.774 -0.1937  0.0982  0.0876
 1220ERGO   ROH15807   1.898  15.746   6.175 -0.5246 -0.1614  0.1937
 1220ERGO    R115808   2.088  15.795   6.379 -0.3397 -0.1741  0.0274
 1220ERGO    R215809   2.069  16.011   6.550 -0.1433 -0.1428  0.0096
 1220ERGO    R315810   2.086  15.819   6.742 -0.0273 -0.1151  0.0286
 1220ERGO    R415811   2.133  16.071   6.884 -0.0751 -0.0799 -0.0142
 1220ERGO    R515812   2.261  15.895   6.887 -0.0136 -0.0371 -0.0270
 1220ERGO    C115813   2.185  15.927   7.259  0.0735 -0.0172 -0.0103
 1220ERGO    C215814   2.308  16.310   7.421  0.0301 -0.0159 -0.0799
 1221ERGO   ROH15815   8.709   2.784   6.765  0.0734 -0.2075  0.1134
 1221ERGO    R115816   8.566   2.793   7.009  0.1102  0.0525  0.1284
 1221ERGO    R215817   8.514   2.567   7.160 -0.1849  0.1575  0.1925
 1221ERGO    R315818   8.632   2.712   7.358  0.0390  0.0495  0.1412
 1221ERGO    R415819   8.481   2.504   7.498 -0.3822  0.3940  0.2203
 1221ERGO    R515820   8.468   2.719   7.533  0.0046  0.4431  0.1029
 1221ERGO    C115821   8.573   2.603   7.881 -0.2870  0.4303  0.1884
 1221ERGO    C215822   8.450   2.541   8.163 -0.0014 -0.2536  0.2240
 1222ERGO   ROH15823  11.972   2.064   6.851 -0.0115 -0.0480  0.0494
 1222ERGO    R115824  11.888   2.168   7.100 -0.0998 -0.0747  0.0308
 1222ERGO    R215825  11.835   2.007   7.318  0.0339 -0.0814  0.0579
 1222ERGO    R315826  12.013   2.171   7.442 -0.1032  0.0902  0.0317
 1222ERGO    R415827  11.857   2.051   7.660  0.1062 -0.1433  0.0614
 1222ERGO    R515828  11.889   2.264   7.625 -0.1457 -0.0934  0.1001
 1222ERGO    C115829  12.036   2.231   7.976  0.0195 -0.0182  0.0389
 1222ERGO    C215830  12.070   2.269   8.297  0.0196 -0.1488 -0.1016
 1223ERGO   ROH15831   5.883  11.572   6.332  0.2172  0.1696  0.1066
 1223ERGO    R115832   5.783  11.449   6.566  0.2216 -0.2076 -0.0806
 1223ERGO    R215833   5.898  11.225   6.678  0.5964 -0.0388 -0.1102
 1223ERGO    R315834   5.906  11.379   6.902  0.0167 -0.1557  0.0066
 1223ERGO    R415835   5.951  11.105   6.998  0.5227 -0.1282 -0.1311
 1223ERGO    R515836   5.799  11.245   7.070  0.1285 -0.5049 -0.1921
 1223ERGO    C115837   5.988  11.180   7.394 -0.0644 -0.2901 -0.0336
 1223ERGO    C215838   5.870  11.034   7.714 -0.0854  0.0635  0.0132
 1224ERGO   ROH15839   5.493   5.509   6.870  0.0731 -0.1277  0.0141
 1224ERGO    R115840   5.394   5.610   7.116  0.0915 -0.0698 -0.0016
 1224ERGO    R215841   5.220   5.468   7.276 -0.0180  0.0307 -0.0279
 1224ERGO    R315842   5.409   5.514   7.466 -0.0210 -0.0783  0.0010
 1224ERGO    R415843   5.175   5.418   7.615 -0.1138  0.0855 -0.0331
 1224ERGO    R515844   5.286   5.602   7.652  0.0017  0.0169 -0.0283
 1224ERGO    C115845   5.325   5.433   7.991 -0.1724  0.0151 -0.0090
 1224ERGO    C215846   5.406   5.429   8.285 -0.2609 -0.0617 -0.0078
 1225ERGO   ROH15847   0.545   5.379   6.151 -0.0445  0.0225  0.1155
 1225ERGO    R115848   0.654   5.549   6.350 -0.0051  0.1354 -0.0024
 1225ERGO    R215849   0.543   5.574   6.601  0.1109  0.1911  0.0399
 1225ERGO    R315850   0.794   5.510   6.683  0.1745  0.3127 -0.0539
 1225ERGO    R415851   0.683   5.674   6.901 -0.0199 -0.1536  0.2218
 1225ERGO    R515852   0.871   5.708   6.796 -0.0416  0.2195  0.2806
 1225ERGO    C115853   1.000   5.672   7.153 -0.0363 -0.2401  0.2396
 1225ERGO    C215854   1.134   5.958   7.392 -0.0131  0.2076 -0.1629
 1226ERGO   ROH15855   7.568   3.040   6.544 -0.1472 -0.0360 -0.0108
 1226ERGO    R115856   7.611   3.021   6.823 -0.0613 -0.2074 -0.0342
 1226ERGO    R215857   7.441   3.135   7.008  0.2143  0.0393  0.0772
 1226ERGO    R315858   7.434   2.883   7.109 -0.1929  0.0091 -0.0095
 1226ERGO    R415859   7.427   3.058   7.344  0.4624 -0.0497  0.0688
 1226ERGO    R515860   7.567   2.895   7.308  0.0819 -0.3403 -0.1629
 1226ERGO    C115861   7.413   2.777   7.636  0.2246 -0.1301 -0.0175
 1226ERGO    C215862   7.324   2.837   8.065  0.2117  0.0813  0.1141
 1227ERGO   ROH15863   5.101   2.882   6.279  0.0857  0.2611 -0.0989
 1227ERGO    R115864   5.031   3.024   6.514  0.0216  0.1418 -0.0431
 1227ERGO    R215865   4.789   3.155   6.542  0.0367  0.1912 -0.0692
 1227ERGO    R315866   4.771   3.004   6.768 -0.0943  0.0549 -0.1706
 1227ERGO    R415867   4.553   3.199   6.791 -0.1327 -0.0041 -0.1927
 1227ERGO    R515868   4.709   3.160   6.939 -0.2319 -0.0668 -0.1157
 1227ERGO    C115869   4.399   3.083   7.148 -0.3543 -0.2457 -0.3597
 1227ERGO    C215870   4.051   3.106   7.174  0.0920  0.0080 -0.1654
 1228ERGO   ROH15871   4.605  16.727   6.609  0.0739  0.0636  0.0082
 1228ERGO    R115872   4.474  16.616   6.833  0.2004 -0.0716  0.0157
 1228ERGO    R215873   4.548  16.675   7.093  0.0818  0.0947  0.0096
 1228ERGO    R315874   4.285  16.741   7.118 -0.0202 -0.2731 -0.0384
 1228ERGO    R415875   4.374  16.687   7.392  0.0676  0.0469  0.0037
 1228ERGO    R515876   4.204  16.597   7.291  0.1945 -0.2782  0.0639
 1228ERGO    C115877   4.027  16.756   7.589 -0.0364 -0.3263 -0.0448
 1228ERGO    C215878   3.821  16.842   7.830 -0.1925  0.2435 -0.0235
 1229ERGO   ROH15879   2.749   3.960   6.175 -0.1357  0.1214 -0.2010
 1229ERGO    R115880   2.857   4.114   6.387 -0.1106  0.0825 -0.1853
 1229ERGO    R215881   2.792   4.380   6.425 -0.1949  0.0446 -0.0612
 1229ERGO    R315882   2.727   4.295   6.675 -0.0660 -0.0726 -0.0663
 1229ERGO    R415883   2.901   4.528   6.718 -0.1675  0.0046 -0.0514
 1229ERGO    R515884   2.927   4.328   6.803 -0.0364 -0.0126 -0.1257
 1229ERGO    C115885   2.903   4.533   7.124 -0.0304 -0.1287 -0.0506
 1229ERGO    C215886   2.958   4.505   7.389 -0.0050 -0.3114 -0.3089
 1230ERGO   ROH15887   8.846  15.323   6.314 -0.1089 -0.0446  0.0349
 1230ERGO    R115888   8.895  15.413   6.577 -0.0312 -0.0938  0.0368
 1230ERGO    R215889   8.692  15.478   6.754  0.0304  0.2011  0.0015
 1230ERGO    R315890   8.819  15.300   6.914 -0.2475  0.0412  0.0324
 1230ERGO    R415891   8.657  15.461   7.097  0.0819  0.3902  0.0171
 1230ERGO    R515892   8.870  15.424   7.112  0.0161  0.0215 -0.0255
 1230ERGO    C115893   8.755  15.284   7.448 -0.1490  0.3502  0.0552
 1230ERGO    C215894   8.771  15.104   7.767  0.1605 -0.1171  0.3488
 1231ERGO   ROH15895   9.869  16.472   6.502  0.0069 -0.0810  0.0038
 1231ERGO    R115896   9.948  16.442   6.772  0.0288 -0.0476  0.0013
 1231ERGO    R215897  10.022  16.656   6.930  0.0757 -0.0313 -0.0408
 1231ERGO    R315898   9.831  16.559   7.096  0.0766  0.0238 -0.0072
 1231ERGO    R415899  10.022  16.693   7.274  0.1041  0.0320 -0.0474
 1231ERGO    R515900   9.952  16.487   7.290  0.0806  0.0452 -0.0031
 1231ERGO    C115901   9.842  16.623   7.630  0.1217  0.1204 -0.0198
 1231ERGO    C215902   9.909  16.704   7.932 -0.0250 -0.0960  0.1189
 1232ERGO   ROH15903   6.282  13.919   6.118 -0.0202 -0.1310  0.0984
 1232ERGO    R115904   6.396  13.875   6.374 -0.0153 -0.1247  0.0974
 1232ERGO    R215905   6.481  14.082   6.536  0.0418 -0.1225  0.0669
 1232ERGO    R315906   6.317  13.964   6.718  0.0241 -0.0624  0.0900
 1232ERGO    R415907   6.462  14.167   6.871  0.1122 -0.1133  0.0689
 1232ERGO    R515908   6.446  13.955   6.919  0.0447 -0.1055  0.0734
 1232ERGO    C115909   6.296  14.105   7.236  0.1365 -0.0517  0.0917
 1232ERGO    C215910   6.223  14.298   7.513  0.3956  0.0197  0.1236
 1233ERGO   ROH15911   8.615   7.688   6.889  0.0874  0.3443 -0.0629
 1233ERGO    R115912   8.529   7.737   7.154  0.0810  0.1468 -0.0261
 1233ERGO    R215913   8.694   7.846   7.346  0.0264  0.1663  0.0129
 1233ERGO    R315914   8.493   8.027   7.371 -0.1004  0.0121  0.1273
 1233ERGO    R415915   8.622   8.022   7.635  0.0379  0.0910  0.0614
 1233ERGO    R515916   8.410   7.994   7.593  0.0377 -0.0674  0.1677
 1233ERGO    C115917   8.391   8.295   7.825 -0.0746 -0.0977  0.1971
 1233ERGO    C215918   8.090   8.377   8.025 -0.0477  0.0661 -0.1057
 1234ERGO   ROH15919   8.563  12.709   6.089 -0.0365  0.0563 -0.1299
 1234ERGO    R115920   8.446  12.818   6.323 -0.0930  0.1088 -0.1833
 1234ERGO    R215921   8.194  12.745   6.411 -0.0520  0.0203 -0.1510
 1234ERGO    R315922   8.326  12.691   6.642 -0.0272  0.2027 -0.1193
 1234ERGO    R415923   8.042  12.666   6.711 -0.0229 -0.0963 -0.1657
 1234ERGO    R515924   8.190  12.790   6.813 -0.1698  0.0871 -0.1592
 1234ERGO    C115925   8.077  12.569   7.103  0.0172  0.0070 -0.1445
 1234ERGO    C215926   8.042  12.571   7.432  0.0178  0.0733  0.1202
 1235ERGO   ROH15927   5.024   6.783   6.543 -0.0167  0.1110 -0.0692
 1235ERGO    R115928   4.916   6.750   6.803 -0.0346  0.0135 -0.0880
 1235ERGO    R215929   5.000   6.901   7.019  0.0178 -0.1304 -0.0038
 1235ERGO    R315930   4.735   6.956   7.042  0.0377 -0.0434  0.0161
 1235ERGO    R415931   4.826   6.917   7.317 -0.0040 -0.2992 -0.0068
 1235ERGO    R515932   4.660   6.816   7.220 -0.0348 -0.1558 -0.1030
 1235ERGO    C115933   4.476   6.978   7.512  0.0021 -0.3159  0.0101
 1235ERGO    C215934   4.229   7.078   7.646 -0.1593 -0.2039  0.1712
 1236ERGO   ROH15935  10.755   3.268   6.913  0.1461  0.0201 -0.1179
 1236ERGO    R115936  10.599   3.249   7.149  0.0684  0.0705 -0.1643
 1236ERGO    R215937  10.709   3.195   7.396 -0.0351 -0.0761 -0.1456
 1236ERGO    R315938  10.580   3.423   7.468  0.1118  0.0016 -0.1251
 1236ERGO    R415939  10.588   3.262   7.713  0.0811  0.0190 -0.1207
 1236ERGO    R515940  10.411   3.350   7.621  0.1097  0.1120 -0.0782
 1236ERGO    C115941  10.396   3.515   7.965  0.2865  0.1473 -0.0869
 1236ERGO    C215942  10.184   3.537   8.187 -0.2683  0.0955 -0.1383
 1237ERGO   ROH15943  12.808  12.753   6.481  0.1007  0.0419 -0.1238
 1237ERGO    R115944  12.680  12.803   6.729  0.0834  0.0167 -0.1272
 1237ERGO    R215945  12.818  12.809   6.969  0.0674 -0.0069 -0.1159
 1237ERGO    R315946  12.704  13.054   6.992  0.0653 -0.0095 -0.1011
 1237ERGO    R415947  12.802  12.992   7.261 -0.0808 -0.0952 -0.0679
 1237ERGO    R515948  12.599  13.051   7.207 -0.0494 -0.0708 -0.1576
 1237ERGO    C115949  12.685  13.330   7.453 -0.1691 -0.1490 -0.0260
 1237ERGO    C215950  12.580  13.569   7.537 -0.0372  0.2734  0.0766
 1238ERGO   ROH15951   2.468   8.740   6.234 -0.3436 -0.2452 -0.1403
 1238ERGO    R115952   2.411   8.552   6.438 -0.1809 -0.3284 -0.1695
 1238ERGO    R215953   2.567   8.329   6.482  0.0973 -0.1326 -0.1163
 1238ERGO    R315954   2.578   8.426   6.736 -0.1296 -0.1190 -0.1094
 1238ERGO    R415955   2.650   8.142   6.761  0.2269 -0.0205 -0.0783
 1238ERGO    R515956   2.493   8.247   6.871  0.0482 -0.2248 -0.1418
 1238ERGO    C115957   2.708   8.125   7.161  0.0895  0.0576 -0.0498
 1238ERGO    C215958   2.625   7.974   7.416 -0.1077 -0.1292 -0.0832
 1239ERGO   ROH15959   7.641  15.019   5.927  0.0099 -0.0426  0.1889
 1239ERGO    R115960   7.659  15.124   6.190  0.1019 -0.0390  0.1820
 1239ERGO    R215961   7.440  15.227   6.324  0.1789  0.1093  0.1979
 1239ERGO    R315962   7.513  15.049   6.515  0.0832  0.0711  0.1992
 1239ERGO    R415963   7.374  15.260   6.661  0.0638  0.0699  0.1794
 1239ERGO    R515964   7.573  15.183   6.703  0.0365  0.0339  0.2400
 1239ERGO    C115965   7.404  15.111   7.037 -0.0932  0.0110  0.1698
 1239ERGO    C215966   7.476  14.921   7.339  0.0008  0.0816 -0.1463
 1240ERGO   ROH15967   1.813   4.162   7.860  0.0767  0.0220  0.0818
 1240ERGO    R115968   2.016   4.333   7.956  0.0306  0.0731  0.0856
 1240ERGO    R215969   2.227   4.417   7.799  0.0703  0.0314  0.1257
 1240ERGO    R315970   2.143   4.665   7.875  0.0319  0.0560  0.0099
 1240ERGO    R415971   2.422   4.702   7.791  0.1149  0.0049  0.2222
 1240ERGO    R515972   2.335   4.761   7.982 -0.0365  0.0534  0.1469
 1240ERGO    C115973   2.457   5.101   7.858  0.1048  0.0126  0.1696
 1240ERGO    C215974   2.754   5.355   7.802 -0.1239  0.0385  0.0215
 1241ERGO   ROH15975   1.338   8.557   6.084  0.0914 -0.1712  0.0264
 1241ERGO    R115976   1.373   8.424   6.331  0.0990 -0.0553  0.0890
 1241ERGO    R215977   1.578   8.484   6.506  0.0393  0.1059  0.1091
 1241ERGO    R315978   1.375   8.516   6.684 -0.0129  0.0926  0.0513
 1241ERGO    R415979   1.607   8.443   6.848 -0.0503  0.1497  0.1218
 1241ERGO    R515980   1.412   8.345   6.847 -0.0317  0.1194  0.0806
 1241ERGO    C115981   1.433   8.449   7.214 -0.1515  0.1628  0.0750
 1241ERGO    C215982   1.505   8.419   7.511 -0.0002 -0.1458  0.0634
 1242ERGO   ROH15983  10.856   2.136   6.673 -0.1948 -0.1078 -0.0627
 1242ERGO    R115984  10.734   2.294   6.874 -0.1833  0.0374 -0.1668
 1242ERGO    R215985  10.486   2.412   6.841 -0.3710 -0.3165 -0.0976
 1242ERGO    R315986  10.428   2.280   7.071  0.0275 -0.0619  0.1628
 1242ERGO    R415987  10.276   2.531   7.088 -0.3798 -0.2768 -0.1247
 1242ERGO    R515988  10.415   2.452   7.237 -0.1286  0.1861 -0.0974
 1242ERGO    C115989  10.099   2.475   7.448 -0.0107 -0.0146  0.1041
 1242ERGO    C215990   9.965   2.506   7.684 -0.0587  0.0578  0.1078
 1243ERGO   ROH15991   4.294   3.919   6.626  0.2280  0.0180 -0.0614
 1243ERGO    R115992   4.359   4.069   6.857 -0.0751  0.0586  0.0031
 1243ERGO    R215993   4.210   4.059   7.089 -0.1039 -0.2838 -0.0247
 1243ERGO    R315994   4.449   3.998   7.203 -0.0106  0.0941 -0.0060
 1243ERGO    R415995   4.270   4.052   7.429 -0.1729 -0.3508 -0.0140
 1243ERGO    R515996   4.464   4.145   7.391 -0.3265  0.0294  0.0767
 1243ERGO    C115997   4.530   3.991   7.734 -0.1254 -0.0349  0.0098
 1243ERGO    C215998   4.470   4.061   8.058  0.1076  0.1790 -0.4480
 1244ERGO   ROH15999  12.546   5.569   6.554 -0.0445 -0.0640  0.2413
 1244ERGO    R116000  12.509   5.775   6.745 -0.0350 -0.0014  0.1773
 1244ERGO    R216001  12.680   5.990   6.767  0.0234 -0.0410  0.1641
 1244ERGO    R316002  12.451   6.134   6.738  0.0701  0.0128  0.0630
 1244ERGO    R416003  12.652   6.331   6.821  0.0957 -0.0159  0.0437
 1244ERGO    R516004  12.460   6.295   6.916  0.0674  0.0688  0.0081
 1244ERGO    C116005  12.421   6.664   6.826  0.1816  0.0492 -0.1212
 1244ERGO    C216006  12.398   7.046   6.672  0.2114  0.0693  0.0740
 1245ERGO   ROH16007   4.458   9.917   6.140  0.0143 -0.2032  0.1133
 1245ERGO    R116008   4.390   9.863   6.410  0.1065 -0.4021  0.1000
 1245ERGO    R216009   4.547   9.706   6.574  0.4746 -0.0592  0.0989
 1245ERGO    R316010   4.539   9.924   6.736 -0.0652 -0.0845  0.1226
 1245ERGO    R416011   4.653   9.712   6.903  0.1745  0.1032  0.1960
 1245ERGO    R516012   4.481   9.836   6.951 -0.0988 -0.2118  0.0602
 1245ERGO    C116013   4.708   9.920   7.246 -0.5071  0.1740  0.2747
 1245ERGO    C216014   4.821   9.928   7.563 -0.0017 -0.0764 -0.1505
 1246ERGO   ROH16015   8.269  14.447   6.490 -0.1545  0.0533  0.0159
 1246ERGO    R116016   8.234  14.317   6.739 -0.0692  0.0283  0.0147
 1246ERGO    R216017   8.371  14.392   6.966  0.0068  0.0077 -0.0269
 1246ERGO    R316018   8.121  14.410   7.073  0.0412 -0.0063  0.0634
 1246ERGO    R416019   8.299  14.380   7.304  0.1501  0.1693  0.0114
 1246ERGO    R516020   8.125  14.257   7.257  0.1616  0.0906  0.1467
 1246ERGO    C116021   8.023  14.389   7.601  0.2658  0.2503  0.1185
 1246ERGO    C216022   7.939  14.320   7.929  0.1714 -0.0462 -0.0143
 1247ERGO   ROH16023   6.393   2.620   6.786 -0.0093  0.3425  0.1072
 1247ERGO    R116024   6.357   2.776   7.020 -0.2294  0.0943  0.2474
 1247ERGO    R216025   6.215   2.686   7.239  0.0130 -0.3630  0.2417
 1247ERGO    R316026   6.443   2.747   7.372 -0.0436 -0.0307  0.1903
 1247ERGO    R416027   6.253   2.678   7.582  0.0963 -0.2137  0.2355
 1247ERGO    R516028   6.370   2.861   7.569 -0.1453 -0.0728  0.1672
 1247ERGO    C116029   6.490   2.731   7.907  0.0917  0.1853  0.1837
 1247ERGO    C216030   6.459   2.463   8.127  0.0012  0.3203  0.1337
 1248ERGO   ROH16031   5.652   1.983   6.745  0.0650 -0.0723 -0.0123
 1248ERGO    R116032   5.611   2.162   6.961  0.0916 -0.0892  0.0060
 1248ERGO    R216033   5.382   2.314   6.986  0.1089 -0.0722  0.0302
 1248ERGO    R316034   5.370   2.198   7.232  0.1083 -0.0914  0.0219
 1248ERGO    R416035   5.149   2.391   7.230 -0.0057 -0.2172 -0.0314
 1248ERGO    R516036   5.308   2.376   7.379 -0.0366 -0.1319  0.0135
 1248ERGO    C116037   5.003   2.326   7.602 -0.0730 -0.3197 -0.0749
 1248ERGO    C216038   4.719   2.405   7.700 -0.2221 -0.0977 -0.0671
 1249ERGO   ROH16039  13.502   5.569   6.543 -0.2540  0.0695 -0.0548
 1249ERGO    R116040  13.549   5.504   6.815 -0.1264  0.0540 -0.0788
 1249ERGO    R216041  13.740   5.633   6.968 -0.0114  0.0099 -0.1721
 1249ERGO    R316042  13.530   5.676   7.135  0.0811  0.0572 -0.0693
 1249ERGO    R416043  13.766   5.685   7.308  0.1427 -0.1662 -0.1559
 1249ERGO    R516044  13.590   5.561   7.336  0.0839 -0.0695 -0.1477
 1249ERGO    C116045  13.584   5.756   7.664  0.3190 -0.2244 -0.0501
 1249ERGO    C216046  13.465   5.883   8.098  0.0205 -0.0573  0.1876
 1250ERGO   ROH16047  14.396  15.234   6.473  0.2193 -0.2542  0.0107
 1250ERGO    R116048  14.494  15.124   6.715  0.1719  0.0040  0.1500
 1250ERGO    R216049  14.572  15.281   6.929 -0.2484  0.2242  0.1474
 1250ERGO    R316050  14.395  15.126   7.065 -0.1408  0.0241  0.0654
 1250ERGO    R416051  14.602  15.191   7.261 -0.2752  0.2275  0.1515
 1250ERGO    R516052  14.531  14.992   7.209 -0.0488  0.1522  0.1042
 1250ERGO    C116053  14.453  14.992   7.582 -0.1898  0.0417  0.0769
 1250ERGO    C216054  14.474  14.833   7.908  0.2261 -0.1629  0.2934
 1251ERGO   ROH16055  10.820  14.136   8.203 -0.0588  0.0122 -0.0773
 1251ERGO    R116056  10.816  14.323   8.416  0.0240  0.0412 -0.1009
 1251ERGO    R216057  10.589  14.464   8.484  0.0700  0.1033 -0.0776
 1251ERGO    R316058  10.638  14.361   8.731  0.0907  0.1247 -0.0727
 1251ERGO    R416059  10.468  14.595   8.781  0.1195  0.1484 -0.0773
 1251ERGO    R516060  10.662  14.553   8.872  0.1276  0.1385 -0.0968
 1251ERGO    C116061  10.444  14.574   9.185  0.1679  0.1946 -0.0725
 1251ERGO    C216062  10.387  14.542   9.510  0.0410 -0.0236  0.0550
 1252ERGO   ROH16063  12.413   8.640   6.402  0.0778  0.0145  0.1076
 1252ERGO    R116064  12.362   8.446   6.602  0.0937  0.0069  0.1049
 1252ERGO    R216065  12.397   8.497   6.871  0.0500  0.0188  0.1094
 1252ERGO    R316066  12.139   8.413   6.887  0.0656 -0.0343  0.0780
 1252ERGO    R416067  12.255   8.350   7.150  0.0363  0.0255  0.1055
 1252ERGO    R516068  12.151   8.212   7.017  0.0877 -0.0144  0.1065
 1252ERGO    C116069  11.930   8.186   7.327  0.0429 -0.0205  0.0737
 1252ERGO    C216070  11.832   8.057   7.674  0.1474 -0.0328  0.0221
 1253ERGO   ROH16071  10.335   1.967   6.647 -0.0183 -0.0484  0.0354
 1253ERGO    R116072  10.390   1.815   6.880  0.0746 -0.0809 -0.0069
 1253ERGO    R216073  10.631   1.832   7.015  0.0095  0.1435  0.0846
 1253ERGO    R316074  10.470   1.885   7.228 -0.1294 -0.1286  0.0514
 1253ERGO    R416075  10.686   1.718   7.336  0.0077  0.0349  0.0461
 1253ERGO    R516076  10.472   1.682   7.355  0.0329 -0.1965 -0.0533
 1253ERGO    C116077  10.568   1.701   7.724 -0.1237 -0.2838 -0.0075
 1253ERGO    C216078  10.733   1.738   8.101 -0.3286  0.2433 -0.1010
 1254ERGO   ROH16079   9.037   6.097   6.807  0.1452  0.1273 -0.0197
 1254ERGO    R116080   8.971   6.120   7.082  0.1513  0.2726 -0.0299
 1254ERGO    R216081   8.927   5.900   7.243 -0.2010  0.3632  0.0015
 1254ERGO    R316082   9.118   6.015   7.398 -0.0370  0.0990  0.0030
 1254ERGO    R416083   9.004   5.804   7.566 -0.3600  0.2687  0.0126
 1254ERGO    R516084   9.024   6.015   7.618 -0.0557  0.2500 -0.0014
 1254ERGO    C116085   9.228   5.857   7.900 -0.2985 -0.0342  0.0204
 1254ERGO    C216086   9.365   5.775   8.228  0.3826 -0.3328 -0.2207
 1255ERGO   ROH16087   4.731  15.908   5.981 -0.1137  0.0493  0.0683
 1255ERGO    R116088   4.689  15.801   6.239  0.0349  0.0748  0.1036
 1255ERGO    R216089   4.736  15.535   6.300 -0.0979  0.0414  0.0569
 1255ERGO    R316090   4.893  15.640   6.495  0.1462 -0.0713 -0.0736
 1255ERGO    R416091   4.792  15.389   6.608  0.1389 -0.0489 -0.0269
 1255ERGO    R516092   4.779  15.587   6.699  0.3202 -0.0595  0.0298
 1255ERGO    C116093   4.973  15.403   6.971  0.5059 -0.2073 -0.1983
 1255ERGO    C216094   5.204  15.361   7.293  0.0389 -0.1951 -0.0213
 1256ERGO   ROH16095  15.745   8.192   6.815 -0.0856 -0.2222  0.0032
 1256ERGO    R116096  15.719   8.399   7.005  0.0749 -0.0769 -0.1297
 1256ERGO    R216097  15.657   8.351   7.270 -0.0961  0.1496 -0.1268
 1256ERGO    R316098  15.882   8.495   7.316  0.0561 -0.0859 -0.1164
 1256ERGO    R416099  15.780   8.430   7.583 -0.0907  0.1096 -0.1189
 1256ERGO    R516100  15.829   8.629   7.508  0.1514  0.0352 -0.1710
 1256ERGO    C116101  16.064   8.611   7.809  0.0553 -0.1347 -0.1044
 1256ERGO    C216102  16.235   8.629   8.121 -0.1573 -0.3193 -0.1544
 1257ERGO   ROH16103   7.426  16.200   5.878  0.0808 -0.3314  0.0079
 1257ERGO    R116104   7.448  16.156   6.157  0.0388 -0.1504  0.0409
 1257ERGO    R216105   7.490  16.362   6.336  0.0589 -0.0365 -0.0887
 1257ERGO    R316106   7.268  16.260   6.456  0.0228  0.0865 -0.0499
 1257ERGO    R416107   7.390  16.432   6.660  0.1244  0.0490 -0.0869
 1257ERGO    R516108   7.335  16.222   6.683  0.0258  0.0818 -0.0543
 1257ERGO    C116109   7.124  16.377   6.960  0.1286  0.2143 -0.0493
 1257ERGO    C216110   6.849  16.424   7.182  0.0348  0.3294 -0.0688
 1258ERGO   ROH16111  13.008  15.959   7.788 -0.2736 -0.1519  0.1152
 1258ERGO    R116112  13.017  16.154   7.992 -0.0053 -0.0809  0.0418
 1258ERGO    R216113  13.102  16.413   7.947 -0.1095 -0.0720 -0.1745
 1258ERGO    R316114  12.862  16.477   8.057  0.0294 -0.0886  0.1538
 1258ERGO    R416115  12.989  16.735   8.003 -0.2005 -0.0815 -0.3089
 1258ERGO    R516116  12.907  16.668   8.193  0.1431  0.0685 -0.1097
 1258ERGO    C116117  12.697  16.982   8.138 -0.1232 -0.1022 -0.0790
 1258ERGO    C216118  12.638  17.379   8.035  0.0262  0.0430 -0.0939
 1259ERGO   ROH16119   1.779   1.516   6.453 -0.2737  0.1091  0.0589
 1259ERGO    R116120   1.941   1.443   6.673 -0.1809  0.1137 -0.0068
 1259ERGO    R216121   1.934   1.577   6.914 -0.1424  0.0665  0.0251
 1259ERGO    R316122   1.888   1.328   7.014 -0.0404  0.0329 -0.0126
 1259ERGO    R416123   1.920   1.498   7.250 -0.2023  0.0188  0.0113
 1259ERGO    R516124   2.029   1.314   7.207 -0.0942  0.0843  0.0265
 1259ERGO    C116125   1.869   1.219   7.540 -0.1413 -0.0405 -0.0322
 1259ERGO    C216126   1.821   0.987   7.795 -0.1333  0.0469  0.0944
 1260ERGO   ROH16127   9.832   4.522   6.641  0.0629 -0.1632 -0.0150
 1260ERGO    R116128   9.906   4.532   6.914  0.0432 -0.0775 -0.0118
 1260ERGO    R216129  10.114   4.689   7.006  0.0558 -0.0670 -0.0485
 1260ERGO    R316130   9.923   4.786   7.174  0.0509  0.0115 -0.0996
 1260ERGO    R416131  10.177   4.853   7.304  0.0387 -0.1109 -0.0211
 1260ERGO    R516132  10.010   4.745   7.393 -0.0351 -0.0379 -0.0766
 1260ERGO    C116133  10.034   5.040   7.634  0.0242 -0.0626 -0.0533
 1260ERGO    C216134  10.014   5.147   7.987 -0.2791  0.2288 -0.0847
 1261ERGO   ROH16135  14.377  11.267   7.124 -0.1241 -0.0575 -0.0469
 1261ERGO    R116136  14.454  11.419   7.350 -0.2747 -0.0923  0.0287
 1261ERGO    R216137  14.383  11.349   7.608 -0.1091 -0.3594  0.0052
 1261ERGO    R316138  14.651  11.364   7.651 -0.1125 -0.0129 -0.0612
 1261ERGO    R416139  14.530  11.433   7.909 -0.1408 -0.2712 -0.0033
 1261ERGO    R516140  14.677  11.550   7.799 -0.3258 -0.0292 -0.0001
 1261ERGO    C116141  14.866  11.495   8.126 -0.1626  0.1054 -0.0706
 1261ERGO    C216142  15.124  11.644   8.350  0.0100  0.2000  0.1856
 1262ERGO   ROH16143  13.415  14.980   6.091  0.2989 -0.1372 -0.0482
 1262ERGO    R116144  13.492  15.084   6.342  0.1423 -0.1278 -0.0033
 1262ERGO    R216145  13.362  15.297   6.461  0.1335 -0.0571 -0.1429
 1262ERGO    R316146  13.340  15.124   6.670 -0.1016 -0.0121 -0.1272
 1262ERGO    R416147  13.317  15.391   6.790  0.3661  0.0469 -0.1380
 1262ERGO    R516148  13.456  15.234   6.849  0.1262 -0.1846 -0.1617
 1262ERGO    C116149  13.269  15.284   7.178  0.2809  0.1495 -0.1205
 1262ERGO    C216150  13.118  15.499   7.326 -0.5779  0.0967 -0.3812
 1263ERGO   ROH16151  17.221  14.769   6.307  0.1260  0.2291  0.1447
 1263ERGO    R116152  17.104  14.845   6.553  0.1802  0.1733  0.1871
 1263ERGO    R216153  16.892  14.708   6.666  0.1272  0.2215  0.1410
 1263ERGO    R316154  17.058  14.693   6.881  0.1353  0.0498  0.1250
 1263ERGO    R416155  16.790  14.656   6.992  0.1109  0.2232  0.1365
 1263ERGO    R516156  16.938  14.802   7.057  0.2270  0.1016  0.1587
 1263ERGO    C116157  16.886  14.612   7.384  0.1091  0.0631  0.1190
 1263ERGO    C216158  16.724  14.306   7.576 -0.0915 -0.0160 -0.3563
 1264ERGO   ROH16159  10.115  14.566   6.172  0.0091 -0.1881 -0.1223
 1264ERGO    R116160  10.232  14.593   6.428  0.0278  0.0421 -0.1526
 1264ERGO    R216161  10.102  14.521   6.660  0.0610  0.2050 -0.0777
 1264ERGO    R316162  10.325  14.372   6.701  0.0923  0.2791  0.0190
 1264ERGO    R416163  10.261  14.486   6.965 -0.1849  0.0707  0.0374
 1264ERGO    R516164  10.452  14.499   6.860 -0.1011  0.2268  0.2151
 1264ERGO    C116165  10.563  14.325   7.181 -0.2986  0.0621  0.1953
 1264ERGO    C216166  10.757  14.149   7.451 -0.0027  0.2887  0.1402
 1265ERGO   ROH16167   3.516   3.338   6.299  0.0269  0.0650 -0.0140
 1265ERGO    R116168   3.582   3.264   6.564  0.0482 -0.0319 -0.0450
 1265ERGO    R216169   3.669   3.446   6.752  0.2275 -0.1259 -0.0295
 1265ERGO    R316170   3.463   3.345   6.898  0.1941 -0.0116  0.0016
 1265ERGO    R416171   3.671   3.404   7.095  0.2182 -0.0435 -0.0200
 1265ERGO    R516172   3.569   3.214   7.068  0.1462 -0.0092  0.0304
 1265ERGO    C116173   3.479   3.285   7.432  0.1814  0.1117  0.0148
 1265ERGO    C216174   3.400   3.228   7.747 -0.2153  0.1329 -0.0569
 1266ERGO   ROH16175  15.890  15.745   6.201  0.1483 -0.1387 -0.0383
 1266ERGO    R116176  16.077  15.650   6.391  0.0599 -0.1698  0.0335
 1266ERGO    R216177  16.177  15.808   6.595  0.1562 -0.1280 -0.0442
 1266ERGO    R316178  16.086  15.606   6.752 -0.0089  0.0246  0.0595
 1266ERGO    R416179  16.274  15.752   6.922  0.1965 -0.1087 -0.0531
 1266ERGO    R516180  16.277  15.539   6.880 -0.0403 -0.1286  0.0258
 1266ERGO    C116181  16.246  15.530   7.260  0.0646  0.0459  0.0391
 1266ERGO    C216182  16.420  15.398   7.579 -0.0708 -0.2028 -0.0164
 1267ERGO   ROH16183  13.070   0.271   6.567  0.0993  0.1572  0.0907
 1267ERGO    R116184  13.067   0.134   6.814  0.1084  0.0245  0.0185
 1267ERGO    R216185  13.277   0.145   6.993  0.0901 -0.0191  0.0465
 1267ERGO    R316186  13.084   0.223   7.167  0.0525 -0.1565  0.0674
 1267ERGO    R416187  13.309   0.146   7.337  0.1111 -0.0211  0.0445
 1267ERGO    R516188  13.104   0.072   7.351  0.1617 -0.1537  0.0554
 1267ERGO    C116189  13.145   0.220   7.700  0.0879 -0.1514  0.0628
 1267ERGO    C216190  13.490   0.368   7.869 -0.0589  0.4626  0.2312
 1268ERGO   ROH16191   2.377  14.233   6.304  0.0151 -0.2110  0.0540
 1268ERGO    R116192   2.295  14.112   6.547  0.0789 -0.0825  0.1411
 1268ERGO    R216193   2.378  14.205   6.794  0.0533  0.1212  0.0790
 1268ERGO    R316194   2.111  14.214   6.844  0.0515  0.0421  0.0807
 1268ERGO    R416195   2.234  14.190   7.108  0.0499  0.0112  0.0721
 1268ERGO    R516196   2.079  14.062   7.026  0.0852 -0.0064  0.0427
 1268ERGO    C116197   1.900  14.190   7.337  0.0462 -0.1273  0.0697
 1268ERGO    C216198   1.748  14.334   7.607  0.0434  0.0645  0.1271
 1269ERGO   ROH16199  10.930   8.998   6.660  0.1402 -0.0808  0.1529
 1269ERGO    R116200  10.836   9.057   6.921  0.1208  0.3053  0.0658
 1269ERGO    R216201  10.863   8.881   7.133 -0.5806  0.2724  0.1646
 1269ERGO    R316202  10.983   9.094   7.252  0.0081 -0.0358  0.1531
 1269ERGO    R416203  10.894   8.926   7.474 -0.5012  0.2571  0.1578
 1269ERGO    R516204  10.850   9.137   7.446  0.1005  0.3809  0.1203
 1269ERGO    C116205  11.025   9.152   7.784  0.0977 -0.0412  0.1431
 1269ERGO    C216206  11.100   9.241   8.260 -0.0410 -0.2601  0.4453
 1270ERGO   ROH16207   9.477   3.577   6.961  0.1449  0.2303 -0.0746
 1270ERGO    R116208   9.448   3.559   7.242  0.1832  0.1188 -0.0776
 1270ERGO    R216209   9.218   3.463   7.362  0.1157  0.2786 -0.0828
 1270ERGO    R316210   9.391   3.294   7.486 -0.0209  0.0499 -0.1960
 1270ERGO    R416211   9.173   3.328   7.677  0.1219  0.3173 -0.0651
 1270ERGO    R516212   9.385   3.359   7.716  0.1912  0.0496 -0.1851
 1270ERGO    C116213   9.310   3.090   7.976 -0.0029  0.1251 -0.1611
 1270ERGO    C216214   9.285   2.991   8.250 -0.0395  0.0892  0.3121
 1271ERGO   ROH16215  13.203   9.086   6.917 -0.0602  0.1229 -0.1251
 1271ERGO    R116216  13.148   9.036   7.190  0.0089  0.1360 -0.1094
 1271ERGO    R216217  13.012   9.216   7.349 -0.0557  0.0883 -0.1186
 1271ERGO    R316218  12.851   9.001   7.397  0.0594  0.0143 -0.0536
 1271ERGO    R416219  12.855   9.150   7.650 -0.0723  0.1428 -0.1147
 1271ERGO    R516220  12.902   8.939   7.623  0.0584  0.1507 -0.0100
 1271ERGO    C116221  12.613   8.911   7.871  0.0261  0.1051 -0.0514
 1271ERGO    C216222  12.515   9.012   8.264  0.0724  0.1968  0.0511
 1272ERGO   ROH16223  17.919   6.596   6.393  0.1812 -0.0528 -0.0331
 1272ERGO    R116224  18.034   6.757   6.596  0.0748  0.1163 -0.1044
 1272ERGO    R216225  17.933   7.005   6.665 -0.2320 -0.0163 -0.0606
 1272ERGO    R316226  17.926   6.897   6.914  0.0557 -0.0179 -0.0509
 1272ERGO    R416227  17.999   7.178   6.956 -0.1821  0.0559 -0.1147
 1272ERGO    R516228  18.108   7.004   7.029  0.0412  0.1596 -0.1882
 1272ERGO    C116229  18.032   7.179   7.360  0.1170  0.0964 -0.1372
 1272ERGO    C216230  17.895   7.285   7.658  0.1804 -0.0343  0.0156
 1273ERGO   ROH16231   5.568   0.885   6.361 -0.0993 -0.2601 -0.0106
 1273ERGO    R116232   5.479   1.061   6.564 -0.3830 -0.2249 -0.1587
 1273ERGO    R216233   5.252   1.014   6.714 -0.1797 -0.6022  0.0519
 1273ERGO    R316234   5.422   1.044   6.923 -0.0900  0.0517 -0.0953
 1273ERGO    R416235   5.154   1.076   7.039 -0.1052 -0.5858  0.0703
 1273ERGO    R516236   5.321   1.215   7.057 -0.4639 -0.0996 -0.1750
 1273ERGO    C116237   5.258   1.140   7.426  0.0223  0.0377 -0.0571
 1273ERGO    C216238   4.938   1.113   7.640 -0.2596 -0.4439  0.1491
 1274ERGO   ROH16239  15.911  17.876   6.146  0.0125 -0.1528 -0.0894
 1274ERGO    R116240  15.718  17.897   6.352  0.0188 -0.0895 -0.0894
 1274ERGO    R216241  15.769  17.821   6.612  0.0127 -0.0511 -0.0766
 1274ERGO    R316242  15.685  18.074   6.668  0.0497 -0.0293 -0.1197
 1274ERGO    R416243  15.538  17.904   6.856 -0.1339  0.0030 -0.2325
 1274ERGO    R516244  15.452  18.050   6.718  0.0062  0.0375 -0.2841
 1274ERGO    C116245  15.325  18.189   7.049 -0.1844  0.0546 -0.3638
 1274ERGO    C216246  15.263  18.260   7.327 -0.0320 -0.0804  0.0840
 1275ERGO   ROH16247   4.457   3.688   6.313  0.0116  0.0347 -0.0784
 1275ERGO    R116248   4.513   3.560   6.558  0.1086  0.1119 -0.0596
 1275ERGO    R216249   4.755   3.588   6.689  0.0925  0.3040 -0.0704
 1275ERGO    R316250   4.597   3.662   6.897  0.0443  0.2245 -0.0759
 1275ERGO    R416251   4.867   3.647   7.010  0.0187  0.1373 -0.0130
 1275ERGO    R516252   4.689   3.547   7.086 -0.0168  0.1207 -0.1062
 1275ERGO    C116253   4.784   3.751   7.393 -0.0695 -0.0344  0.0152
 1275ERGO    C216254   4.945   3.651   7.649  0.3315  0.0738  0.0200
 1276ERGO   ROH16255   4.729   8.276   6.498 -0.2034 -0.3280  0.1258
 1276ERGO    R116256   4.755   8.305   6.779 -0.2332 -0.2100  0.1173
 1276ERGO    R216257   4.788   8.552   6.900 -0.1317 -0.1658  0.0095
 1276ERGO    R316258   4.572   8.473   7.045 -0.1946  0.0051  0.0091
 1276ERGO    R416259   4.645   8.734   7.157  0.0945 -0.1184  0.1039
 1276ERGO    R516260   4.618   8.548   7.267 -0.0851 -0.1337  0.0316
 1276ERGO    C116261   4.358   8.766   7.442  0.1672  0.0699  0.1584
 1276ERGO    C216262   4.212   9.055   7.512  0.0965 -0.1122  0.0199
 1277ERGO   ROH16263  10.826  10.779   6.335 -0.0382 -0.0356 -0.1074
 1277ERGO    R116264  10.592  10.794   6.494 -0.0599  0.0623 -0.1477
 1277ERGO    R216265  10.338  10.780   6.387 -0.0450 -0.0331 -0.1709
 1277ERGO    R316266  10.308  10.579   6.567 -0.0540  0.0938 -0.0294
 1277ERGO    R416267  10.072  10.748   6.605 -0.0981  0.0782 -0.2186
 1277ERGO    R516268  10.212  10.685   6.759 -0.1265  0.2189 -0.1327
 1277ERGO    C116269   9.889  10.541   6.902 -0.1374  0.2620 -0.1135
 1277ERGO    C216270   9.629  10.546   7.076  0.0709  0.2611 -0.0846
 1278ERGO   ROH16271   0.863   9.193   6.394  0.2261  0.0858  0.0961
 1278ERGO    R116272   0.996   9.247   6.638  0.2785 -0.0485  0.0995
 1278ERGO    R216273   0.874   9.383   6.847  0.4431  0.1724  0.0619
 1278ERGO    R316274   0.947   9.163   6.989  0.1163  0.0913  0.1108
 1278ERGO    R416275   0.884   9.364   7.192  0.3879  0.2176  0.0651
 1278ERGO    R516276   1.069   9.251   7.176  0.2257 -0.0506  0.1034
 1278ERGO    C116277   0.958   9.148   7.526  0.0490  0.1677  0.1128
 1278ERGO    C216278   0.892   9.086   7.769 -0.0673  0.0487  0.0384
 1279ERGO   ROH16279  13.137   3.933   6.530 -0.0631 -0.0915 -0.0104
 1279ERGO    R116280  13.023   3.916   6.788  0.0292 -0.1446  0.0269
 1279ERGO    R216281  13.094   3.720   6.968  0.2523 -0.0528  0.0396
 1279ERGO    R316282  13.142   3.932   7.132  0.1195  0.0181 -0.0101
 1279ERGO    R416283  13.079   3.709   7.313 -0.0118  0.0869  0.0351
 1279ERGO    R516284  12.983   3.906   7.310 -0.0186  0.0848 -0.1194
 1279ERGO    C116285  13.115   3.902   7.668 -0.2903  0.2348 -0.0140
 1279ERGO    C216286  13.214   3.838   7.950  0.1588  0.1502  0.2446
 1280ERGO   ROH16287   5.344  11.243   6.502 -0.0950  0.0813 -0.0049
 1280ERGO    R116288   5.373  11.305   6.777  0.0312  0.0839 -0.0179
 1280ERGO    R216289   5.157  11.351   6.943  0.1034  0.0209  0.0966
 1280ERGO    R316290   5.272  11.156   7.093  0.2364  0.0490  0.0327
 1280ERGO    R416291   5.109  11.309   7.283 -0.1288 -0.3160  0.0271
 1280ERGO    R516292   5.321  11.262   7.302 -0.0790 -0.0504  0.1634
 1280ERGO    C116293   5.190  11.101   7.622 -0.1393 -0.4855 -0.0735
 1280ERGO    C216294   5.023  10.918   7.827  0.0654 -0.1644 -0.3208
 1281ERGO   ROH16295  11.762   9.459   6.377  0.1959  0.1340  0.0020
 1281ERGO    R116296  11.836   9.318   6.611  0.3753  0.1506 -0.0442
 1281ERGO    R216297  12.013   9.421   6.797  0.0239  0.4494  0.1302
 1281ERGO    R316298  11.810   9.371   6.971  0.0222 -0.1380 -0.0200
 1281ERGO    R416299  12.053   9.368   7.136 -0.0472  0.4276  0.1356
 1281ERGO    R516300  11.902   9.211   7.124  0.3478  0.0279 -0.0244
 1281ERGO    C116301  11.886   9.289   7.497 -0.0902 -0.1365 -0.0022
 1281ERGO    C216302  11.868   9.424   7.842  0.0076 -0.1873 -0.0111
 1282ERGO   ROH16303   4.664   1.810   6.580  0.2515 -0.2472 -0.2556
 1282ERGO    R116304   4.594   1.612   6.769  0.2262 -0.1511 -0.1636
 1282ERGO    R216305   4.773   1.512   6.955  0.1767  0.0059 -0.0314
 1282ERGO    R316306   4.580   1.585   7.132  0.0873  0.0636 -0.1507
 1282ERGO    R416307   4.740   1.386   7.275  0.0565  0.1505  0.0146
 1282ERGO    R516308   4.524   1.383   7.246  0.0669  0.1070 -0.0799
 1282ERGO    C116309   4.540   1.381   7.627 -0.0976  0.2889 -0.0705
 1282ERGO    C216310   4.552   1.428   7.989  0.1069 -0.0646 -0.0065
 1283ERGO   ROH16311   9.550  12.038   6.604  0.0934  0.0675 -0.0343
 1283ERGO    R116312   9.401  12.091   6.839  0.1143 -0.0432  0.0056
 1283ERGO    R216313   9.445  11.959   7.077  0.2885  0.0001  0.0021
 1283ERGO    R316314   9.470  12.211   7.175  0.1145  0.0271 -0.0205
 1283ERGO    R416315   9.462  12.039   7.413 -0.1094  0.0842  0.0073
 1283ERGO    R516316   9.335  12.212   7.373 -0.1072  0.0410 -0.1722
 1283ERGO    C116317   9.496  12.322   7.700 -0.5044  0.1584 -0.0107
 1283ERGO    C216318   9.460  12.345   8.058 -0.1899 -0.2763  0.0582
 1284ERGO   ROH16319  11.612   2.391   6.805  0.1475 -0.1142  0.1676
 1284ERGO    R116320  11.478   2.369   7.053  0.1400 -0.0410  0.1683
 1284ERGO    R216321  11.586   2.464   7.289  0.0553  0.1904  0.1077
 1284ERGO    R316322  11.350   2.598   7.305 -0.0456  0.0420  0.0073
 1284ERGO    R416323  11.393   2.491   7.575  0.2016  0.5060  0.1826
 1284ERGO    R516324  11.215   2.465   7.451  0.1392  0.1602  0.3099
 1284ERGO    C116325  11.060   2.633   7.756  0.1920  0.5504  0.1322
 1284ERGO    C216326  10.904   2.855   7.966 -0.0059  0.0459  0.2453
 1285ERGO   ROH16327  13.725  11.022   6.428  0.0021 -0.2225 -0.0944
 1285ERGO    R116328  13.516  10.938   6.599 -0.0757 -0.0955 -0.1268
 1285ERGO    R216329  13.560  10.869   6.863 -0.1599 -0.1169 -0.1233
 1285ERGO    R316330  13.367  11.054   6.910 -0.0599 -0.0038 -0.1512
 1285ERGO    R416331  13.410  10.925   7.169 -0.3382 -0.2098 -0.1916
 1285ERGO    R516332  13.219  10.949   7.066 -0.2525 -0.0050 -0.3226
 1285ERGO    C116333  13.141  11.132   7.392 -0.3483 -0.1577 -0.2576
 1285ERGO    C216334  13.141  11.338   7.699  0.1370 -0.3199 -0.0014
 1286ERGO   ROH16335  16.850   0.106   6.123 -0.2191  0.1234  0.0108
 1286ERGO    R116336  16.747   0.245   6.347 -0.1548  0.0025  0.1187
 1286ERGO    R216337  16.701   0.123   6.591  0.1442 -0.0777  0.1433
 1286ERGO    R316338  16.859   0.324   6.684  0.0581  0.0384  0.0403
 1286ERGO    R416339  16.722   0.221   6.921  0.1480  0.0676  0.1001
 1286ERGO    R516340  16.728   0.428   6.855  0.0350  0.0421  0.0172
 1286ERGO    C116341  16.882   0.466   7.202  0.0695  0.2612 -0.0217
 1286ERGO    C216342  17.115   0.462   7.510 -0.0090  0.1056 -0.0101
 1287ERGO   ROH16343  11.567   1.276   6.829  0.0586  0.1058 -0.0538
 1287ERGO    R116344  11.515   1.310   7.105 -0.0240  0.1234 -0.0711
 1287ERGO    R216345  11.714   1.296   7.296 -0.1176 -0.1025  0.0119
 1287ERGO    R316346  11.620   1.541   7.367  0.1003 -0.0131  0.0015
 1287ERGO    R416347  11.702   1.417   7.620 -0.2272 -0.1755  0.0358
 1287ERGO    R516348  11.507   1.504   7.575 -0.1013  0.0548 -0.0924
 1287ERGO    C116349  11.606   1.718   7.874 -0.0865 -0.1342  0.0399
 1287ERGO    C216350  11.711   1.810   8.220  0.3344 -0.0088  0.0261
 1288ERGO   ROH16351   5.754   3.688   6.451 -0.1886 -0.1713  0.0327
 1288ERGO    R116352   5.746   3.770   6.722 -0.1288 -0.1665  0.0333
 1288ERGO    R216353   5.734   3.590   6.931  0.0166 -0.1661  0.0440
 1288ERGO    R316354   5.953   3.724   7.018 -0.0082 -0.0734 -0.0362
 1288ERGO    R416355   5.846   3.595   7.258 -0.1365  0.2661  0.0959
 1288ERGO    R516356   5.891   3.807   7.234 -0.1004  0.2313 -0.1737
 1288ERGO    C116357   6.117   3.724   7.530 -0.2489  0.6048  0.0508
 1288ERGO    C216358   6.161   3.854   7.821 -0.0701 -0.3410 -0.0036
 1289ERGO   ROH16359   9.644   1.169   6.804 -0.0073 -0.0186  0.1106
 1289ERGO    R116360   9.726   1.145   7.073 -0.0413 -0.0483  0.1180
 1289ERGO    R216361   9.653   1.327   7.268 -0.0126 -0.0352  0.1141
 1289ERGO    R316362   9.565   1.105   7.397 -0.0845 -0.0149  0.1012
 1289ERGO    R416363   9.577   1.311   7.605  0.0072 -0.0350  0.1191
 1289ERGO    R516364   9.671   1.114   7.612 -0.0632 -0.0713  0.0947
 1289ERGO    C116365   9.450   1.092   7.922 -0.0485 -0.0159  0.1097
 1289ERGO    C216366   9.338   1.152   8.181  0.0022  0.0800  0.0177
 1290ERGO   ROH16367   7.480   1.335   6.270  0.2167 -0.1827 -0.1939
 1290ERGO    R116368   7.458   1.204   6.520  0.1377  0.1686 -0.0097
 1290ERGO    R216369   7.535   0.941   6.558 -0.3390  0.0509  0.2598
 1290ERGO    R316370   7.685   1.049   6.758  0.0140  0.0272  0.0153
 1290ERGO    R416371   7.706   0.760   6.798 -0.3347  0.0356  0.2442
 1290ERGO    R516372   7.645   0.906   6.946  0.0161  0.2478  0.1817
 1290ERGO    C116373   7.946   0.754   7.124 -0.0008  0.0045  0.0054
 1290ERGO    C216374   8.278   0.637   7.127  0.5442  0.1167  0.0061
 1291ERGO   ROH16375  12.629  12.277   6.592 -0.3358 -0.1407  0.0311
 1291ERGO    R116376  12.478  12.300   6.831 -0.1146 -0.1265  0.1713
 1291ERGO    R216377  12.595  12.293   7.081  0.1374  0.0376  0.0608
 1291ERGO    R316378  12.465  12.529   7.113  0.0395 -0.0196  0.0941
 1291ERGO    R416379  12.557  12.458   7.382  0.4167  0.1724  0.0256
 1291ERGO    R516380  12.353  12.508   7.324  0.3104  0.0235  0.2490
 1291ERGO    C116381  12.413  12.777   7.587  0.4875  0.1972  0.0364
 1291ERGO    C216382  12.504  12.993   7.742 -0.0334 -0.0368 -0.0346
 1292ERGO   ROH16383   9.689  13.335   6.222  0.3277 -0.1113 -0.0397
 1292ERGO    R116384   9.611  13.232   6.474  0.1901 -0.0177 -0.0430
 1292ERGO    R216385   9.778  13.075   6.629  0.0968  0.0143  0.0919
 1292ERGO    R316386   9.725  13.263   6.818  0.0236  0.0859  0.0045
 1292ERGO    R416387   9.840  13.039   6.967  0.2654  0.2638  0.0903
 1292ERGO    R516388   9.650  13.138   7.008  0.2007  0.1362  0.1100
 1292ERGO    C116389   9.825  13.195   7.342  0.2949  0.4764  0.0074
 1292ERGO    C216390   9.834  13.244   7.683  0.1425  0.1098 -0.0061
 1293ERGO   ROH16391  11.559   7.713   6.631  0.0674  0.0519 -0.0992
 1293ERGO    R116392  11.529   7.580   6.878 -0.1937  0.1099 -0.0983
 1293ERGO    R216393  11.697   7.624   7.093 -0.1697 -0.1380 -0.0698
 1293ERGO    R316394  11.464   7.675   7.224 -0.1240  0.2284 -0.1156
 1293ERGO    R416395  11.662   7.639   7.437 -0.2202 -0.1644 -0.0727
 1293ERGO    R516396  11.472   7.534   7.417 -0.4054  0.1573 -0.1457
 1293ERGO    C116397  11.423   7.694   7.759 -0.2067  0.1640 -0.1173
 1293ERGO    C216398  11.409   7.808   8.080 -0.2133 -0.0791  0.1248
 1294ERGO   ROH16399   9.809  12.374   6.428  0.0485  0.2927 -0.0683
 1294ERGO    R116400   9.838  12.441   6.702 -0.0850  0.2663 -0.0468
 1294ERGO    R216401  10.076  12.409   6.838 -0.1923  0.0956  0.1117
 1294ERGO    R316402  10.039  12.672   6.897 -0.0497  0.1219  0.0878
 1294ERGO    R416403  10.172  12.560   7.134 -0.0195  0.1031  0.0533
 1294ERGO    R516404   9.985  12.673   7.131  0.0346  0.1867  0.1046
 1294ERGO    C116405  10.193  12.894   7.362  0.2150  0.1323 -0.0032
 1294ERGO    C216406  10.282  12.911   7.729 -0.0763  0.2228 -0.2101
 1295ERGO   ROH16407  13.363   8.251   6.663 -0.1656  0.2778 -0.0537
 1295ERGO    R116408  13.274   8.110   6.892  0.0651  0.1616 -0.0320
 1295ERGO    R216409  13.445   8.031   7.094  0.2364  0.2572 -0.1355
 1295ERGO    R316410  13.270   8.166   7.251  0.2093  0.0896 -0.0187
 1295ERGO    R416411  13.409   7.985   7.435  0.3558  0.0786 -0.1453
 1295ERGO    R516412  13.193   8.004   7.409  0.3404 -0.0237 -0.0727
 1295ERGO    C116413  13.223   8.086   7.781  0.3999 -0.1828 -0.0413
 1295ERGO    C216414  12.993   8.025   8.047 -0.0581 -0.0804  0.0080
 1296ERGO   ROH16415  11.716   3.384   6.490  0.0480 -0.2281  0.0092
 1296ERGO    R116416  11.636   3.510   6.731  0.0482 -0.1517 -0.0302
 1296ERGO    R216417  11.544   3.367   6.949  0.0115 -0.0799  0.0016
 1296ERGO    R316418  11.740   3.502   7.080  0.0215 -0.0728 -0.0204
 1296ERGO    R416419  11.580   3.379   7.293  0.0499 -0.0764 -0.0024
 1296ERGO    R516420  11.632   3.590   7.275  0.0407 -0.0754 -0.0090
 1296ERGO    C116421  11.785   3.512   7.616  0.0814 -0.0679 -0.0254
 1296ERGO    C216422  11.872   3.627   7.911  0.2462 -0.2725 -0.0098
 1297ERGO   ROH16423   8.707  13.155   6.105  0.1988  0.1431  0.1485
 1297ERGO    R116424   8.724  13.215   6.381 -0.0043  0.2409  0.1409
 1297ERGO    R216425   8.526  13.353   6.516 -0.2386  0.0358  0.0088
 1297ERGO    R316426   8.532  13.137   6.681 -0.0513  0.0885  0.0734
 1297ERGO    R416427   8.451  13.360   6.853 -0.1329  0.1008  0.0314
 1297ERGO    R516428   8.617  13.223   6.888 -0.0333  0.2100  0.0200
 1297ERGO    C116429   8.414  13.161   7.205  0.1045  0.1881  0.1052
 1297ERGO    C216430   8.324  13.177   7.479 -0.0317 -0.0979  0.0524
 1298ERGO   ROH16431   0.002  14.837   6.181  0.0150  0.0520 -0.1021
 1298ERGO    R116432   0.081  14.881   6.449  0.0715 -0.3316 -0.0522
 1298ERGO    R216433  -0.021  15.086   6.603  0.4709 -0.2439  0.0980
 1298ERGO    R316434  -0.081  14.884   6.775  0.0319 -0.2702 -0.0705
 1298ERGO    R416435  -0.091  15.127   6.939  0.1832 -0.3328  0.0527
 1298ERGO    R516436   0.025  14.947   6.980 -0.0853 -0.5158  0.0762
 1298ERGO    C116437  -0.188  14.961   7.296 -0.3963 -0.4095 -0.1319
 1298ERGO    C216438  -0.361  15.083   7.548 -0.1444 -0.1863 -0.0426
 1299ERGO   ROH16439   7.222  12.574   6.177  0.2977  0.0010 -0.0425
 1299ERGO    R116440   7.180  12.618   6.453  0.3549 -0.0191 -0.0309
 1299ERGO    R216441   6.930  12.601   6.571  0.3117  0.3799 -0.0588
 1299ERGO    R316442   7.056  12.426   6.736 -0.0084  0.0975 -0.1037
 1299ERGO    R416443   6.837  12.536   6.897  0.2308  0.5394 -0.0493
 1299ERGO    R516444   7.048  12.531   6.951  0.2451  0.1016 -0.0890
 1299ERGO    C116445   6.900  12.334   7.242 -0.1167  0.3671 -0.0860
 1299ERGO    C216446   6.963  12.090   7.345  0.1610  0.3396  0.1842
 1300ERGO   ROH16447  13.625  17.362   6.398  0.0010 -0.1195 -0.1734
 1300ERGO    R116448  13.651  17.258   6.660 -0.1940 -0.0467 -0.1236
 1300ERGO    R216449  13.888  17.152   6.756 -0.3479 -0.3122 -0.0245
 1300ERGO    R316450  13.850  17.332   6.955 -0.1669 -0.1788 -0.1084
 1300ERGO    R416451  14.054  17.148   7.058 -0.1417 -0.1626 -0.1333
 1300ERGO    R516452  13.867  17.203   7.156 -0.0616 -0.0575 -0.0380
 1300ERGO    C116453  14.116  17.315   7.422  0.1483  0.0496 -0.2756
 1300ERGO    C216454  14.494  17.297   7.610 -0.0749 -0.0210 -0.1173
 1301ERGO   ROH16455   8.796  14.847   6.417 -0.0638 -0.0176 -0.2336
 1301ERGO    R116456   8.723  14.965   6.663  0.0690  0.0570 -0.2293
 1301ERGO    R216457   8.492  14.895   6.799  0.0926  0.1693 -0.1339
 1301ERGO    R316458   8.665  14.850   7.004  0.1483  0.1449 -0.1853
 1301ERGO    R416459   8.399  14.813   7.121  0.1661  0.3438 -0.0663
 1301ERGO    R516460   8.556  14.945   7.195  0.2751  0.2820 -0.1762
 1301ERGO    C116461   8.506  14.722   7.501  0.2611  0.4224 -0.0751
 1301ERGO    C216462   8.413  14.529   7.883  0.0335  0.0989 -0.0468
 1302ERGO   ROH16463  12.303  10.242   6.452 -0.3395 -0.1626  0.1001
 1302ERGO    R116464  12.387  10.204   6.720 -0.2982 -0.2347  0.0764
 1302ERGO    R216465  12.418  10.413   6.898  0.0013 -0.2520  0.0459
 1302ERGO    R316466  12.250  10.264   7.052 -0.1234 -0.0435  0.1162
 1302ERGO    R416467  12.359  10.467   7.234  0.0318 -0.0337  0.0183
 1302ERGO    R516468  12.360  10.250   7.264 -0.1399 -0.0235  0.1277
 1302ERGO    C116469  12.167  10.359   7.574 -0.0675  0.2891  0.0682
 1302ERGO    C216470  12.176  10.330   7.915  0.0344  0.0085 -0.0080
 1303ERGO   ROH16471   0.999   2.670   6.267 -0.0011 -0.0891 -0.0690
 1303ERGO    R116472   0.835   2.847   6.415 -0.0192 -0.1938  0.0380
 1303ERGO    R216473   0.864   2.884   6.687  0.1498 -0.1586  0.0173
 1303ERGO    R316474   0.884   3.146   6.617 -0.0807 -0.1485 -0.0139
 1303ERGO    R416475   0.826   3.150   6.904  0.2378 -0.1771  0.0551
 1303ERGO    R516476   0.716   3.255   6.748  0.0002 -0.2440  0.1725
 1303ERGO    C116477   0.821   3.550   6.965  0.0727 -0.1784  0.0478
 1303ERGO    C216478   0.892   3.797   7.241  0.0264 -0.0739 -0.3065
 1304ERGO   ROH16479   9.387   5.795   6.887 -0.1435  0.1049  0.0448
 1304ERGO    R116480   9.357   5.756   7.166  0.0263  0.0809  0.0612
 1304ERGO    R216481   9.231   5.534   7.272 -0.2309  0.2411  0.1055
 1304ERGO    R316482   9.463   5.508   7.411 -0.1457 -0.1503 -0.0943
 1304ERGO    R416483   9.255   5.417   7.596 -0.1670  0.3745  0.1493
 1304ERGO    R516484   9.406   5.570   7.635  0.1846  0.0968 -0.0723
 1304ERGO    C116485   9.487   5.326   7.916 -0.0499  0.0848 -0.0127
 1304ERGO    C216486   9.641   5.308   8.276 -0.1804 -0.2101  0.0345
 1305ERGO   ROH16487   7.558   4.672   6.528 -0.2550  0.0097 -0.0041
 1305ERGO    R116488   7.450   4.564   6.767 -0.1741 -0.0281  0.0150
 1305ERGO    R216489   7.609   4.488   6.980 -0.1112  0.0497 -0.0065
 1305ERGO    R316490   7.446   4.655   7.120 -0.1648 -0.0175  0.0133
 1305ERGO    R416491   7.554   4.470   7.321 -0.1297 -0.0335 -0.0132
 1305ERGO    R516492   7.343   4.514   7.284 -0.1410 -0.0792 -0.0212
 1305ERGO    C116493   7.369   4.618   7.650 -0.1906 -0.1450  0.0015
 1305ERGO    C216494   7.538   4.722   7.885 -0.2492  0.4721  0.1761
 1306ERGO   ROH16495  11.385  13.158   6.085  0.1767  0.0529  0.0493
 1306ERGO    R116496  11.437  13.185   6.362  0.1066  0.1016  0.0583
 1306ERGO    R216497  11.321  13.382   6.517 -0.0091  0.0700  0.0157
 1306ERGO    R316498  11.244  13.170   6.670  0.0456  0.0513  0.0170
 1306ERGO    R416499  11.269  13.392   6.859  0.1143  0.0201  0.0363
 1306ERGO    R516500  11.365  13.197   6.874  0.1177  0.0206 -0.0239
 1306ERGO    C116501  11.168  13.199   7.201  0.2374 -0.0266  0.0495
 1306ERGO    C216502  11.125  13.136   7.469  0.0941 -0.0080  0.0630
 1307ERGO   ROH16503  12.878   4.867   6.942 -0.0540 -0.0977  0.1215
 1307ERGO    R116504  12.883   4.904   7.222 -0.1017 -0.1925  0.1369
 1307ERGO    R216505  12.702   5.066   7.354 -0.0036 -0.0728  0.1392
 1307ERGO    R316506  12.659   4.842   7.502 -0.2408 -0.0882  0.0479
 1307ERGO    R416507  12.581   5.064   7.677  0.0388 -0.0791  0.1539
 1307ERGO    R516508  12.722   4.905   7.724 -0.1394 -0.2613  0.0655
 1307ERGO    C116509  12.469   4.852   8.005 -0.1593 -0.0972  0.0768
 1307ERGO    C216510  12.158   4.927   8.164 -0.1581 -0.1186  0.0215
 1308ERGO   ROH16511  11.180   2.474   6.624  0.0231 -0.0104  0.1790
 1308ERGO    R116512  11.108   2.627   6.851 -0.0122 -0.0141  0.1705
 1308ERGO    R216513  10.851   2.720   6.893  0.0037  0.0801  0.0761
 1308ERGO    R316514  10.879   2.593   7.132 -0.1432  0.0337  0.0695
 1308ERGO    R416515  10.660   2.784   7.174 -0.1654  0.0214 -0.0234
 1308ERGO    R516516  10.841   2.764   7.295 -0.2413 -0.0023  0.0819
 1308ERGO    C116517  10.576   2.702   7.562 -0.4018 -0.0563 -0.0875
 1308ERGO    C216518  10.518   2.587   7.804  0.0902  0.0454 -0.0760
 1309ERGO   ROH16519  13.865   9.766   6.943  0.1922 -0.0827  0.0732
 1309ERGO    R116520  13.745   9.842   7.188  0.1098 -0.1249  0.0469
 1309ERGO    R216521  13.892   9.919   7.408  0.0307  0.0826  0.0319
 1309ERGO    R316522  13.735  10.140   7.396 -0.1820 -0.0697 -0.0411
 1309ERGO    R416523  13.813  10.120   7.678  0.0379  0.2295 -0.0750
 1309ERGO    R516524  13.610  10.136   7.600 -0.0343 -0.0208  0.0519
 1309ERGO    C116525  13.619  10.445   7.824 -0.1576  0.1720 -0.2057
 1309ERGO    C216526  13.799  10.702   8.063  0.1539  0.1135 -0.0081
 1310ERGO   ROH16527   9.150   1.918   7.157 -0.4821 -0.0062 -0.1679
 1310ERGO    R116528   9.064   1.745   7.364 -0.3388  0.1262  0.0045
 1310ERGO    R216529   9.240   1.628   7.542 -0.1879  0.0600 -0.1880
 1310ERGO    R316530   9.077   1.742   7.727  0.1360  0.2396 -0.0032
 1310ERGO    R416531   9.138   1.476   7.835 -0.2803  0.0381 -0.2306
 1310ERGO    R516532   8.939   1.561   7.804 -0.1524  0.4311 -0.0469
 1310ERGO    C116533   8.925   1.494   8.180 -0.0302  0.1940 -0.0820
 1310ERGO    C216534   8.796   1.233   8.352 -0.0442 -0.0469 -0.1057
 1311ERGO   ROH16535  14.206  11.230   6.248 -0.0267  0.2020  0.0189
 1311ERGO    R116536  14.163  11.047   6.459  0.0458  0.1249 -0.0327
 1311ERGO    R216537  14.370  10.929   6.599  0.0929  0.2376 -0.0063
 1311ERGO    R316538  14.240  11.029   6.815 -0.0332  0.1003 -0.0167
 1311ERGO    R416539  14.445  10.853   6.927 -0.0533  0.0840 -0.0070
 1311ERGO    R516540  14.231  10.846   6.969 -0.0729  0.0189 -0.1143
 1311ERGO    C116541  14.366  10.903   7.322 -0.2567 -0.1343 -0.0174
 1311ERGO    C216542  14.560  10.906   7.521  0.2381  0.0825 -0.2468
 1312ERGO   ROH16543  12.546  11.206   6.307  0.0768 -0.1454  0.1522
 1312ERGO    R116544  12.621  11.350   6.539  0.1198  0.0745  0.0051
 1312ERGO    R216545  12.706  11.225   6.770 -0.0401  0.2810  0.1797
 1312ERGO    R316546  12.922  11.388   6.741  0.0931  0.0842  0.0430
 1312ERGO    R416547  12.920  11.319   7.025 -0.0221  0.3978  0.1224
 1312ERGO    R516548  12.925  11.520   6.941  0.1507  0.3040 -0.0989
 1312ERGO    C116549  13.247  11.526   7.146  0.1133  0.2812 -0.0393
 1312ERGO    C216550  13.518  11.432   7.220  0.1458 -0.1701  0.2352
 1313ERGO   ROH16551  11.695  12.198   6.314 -0.1556  0.0573  0.0627
 1313ERGO    R116552  11.622  12.320   6.559 -0.0566  0.0624  0.0911
 1313ERGO    R216553  11.403  12.239   6.706 -0.1155  0.1929  0.0841
 1313ERGO    R316554  11.586  12.217   6.906 -0.1202  0.0146  0.0693
 1313ERGO    R416555  11.327  12.216   7.043 -0.1072  0.1513  0.0826
 1313ERGO    R516556  11.495  12.348   7.085 -0.0186  0.0244  0.1103
 1313ERGO    C116557  11.455  12.181   7.426 -0.1067 -0.0403  0.0679
 1313ERGO    C216558  11.563  12.353   7.789  0.0755  0.2432  0.1577
 1314ERGO   ROH16559  16.957   3.269   6.226  0.2438  0.0013 -0.0544
 1314ERGO    R116560  17.156   3.264   6.427  0.1503  0.1035  0.0438
 1314ERGO    R216561  17.126   3.394   6.670 -0.0744  0.0141  0.0732
 1314ERGO    R316562  17.181   3.148   6.771  0.0673  0.0250  0.0215
 1314ERGO    R416563  17.149   3.319   7.006 -0.0245 -0.0539  0.0539
 1314ERGO    R516564  17.319   3.191   6.961  0.0426  0.0561  0.0260
 1314ERGO    C116565  17.214   3.044   7.297  0.1375 -0.0832 -0.0060
 1314ERGO    C216566  17.378   3.043   7.667 -0.1201 -0.0372 -0.3110
 1315ERGO   ROH16567   0.061   1.188   5.882 -0.2622 -0.0134  0.0221
 1315ERGO    R116568  -0.083   1.183   6.126 -0.1229 -0.1519  0.1026
 1315ERGO    R216569  -0.096   0.958   6.286  0.2678 -0.1330  0.1627
 1315ERGO    R316570  -0.007   1.130   6.478  0.1420  0.0324  0.0766
 1315ERGO    R416571  -0.180   0.941   6.621  0.3738 -0.1054  0.1920
 1315ERGO    R516572  -0.195   1.159   6.623  0.1456 -0.1142  0.1161
 1315ERGO    C116573  -0.146   1.092   6.996  0.3178  0.0659  0.1282
 1315ERGO    C216574  -0.215   1.013   7.338 -0.0075  0.0764  0.1740
 1316ERGO   ROH16575   9.760   8.531   6.404 -0.2468  0.1704  0.1675
 1316ERGO    R116576   9.754   8.375   6.640 -0.0761  0.0974  0.1253
 1316ERGO    R216577   9.941   8.178   6.693  0.0029  0.1245 -0.0380
 1316ERGO    R316578   9.974   8.317   6.924  0.0994  0.0645 -0.0159
 1316ERGO    R416579  10.076   8.048   6.983  0.1199  0.0496 -0.1254
 1316ERGO    R516580   9.925   8.158   7.097  0.1684  0.0224 -0.0361
 1316ERGO    C116581  10.186   8.103   7.369  0.2786 -0.0502 -0.1556
 1316ERGO    C216582  10.266   8.142   7.668 -0.2614  0.0975  0.2585
 1317ERGO   ROH16583  10.904  16.747   6.800  0.2053  0.1136  0.0448
 1317ERGO    R116584  10.969  16.750   7.076  0.0898 -0.0405  0.0757
 1317ERGO    R216585  10.891  16.954   7.245  0.2418 -0.0000  0.1014
 1317ERGO    R316586  10.787  16.750   7.391 -0.0511  0.0689 -0.0053
 1317ERGO    R416587  10.921  16.921   7.587  0.2842 -0.2736  0.0730
 1317ERGO    R516588  10.952  16.707   7.559 -0.0702 -0.3103 -0.0756
 1317ERGO    C116589  10.841  16.709   7.924  0.0339 -0.3684 -0.0436
 1317ERGO    C216590  10.874  16.793   8.292  0.2746 -0.1042 -0.3550
 1318ERGO   ROH16591   4.178  14.127   6.070  0.0027  0.1504  0.0212
 1318ERGO    R116592   4.109  14.189   6.337  0.0648  0.0433  0.0623
 1318ERGO    R216593   4.167  14.022   6.549  0.1610 -0.0159 -0.0141
 1318ERGO    R316594   4.286  14.244   6.650  0.1402 -0.0251  0.0331
 1318ERGO    R416595   4.247  14.070   6.882 -0.1576  0.0576  0.0557
 1318ERGO    R516596   4.182  14.276   6.863 -0.0669  0.0788 -0.0785
 1318ERGO    C116597   4.405  14.307   7.170 -0.3626  0.0917  0.1406
 1318ERGO    C216598   4.515  14.297   7.409  0.2058  0.2246  0.0349
 1319ERGO   ROH16599  11.650   0.188   6.846  0.2358 -0.0321 -0.1050
 1319ERGO    R116600  11.820   0.088   7.050  0.1238 -0.0519 -0.0208
 1319ERGO    R216601  12.057   0.211   7.118  0.1859 -0.1762 -0.0231
 1319ERGO    R316602  11.949   0.208   7.368  0.1288  0.0056 -0.0429
 1319ERGO    R416603  12.240   0.219   7.411  0.1274  0.0280  0.0098
 1319ERGO    R516604  12.102   0.073   7.496  0.1014  0.0887  0.0855
 1319ERGO    C116605  12.246   0.221   7.816  0.0396  0.3176  0.0104
 1319ERGO    C216606  12.320   0.226   8.167 -0.0273 -0.0223 -0.1214
 1320ERGO   ROH16607   5.754  13.912   6.070 -0.1937 -0.1380 -0.0830
 1320ERGO    R116608   5.735  13.982   6.344 -0.0457 -0.3231 -0.0237
 1320ERGO    R216609   5.562  14.176   6.436  0.2278 -0.1598  0.1611
 1320ERGO    R316610   5.477  13.976   6.600 -0.0046 -0.1791  0.0216
 1320ERGO    R416611   5.373  14.221   6.722  0.2187 -0.1472  0.1530
 1320ERGO    R516612   5.493  14.068   6.820  0.0479 -0.3313  0.0827
 1320ERGO    C116613   5.184  14.060   7.043 -0.0046 -0.1581  0.0173
 1320ERGO    C216614   5.001  14.138   7.411  0.1667  0.0498  0.0151
 1321ERGO   ROH16615  16.107  14.321   6.115  0.1137 -0.3247 -0.1422
 1321ERGO    R116616  16.040  14.177   6.349  0.0843 -0.1170 -0.0205
 1321ERGO    R216617  16.032  14.295   6.599 -0.0441  0.1295 -0.1376
 1321ERGO    R316618  15.780  14.193   6.604 -0.0096  0.0443 -0.1243
 1321ERGO    R416619  15.856  14.218   6.886 -0.0124  0.1028 -0.1251
 1321ERGO    R516620  15.782  14.038   6.787  0.0473  0.0651 -0.1055
 1321ERGO    C116621  15.516  14.078   7.058  0.0388  0.0072 -0.1054
 1321ERGO    C216622  15.249  14.076   7.336  0.0830 -0.2952  0.0245
 1322ERGO   ROH16623   3.695   0.671   6.400  0.1461  0.0988  0.0461
 1322ERGO    R116624   3.900   0.619   6.588  0.0321 -0.0193  0.1402
 1322ERGO    R216625   4.071   0.816   6.679  0.1090 -0.1196  0.2097
 1322ERGO    R316626   3.987   0.731   6.923 -0.0493 -0.0617  0.1764
 1322ERGO    R416627   4.172   0.951   6.981 -0.0523 -0.0703  0.2424
 1322ERGO    R516628   4.180   0.749   7.063 -0.1270 -0.0583  0.2884
 1322ERGO    C116629   4.151   0.950   7.386 -0.2948  0.0127  0.2302
 1322ERGO    C216630   4.279   0.977   7.718  0.1955 -0.1002 -0.1076
 1323ERGO   ROH16631  11.999   1.048   6.717 -0.0236 -0.1570 -0.1162
 1323ERGO    R116632  11.864   0.957   6.949 -0.0619 -0.0170 -0.0834
 1323ERGO    R216633  11.614   0.838   6.940  0.0012 -0.1508 -0.0696
 1323ERGO    R316634  11.740   0.640   7.076  0.0528  0.0315  0.1560
 1323ERGO    R416635  11.456   0.591   7.122  0.0516 -0.1757 -0.0586
 1323ERGO    R516636  11.610   0.611   7.274 -0.0918  0.0419  0.0634
 1323ERGO    C116637  11.481   0.261   7.356  0.1293 -0.0191  0.1596
 1323ERGO    C216638  11.451   0.054   7.648 -0.0415 -0.4210  0.2080
 1324ERGO   ROH16639   5.840  12.951   6.159 -0.1846 -0.0040  0.0415
 1324ERGO    R116640   5.897  13.086   6.401 -0.2573  0.0825  0.0117
 1324ERGO    R216641   5.729  13.076   6.620 -0.1077 -0.2152  0.1222
 1324ERGO    R316642   5.954  12.994   6.748  0.1220  0.1541 -0.0288
 1324ERGO    R416643   5.803  13.144   6.950 -0.0741 -0.2413  0.1197
 1324ERGO    R516644   6.011  13.177   6.892 -0.1626  0.1934  0.0345
 1324ERGO    C116645   6.058  13.106   7.263  0.1612  0.0903 -0.0235
 1324ERGO    C216646   6.192  13.171   7.567  0.1005  0.0759 -0.1004
 1325ERGO   ROH16647  13.972   2.971   6.823 -0.2702 -0.2436  0.0832
 1325ERGO    R116648  14.151   2.985   7.041 -0.1026 -0.1906 -0.0552
 1325ERGO    R216649  14.066   3.025   7.301  0.1032 -0.0135 -0.0112
 1325ERGO    R316650  14.209   2.799   7.348  0.0502 -0.0433  0.0071
 1325ERGO    R416651  14.148   2.904   7.615  0.0996  0.0079 -0.0021
 1325ERGO    R516652  14.345   2.852   7.538  0.0798 -0.0521 -0.0119
 1325ERGO    C116653  14.330   2.621   7.841  0.0477 -0.0076  0.0204
 1325ERGO    C216654  14.204   2.480   8.185  0.0149  0.2850 -0.0658
 1326ERGO   ROH16655   1.171  10.453   6.368 -0.1602 -0.1276  0.0024
 1326ERGO    R116656   1.046  10.510   6.616 -0.1102  0.0524 -0.0144
 1326ERGO    R216657   0.996  10.315   6.806 -0.2096  0.1672  0.0679
 1326ERGO    R316658   1.134  10.484   6.968 -0.1052  0.1564 -0.0057
 1326ERGO    R416659   0.997  10.301   7.151  0.2723 -0.0818  0.0680
 1326ERGO    R516660   0.989  10.519   7.155  0.1160 -0.0808  0.2261
 1326ERGO    C116661   1.126  10.452   7.504  0.6509 -0.2369 -0.0010
 1326ERGO    C216662   1.017  10.428   7.877 -0.2724  0.0141 -0.2799
 1327ERGO   ROH16663  13.988   9.256   6.708 -0.0725 -0.0055 -0.0717
 1327ERGO    R116664  14.083   9.252   6.975  0.0676  0.0185 -0.1204
 1327ERGO    R216665  14.223   9.462   7.086  0.0387  0.0700 -0.1815
 1327ERGO    R316666  14.030   9.447   7.278  0.1433 -0.0206 -0.0816
 1327ERGO    R416667  14.234   9.624   7.391  0.1901 -0.0461 -0.1239
 1327ERGO    R516668  14.152   9.445   7.484  0.2565 -0.0898 -0.1474
 1327ERGO    C116669  14.060   9.705   7.749  0.3765 -0.1988  0.0034
 1327ERGO    C216670  14.007   9.703   8.138  0.0019  0.0447  0.0289
 1328ERGO   ROH16671  17.738   4.245   6.552 -0.0094 -0.2303  0.0146
 1328ERGO    R116672  17.723   4.371   6.805  0.0084 -0.1632 -0.0183
 1328ERGO    R216673  17.594   4.256   7.021 -0.1023 -0.0402 -0.0213
 1328ERGO    R316674  17.833   4.298   7.144 -0.1050 -0.1468  0.0234
 1328ERGO    R416675  17.632   4.404   7.330 -0.0904  0.0423 -0.0612
 1328ERGO    R516676  17.807   4.510   7.253 -0.0025 -0.0907 -0.0556
 1328ERGO    C116677  17.879   4.530   7.627 -0.0860 -0.0096 -0.0425
 1328ERGO    C216678  17.970   4.422   7.924 -0.0299 -0.1292  0.0194
 1329ERGO   ROH16679   6.221   5.118   6.526 -0.0804  0.0383 -0.1904
 1329ERGO    R116680   6.157   5.224   6.781  0.0480  0.0936 -0.1800
 1329ERGO    R216681   5.897   5.277   6.859  0.0948  0.2156 -0.1006
 1329ERGO    R316682   5.962   5.119   7.070  0.0946  0.2085 -0.1062
 1329ERGO    R416683   5.792   5.328   7.184  0.1512  0.2425 -0.0866
 1329ERGO    R516684   5.991   5.271   7.252  0.1494  0.2065 -0.1139
 1329ERGO    C116685   5.792   5.208   7.571  0.1839  0.2515 -0.0838
 1329ERGO    C216686   5.769   5.357   7.779  0.0630 -0.0508  0.0377
 1330ERGO   ROH16687   7.433  13.560   5.985 -0.0800 -0.3800  0.1315
 1330ERGO    R116688   7.458  13.639   6.256 -0.1616 -0.1945  0.0870
 1330ERGO    R216689   7.271  13.572   6.448 -0.0445 -0.3668  0.1445
 1330ERGO    R316690   7.488  13.472   6.578  0.1233  0.0194  0.1754
 1330ERGO    R416691   7.296  13.531   6.791 -0.0510 -0.3959  0.1412
 1330ERGO    R516692   7.502  13.600   6.780 -0.1745  0.0062  0.2079
 1330ERGO    C116693   7.513  13.412   7.111  0.1028 -0.0501  0.1685
 1330ERGO    C216694   7.678  13.471   7.454 -0.1111  0.1431  0.4636
 1331ERGO   ROH16695  17.050  16.357   6.316 -0.1497  0.1022 -0.0748
 1331ERGO    R116696  17.007  16.349   6.595 -0.0997  0.0288 -0.0695
 1331ERGO    R216697  17.124  16.160   6.758 -0.0221  0.0253 -0.1332
 1331ERGO    R316698  17.210  16.378   6.895 -0.0571  0.0166 -0.0961
 1331ERGO    R416699  17.220  16.159   7.090 -0.0974 -0.0031 -0.1109
 1331ERGO    R516700  17.118  16.350   7.115 -0.1080 -0.0050 -0.1182
 1331ERGO    C116701  17.356  16.364   7.413 -0.1742 -0.0276 -0.0631
 1331ERGO    C216702  17.475  16.179   7.690 -0.0957 -0.0822  0.0662
 1332ERGO   ROH16703  12.818   6.729   6.567  0.1034 -0.1448 -0.1487
 1332ERGO    R116704  12.906   6.681   6.832  0.0468 -0.1540 -0.1307
 1332ERGO    R216705  12.851   6.853   7.041  0.1248 -0.0855 -0.1619
 1332ERGO    R316706  12.751   6.628   7.156 -0.0211 -0.0093 -0.1399
 1332ERGO    R416707  12.889   6.768   7.374  0.2116 -0.1617 -0.1916
 1332ERGO    R516708  12.919   6.561   7.312 -0.0054 -0.1812 -0.2316
 1332ERGO    C116709  12.817   6.507   7.676  0.1253 -0.1344 -0.1883
 1332ERGO    C216710  12.673   6.381   7.912  0.2729  0.0287 -0.4253
 1333ERGO   ROH16711   1.275   9.031   6.224 -0.0390 -0.0926 -0.0518
 1333ERGO    R116712   1.361   8.907   6.463 -0.0376 -0.0093 -0.0091
 1333ERGO    R216713   1.507   9.040   6.655 -0.0445  0.0566 -0.0564
 1333ERGO    R316714   1.309   8.954   6.820 -0.0379  0.1072 -0.0222
 1333ERGO    R416715   1.530   9.031   7.000  0.0326  0.0500 -0.0616
 1333ERGO    R516716   1.425   8.839   6.996 -0.0246  0.0716 -0.0467
 1333ERGO    C116717   1.357   8.946   7.356  0.0836  0.0938 -0.0325
 1333ERGO    C216718   1.527   8.905   7.602 -0.4312 -0.1658 -0.1562
 1334ERGO   ROH16719  13.284   1.679   6.509  0.1218  0.0077  0.0963
 1334ERGO    R116720  13.287   1.465   6.694  0.1105 -0.0025  0.0856
 1334ERGO    R216721  13.471   1.261   6.681  0.1423  0.0198  0.1140
 1334ERGO    R316722  13.519   1.331   6.940  0.0770  0.0167  0.1264
 1334ERGO    R416723  13.556   1.039   6.933 -0.0602  0.0045  0.1698
 1334ERGO    R516724  13.426   1.151   7.068 -0.0560  0.0760  0.1080
 1334ERGO    C116725  13.650   0.976   7.322 -0.2395 -0.0073  0.2139
 1334ERGO    C216726  13.717   0.990   7.688 -0.0269  0.1645 -0.1182
 1335ERGO   ROH16727  14.214   8.867   6.685 -0.1363 -0.0844 -0.0404
 1335ERGO    R116728  14.259   8.807   6.958  0.0434 -0.0281 -0.0553
 1335ERGO    R216729  14.407   8.971   7.124 -0.0576  0.1395 -0.1229
 1335ERGO    R316730  14.183   8.963   7.278  0.0113 -0.0937 -0.0319
 1335ERGO    R416731  14.395   9.058   7.458 -0.0037  0.0514 -0.0981
 1335ERGO    R516732  14.262   8.889   7.492  0.1612 -0.0729 -0.0813
 1335ERGO    C116733  14.178   9.101   7.798  0.0925 -0.2187  0.0016
 1335ERGO    C216734  14.273   9.317   7.987 -0.1422  0.1953 -0.0674
 1336ERGO   ROH16735  16.166   5.486   6.715 -0.0990  0.0663 -0.1600
 1336ERGO    R116736  16.252   5.589   6.964 -0.1063  0.0901 -0.1660
 1336ERGO    R216737  16.183   5.843   7.052 -0.2070  0.0603 -0.1380
 1336ERGO    R316738  16.093   5.707   7.270 -0.1158  0.0009 -0.1382
 1336ERGO    R416739  16.169   5.971   7.372 -0.0930 -0.0330 -0.0961
 1336ERGO    R516740  16.237   5.778   7.447 -0.0567 -0.0436 -0.1741
 1336ERGO    C116741  16.077   5.918   7.764  0.0589 -0.1430 -0.0717
 1336ERGO    C216742  15.895   6.180   7.981 -0.1592  0.2572  0.1172
 1337ERGO   ROH16743   1.513  10.730   6.519  0.0158 -0.1331  0.0466
 1337ERGO    R116744   1.538  10.617   6.778  0.1491 -0.0801  0.0578
 1337ERGO    R216745   1.692  10.732   6.976  0.0337  0.1108  0.0411
 1337ERGO    R316746   1.461  10.718   7.119  0.0510 -0.1259  0.0492
 1337ERGO    R416747   1.657  10.830   7.306 -0.0839  0.1859  0.0070
 1337ERGO    R516748   1.531  10.656   7.339  0.1329  0.0391  0.0704
 1337ERGO    C116749   1.421  10.874   7.632 -0.1362  0.0075 -0.0052
 1337ERGO    C216750   1.269  11.039   7.926 -0.0472  0.2467  0.0938
 1338ERGO   ROH16751  17.601  10.389   6.466  0.0596 -0.2278  0.0820
 1338ERGO    R116752  17.618  10.431   6.746  0.0118 -0.2307  0.0872
 1338ERGO    R216753  17.586  10.226   6.929  0.1586 -0.2721  0.0787
 1338ERGO    R316754  17.828  10.311   7.018  0.0898 -0.0887  0.0880
 1338ERGO    R416755  17.689  10.218   7.259  0.1465 -0.1593  0.0841
 1338ERGO    R516756  17.781  10.413   7.230  0.0064 -0.1007  0.0707
 1338ERGO    C116757  17.976  10.293   7.535  0.0751  0.0784  0.0959
 1338ERGO    C216758  18.200  10.228   7.859  0.1786  0.1350  0.0027
 1339ERGO   ROH16759  15.040   0.578   7.518  0.0415 -0.0024 -0.0729
 1339ERGO    R116760  14.806   0.721   7.588 -0.0422 -0.1456 -0.0555
 1339ERGO    R216761  14.592   0.602   7.716  0.0906 -0.2503  0.0789
 1339ERGO    R316762  14.629   0.803   7.896  0.0088 -0.1383 -0.0290
 1339ERGO    R416763  14.361   0.698   7.955  0.0203 -0.1515 -0.0285
 1339ERGO    R516764  14.413   0.906   7.914 -0.0122 -0.1677 -0.1368
 1339ERGO    C116765  14.261   0.943   8.262 -0.0973  0.0112 -0.1924
 1339ERGO    C216766  13.993   1.187   8.443 -0.2910 -0.2452  0.2853
 1340ERGO   ROH16767   6.127  15.361   6.254 -0.2069  0.0872 -0.1083
 1340ERGO    R116768   6.156  15.492   6.503 -0.0672 -0.0690 -0.0400
 1340ERGO    R216769   6.065  15.750   6.548  0.1174 -0.0278  0.1203
 1340ERGO    R316770   5.935  15.633   6.756  0.0776 -0.0544  0.0803
 1340ERGO    R416771   6.032  15.887   6.863  0.2350 -0.1586  0.1904
 1340ERGO    R516772   6.066  15.690   6.948  0.1346 -0.2194  0.0918
 1340ERGO    C116773   5.891  15.858   7.242  0.2661 -0.2600  0.1937
 1340ERGO    C216774   5.814  15.884   7.548  0.3398 -0.0220  0.1475
 1341ERGO   ROH16775   7.788  11.631   6.506 -0.1324  0.1458  0.1607
 1341ERGO    R116776   7.840  11.635   6.784 -0.1547  0.1347  0.1653
 1341ERGO    R216777   7.638  11.627   6.973 -0.1648  0.0041  0.1502
 1341ERGO    R316778   7.779  11.414   7.067 -0.0614  0.0639  0.1313
 1341ERGO    R416779   7.676  11.549   7.307 -0.0669  0.0387  0.1469
 1341ERGO    R516780   7.884  11.497   7.266 -0.0531  0.1180  0.1060
 1341ERGO    C116781   7.831  11.304   7.591  0.0872  0.1150  0.1273
 1341ERGO    C216782   7.863  10.982   7.731  0.0725  0.3500  0.0390
 1342ERGO   ROH16783   3.695   8.429   6.029  0.2748  0.2278 -0.0102
 1342ERGO    R116784   3.616   8.426   6.301  0.0348  0.0712 -0.0786
 1342ERGO    R216785   3.775   8.526   6.504 -0.1446 -0.0371  0.1222
 1342ERGO    R316786   3.554   8.673   6.561 -0.2001 -0.0766  0.0083
 1342ERGO    R416787   3.670   8.610   6.822 -0.1433  0.2196  0.0565
 1342ERGO    R516788   3.465   8.573   6.759 -0.1343  0.0726  0.1140
 1342ERGO    C116789   3.401   8.797   7.061 -0.1948  0.3320 -0.0888
 1342ERGO    C216790   3.339   8.847   7.347  0.1190 -0.1846 -0.0280
 1343ERGO   ROH16791   3.680  16.292   6.425 -0.0749  0.0706 -0.0982
 1343ERGO    R116792   3.516  16.190   6.633 -0.1583  0.1393 -0.1289
 1343ERGO    R216793   3.618  16.109   6.877 -0.1915 -0.2147 -0.2235
 1343ERGO    R316794   3.434  16.283   6.975  0.0958 -0.0162 -0.0236
 1343ERGO    R416795   3.483  16.096   7.195 -0.0677 -0.2293 -0.1716
 1343ERGO    R516796   3.290  16.148   7.109 -0.0350  0.1004 -0.0493
 1343ERGO    C116797   3.232  16.253   7.472  0.2741 -0.0514  0.0464
 1343ERGO    C216798   3.214  16.179   7.783  0.1318 -0.2067  0.1737
 1344ERGO   ROH16799   4.142  10.709   6.307 -0.1028  0.0903 -0.1137
 1344ERGO    R116800   3.954  10.663   6.514  0.0419 -0.0205 -0.0072
 1344ERGO    R216801   4.021  10.677   6.782  0.1670  0.1058 -0.0514
 1344ERGO    R316802   3.813  10.852   6.790  0.0129 -0.0725  0.0160
 1344ERGO    R416803   3.857  10.775   7.070  0.3704  0.1793  0.0430
 1344ERGO    R516804   3.669  10.765   6.961  0.2603 -0.0784  0.2349
 1344ERGO    C116805   3.568  10.997   7.246  0.3441  0.0548  0.1612
 1344ERGO    C216806   3.476  11.135   7.548  0.1083  0.0764  0.1411
 1345ERGO   ROH16807   4.341  12.032   5.958  0.0233 -0.0020 -0.0404
 1345ERGO    R116808   4.296  12.137   6.217 -0.0050  0.1115 -0.0907
 1345ERGO    R216809   4.144  12.006   6.406 -0.0077  0.1834 -0.0411
 1345ERGO    R316810   4.367  12.037   6.559 -0.0209  0.2722 -0.0398
 1345ERGO    R416811   4.146  12.019   6.752 -0.0121  0.1697 -0.0408
 1345ERGO    R516812   4.296  12.177   6.740 -0.0802  0.2338 -0.0341
 1345ERGO    C116813   4.356  12.055   7.097 -0.0270  0.2452 -0.0395
 1345ERGO    C216814   4.392  12.138   7.444 -0.1261 -0.2890 -0.1540
 1346W        W16815   0.298   3.513  15.672 -0.1304 -0.1028  0.3408
 1347W        W16816   7.438   8.608   3.109  0.0636  0.0597 -0.0545
 1348W        W16817   2.794  10.709  14.091 -0.0660  0.0965 -0.0054
 1349W        W16818   9.865   1.791  13.274 -0.1452 -0.0027 -0.2491
 1350W        W16819   5.025  16.669   4.727  0.0294 -0.0572  0.0701
 1351W        W16820   9.818   9.912  15.989  0.2625 -0.4890 -0.0824
 1352W        W16821   4.545   1.898  13.640  0.2570 -0.1575 -0.0664
 1353W        W16822  17.266   2.382  10.823  0.0758 -0.3085  0.0766
 1354W        W16823   7.989   7.662  15.687  0.1152  0.3658 -0.2881
 1355W        W16824  13.107   5.991  13.674 -0.3045 -0.2863 -0.5332
 1356W        W16825  10.659   5.409  13.248  0.2411 -0.0645  0.0439
 1357W        W16826   9.667   5.536   3.833  0.3291 -0.1648 -0.1785
 1358W        W16827  12.473   2.097   5.020 -0.0467 -0.2483  0.2451
 1359W        W16828   3.929  15.322  11.354 -0.1136 -0.0492  0.0778
 1360W        W16829   4.648   2.805  15.674  0.2479  0.1955 -0.2296
 1361W        W16830  10.441  11.883  16.231 -0.0304 -0.1382 -0.0537
 1362W        W16831  15.145   3.173   0.628 -0.3630  0.0240  0.2150
 1363W        W16832  16.827  12.192  12.237  0.2213 -0.1603 -0.3427
 1364W        W16833  15.871   8.465  12.075 -0.0393  0.0129  0.1109
 1365W        W16834  17.617   7.434   3.191  0.0001  0.1859  0.1684
 1366W        W16835   0.977  17.741  11.517  0.0742  0.4417  0.0374
 1367W        W16836   0.476   0.786   1.817  0.1041 -0.0048 -0.0357
 1368W        W16837  10.926   1.922   5.143  0.1438  0.3051 -0.1210
 1369W        W16838  11.693   6.044  12.988 -0.0282  0.0637  0.1099
 1370W        W16839   8.785   9.138  15.940  0.1477 -0.0998  0.2674
 1371W        W16840   2.374  10.908  14.298 -0.1760 -0.2976  0.2468
 1372W        W16841  11.851   1.209  14.136  0.0421  0.0634 -0.0127
 1373W        W16842  15.629  17.330   1.426 -0.0382 -0.0937 -0.0990
 1374W        W16843   6.005  11.269   0.563 -0.0991  0.3054 -0.1791
 1375W        W16844   7.468   3.870  12.212  0.3261  0.2867  0.2004
 1376W        W16845  13.052  13.772   0.295 -0.0281  0.2032 -0.1272
 1377W        W16846   4.435   0.719  10.946 -0.1396 -0.0222  0.4261
 1378W        W16847   2.727   0.120   4.142  0.0691 -0.0110  0.1327
 1379W        W16848  16.944   9.729   5.667 -0.2790 -0.4677  0.1434
 1380W        W16849   9.850  16.415  13.020 -0.0038  0.2538  0.1829
 1381W        W16850  13.873   0.881   2.900 -0.0675 -0.1061  0.1422
 1382W        W16851  13.066   1.206  15.055  0.0983  0.1723 -0.2518
 1383W        W16852  12.005   0.005   1.226 -0.0292 -0.2849  0.0107
 1384W        W16853   8.751  15.283   5.553  0.1980 -0.2431 -0.0521
 1385W        W16854   5.225   9.644  12.920  0.1178 -0.2167  0.0020
 1386W        W16855  15.945   3.327  11.316 -0.1786  0.0233  0.2276
 1387W        W16856  12.622   2.939   0.335 -0.3106 -0.0781 -0.2397
 1388W        W16857  15.584  11.669   3.751  0.0708 -0.0236 -0.1220
 1389W        W16858  17.280  11.644  13.141 -0.1018 -0.0831  0.1788
 1390W        W16859  14.120   0.241   2.684  0.1873 -0.0981 -0.2462
 1391W        W16860  13.892   4.475  13.135 -0.0424 -0.1308  0.0632
 1392W        W16861  13.218   9.252   1.162 -0.1173 -0.7210 -0.2348
 1393W        W16862   2.648  16.206   3.382 -0.2457  0.1811  0.0442
 1394W        W16863  17.806   0.275   1.106  0.2138  0.0969 -0.0559
 1395W        W16864  15.713  17.558   2.409  0.0693 -0.0362 -0.3231
 1396W        W16865   1.960  13.251   4.155  0.1170 -0.0664  0.0012
 1397W        W16866  14.111   6.268  13.255  0.1160 -0.0160 -0.3660
 1398W        W16867   4.527  12.549  14.819 -0.0535  0.2214 -0.1625
 1399W        W16868  15.332  12.802   2.768 -0.0972  0.1038 -0.0209
 1400W        W16869  10.260  16.996   3.361 -0.1239 -0.1557 -0.2554
 1401W        W16870   7.343   1.807  15.057 -0.0637  0.2286 -0.1350
 1402W        W16871  12.825   8.794  15.131 -0.0354  0.1767  0.1744
 1403W        W16872  16.735   6.803  14.892  0.0194 -0.0131  0.0843
 1404W        W16873   8.203   2.100   2.567 -0.1000 -0.0618  0.1049
 1405W        W16874  17.446  12.915   3.800  0.1448 -0.3161 -0.1130
 1406W        W16875  12.670  17.473   2.947  0.1400  0.3654  0.0010
 1407W        W16876  16.192  14.229   2.762  0.0674  0.0034  0.2110
 1408W        W16877  14.337  13.320   0.353 -0.1052  0.1262 -0.1622
 1409W        W16878   9.386   4.185   4.674 -0.2276 -0.2069 -0.0747
 1410W        W16879   5.907   6.237  11.882 -0.1634  0.1551  0.1458
 1411W        W16880  14.330  10.426   4.129  0.2394 -0.2457  0.0784
 1412W        W16881   2.529   3.655   0.223 -0.2211  0.2732 -0.0315
 1413W        W16882   1.330   8.524  14.587  0.0284  0.0760 -0.2875
 1414W        W16883   0.595   1.684  12.290 -0.0156 -0.0202 -0.0364
 1415W        W16884   0.153  13.064  11.256  0.2311  0.0689 -0.0985
 1416W        W16885  18.029   1.907   4.290 -0.2837 -0.0236 -0.1566
 1417W        W16886  12.659  10.579   5.557 -0.0972 -0.0520  0.4088
 1418W        W16887   4.699   3.321  13.066  0.2754  0.0411  0.3222
 1419W        W16888   8.789   8.607  14.355 -0.0231  0.0888  0.0625
 1420W        W16889   1.135  16.231   1.306  0.0466  0.2497  0.0267
 1421W        W16890   9.930   0.514   6.278 -0.0445  0.0368  0.0117
 1422W        W16891   2.269   8.498   1.998  0.1035  0.0145 -0.1555
 1423W        W16892   5.845   3.004   3.674  0.2406  0.1241 -0.1147
 1424W        W16893   7.079  17.263  15.651 -0.1574 -0.2606  0.0847
 1425W        W16894  10.823   5.600  13.874 -0.1555 -0.0682 -0.1203
 1426W        W16895   4.289   8.047   5.039 -0.2621  0.2003  0.2745
 1427W        W16896  11.973  16.182   5.482  0.0476  0.2185 -0.0290
 1428W        W16897   1.039   0.830  14.732  0.2659 -0.1905 -0.0350
 1429W        W16898  16.359   3.095   5.280 -0.2274  0.1526 -0.0343
 1430W        W16899   9.738  12.409   5.402 -0.1383  0.1142  0.2595
 1431W        W16900  17.779  16.573   5.187 -0.1620  0.1004 -0.0439
 1432W        W16901   3.374  14.327  11.854  0.1918  0.3592 -0.1909
 1433W        W16902   0.214   8.243  10.799 -0.4196  0.0411  0.0242
 1434W        W16903  12.757   6.717   5.221 -0.0714 -0.1189 -0.0514
 1435W        W16904  15.668   6.730   4.668  0.0496 -0.1435 -0.0434
 1436W        W16905   3.095   9.640  16.134  0.1151 -0.0252 -0.1338
 1437W        W16906   0.903  10.657   0.320  0.2763 -0.0596 -0.2281
 1438W        W16907   4.426  16.892  12.481  0.2104  0.3446  0.0255
 1439W        W16908   9.992   9.886  10.814  0.1563 -0.1274 -0.0043
 1440W        W16909  17.072   1.070  11.297  0.1807  0.1074 -0.1281
 1441W        W16910   7.221  15.572  16.303 -0.1084 -0.0062 -0.0322
 1442W        W16911   9.925  11.674  13.054 -0.1470  0.0365 -0.0775
 1443W        W16912  16.482  14.140  15.756 -0.2195 -0.2339 -0.2133
 1444W        W16913   0.036   0.824  15.308 -0.4545 -0.2316  0.1441
 1445W        W16914  16.564   6.498   4.689 -0.1403 -0.0556  0.2255
 1446W        W16915  12.322   3.346   4.581 -0.1816  0.0107  0.0659
 1447W        W16916   6.435  14.682  14.269 -0.1462 -0.1462  0.1581
 1448W        W16917  10.197  15.016  11.244 -0.2901  0.2133 -0.2026
 1449W        W16918   8.321   9.238  11.304  0.1648 -0.1364  0.0657
 1450W        W16919   5.154   7.960  13.507  0.2764 -0.2537 -0.3109
 1451W        W16920   3.350   8.533  13.395 -0.1224 -0.0415  0.1114
 1452W        W16921  12.466  13.096  12.442  0.4444 -0.3224 -0.0282
 1453W        W16922  17.937  10.857   5.123  0.2025  0.0315  0.1010
 1454W        W16923  18.065   3.363  11.553 -0.4076 -0.0861 -0.0198
 1455W        W16924   9.897  11.900  15.340  0.1101  0.0794 -0.1627
 1456W        W16925   5.118   5.261  11.795  0.1736  0.3513 -0.3798
 1457W        W16926  17.500  12.427  13.160 -0.0585  0.0221  0.2522
 1458W        W16927  17.732   1.589  10.816 -0.0596  0.1787 -0.1786
 1459W        W16928   9.672  16.329   5.227 -0.1539  0.0830  0.4921
 1460W        W16929   5.744  17.238  11.292  0.1001 -0.0255 -0.2249
 1461W        W16930   4.665  10.114  15.582  0.1444  0.1689  0.0822
 1462W        W16931  14.071  15.827   1.330  0.0468 -0.1174  0.1180
 1463W        W16932   4.880  17.958   2.614 -0.1000 -0.1693  0.0399
 1464W        W16933   5.280   9.778   5.728 -0.0303 -0.1792 -0.3074
 1465W        W16934   9.820  11.815  11.720 -0.0628 -0.0205 -0.0514
 1466W        W16935   5.279   4.045   5.724  0.0342  0.1805  0.1822
 1467W        W16936  14.346   7.411   4.592  0.1421 -0.0933 -0.1878
 1468W        W16937  10.321   9.863   5.610  0.2648 -0.2522 -0.2558
 1469W        W16938  11.226   3.154   0.128  0.1833  0.0394 -0.1343
 1470W        W16939   7.532  10.462  15.765 -0.1579  0.3584  0.0487
 1471W        W16940  12.562   1.833  14.820 -0.0997 -0.1779 -0.3255
 1472W        W16941  16.765  12.194  16.072  0.0613  0.1320 -0.2170
 1473W        W16942  13.603  10.197   2.912  0.2929  0.0021  0.1154
 1474W        W16943  11.781  12.255  12.618 -0.1007 -0.1755  0.2304
 1475W        W16944   6.010  17.313  12.232 -0.1049 -0.2121  0.0240
 1476W        W16945  10.185   5.182   0.411 -0.0817 -0.2191 -0.0151
 1477W        W16946   6.734  13.289  13.671 -0.1826  0.4487  0.0668
 1478W        W16947   8.499   6.772   1.647  0.1083  0.2738  0.0364
 1479W        W16948   7.487  15.546  13.780  0.0306  0.0233 -0.0825
 1480W        W16949  17.495   9.241  12.333  0.2921 -0.2570  0.0014
 1481W        W16950   5.981  13.130   0.968 -0.1068  0.0517  0.1018
 1482W        W16951   6.645  14.513   3.489  0.2432  0.1737  0.0747
 1483W        W16952   5.945   2.376  11.936  0.2667  0.3390  0.1021
 1484W        W16953   4.664  14.007   4.666  0.1863 -0.1040  0.0293
 1485W        W16954  10.605   0.467  14.283 -0.1579  0.1258 -0.1811
 1486W        W16955   6.875   2.471  11.518 -0.0481  0.1930 -0.0939
 1487W        W16956  10.180   0.340  12.292  0.1381 -0.0999 -0.3477
 1488W        W16957  17.922   1.686  14.746  0.1809 -0.0473 -0.2541
 1489W        W16958   4.358   3.530   1.779 -0.1962 -0.0477 -0.0316
 1490W        W16959   7.024   9.917   2.795 -0.1621 -0.0891 -0.0015
 1491W        W16960   7.082   8.598  15.535  0.0665  0.0512 -0.0054
 1492W        W16961  16.546   3.326  11.902  0.1454 -0.0459 -0.1648
 1493W        W16962  10.945  10.333   4.077  0.0527 -0.2586 -0.3356
 1494W        W16963   1.982  16.320  14.856  0.1009 -0.1245  0.3649
 1495W        W16964   5.713   2.527  14.997 -0.0086 -0.1567 -0.0672
 1496W        W16965   4.892  11.963  10.692 -0.0653  0.1307 -0.0516
 1497W        W16966  17.351   6.042  12.426 -0.1663 -0.1269  0.0861
 1498W        W16967   2.702   5.537  13.579  0.2392  0.0277  0.1207
 1499W        W16968   5.114  16.366  10.690 -0.0122  0.0826  0.1054
 1500W        W16969   3.741   0.741   1.848 -0.0271 -0.0214 -0.4575
 1501W        W16970  12.616   2.468   0.481 -0.1958 -0.1434  0.0063
 1502W        W16971   3.022   1.543  13.126  0.1466 -0.0052 -0.0963
 1503W        W16972   6.430  13.490  10.854  0.2450 -0.3023  0.1628
 1504W        W16973  16.274  15.695  15.208 -0.0813  0.0643 -0.0009
 1505W        W16974   7.816  12.532  11.851  0.2670 -0.1363 -0.4130
 1506W        W16975   6.465   9.049  11.908 -0.1021  0.0794  0.2397
 1507W        W16976  14.019  16.423   0.918  0.1873 -0.0400  0.2244
 1508W        W16977   8.496   7.569  15.867  0.0247 -0.3423  0.2623
 1509W        W16978  14.218   8.872   5.354  0.0251 -0.1757  0.0675
 1510W        W16979   3.145   8.194   4.874  0.1411 -0.1660 -0.2371
 1511W        W16980  14.682  11.287  13.333 -0.0408  0.1659 -0.0311
 1512W        W16981   7.417  10.986  15.263  0.1934 -0.1611 -0.2759
 1513W        W16982   6.291   9.217   5.667 -0.1279  0.0846  0.1349
 1514W        W16983  11.515   1.209   3.939 -0.0949 -0.0508  0.0237
 1515W        W16984   0.672   0.255  11.231 -0.0178 -0.0138  0.0474
 1516W        W16985   4.232   0.290   4.234 -0.1965  0.3859 -0.0271
 1517W        W16986   1.306   6.756   0.130  0.1468  0.1981  0.1781
 1518W        W16987  15.497   2.214   0.483 -0.2523  0.3027 -0.2564
 1519W        W16988   0.837   2.050  13.229 -0.0223 -0.1687 -0.1594
 1520W        W16989   3.329   2.666   1.839 -0.0584 -0.1602  0.2205
 1521W        W16990  12.320  16.363   1.465  0.0159 -0.1355 -0.0210
 1522W        W16991   9.535  15.694   3.055 -0.0940 -0.0630 -0.3390
 1523W        W16992   2.887   7.054  13.582 -0.0972 -0.0808 -0.0084
 1524W        W16993   3.367  15.504   3.470 -0.5251 -0.0116 -0.3975
 1525W        W16994   9.058   8.406  13.919  0.0706 -0.1580  0.1744
 1526W        W16995  16.238  16.900   4.409 -0.0095 -0.0048  0.0036
 1527W        W16996  16.811  14.264  14.667  0.2002  0.1806 -0.0937
 1528W        W16997  15.732   8.248   0.578 -0.0569 -0.2357 -0.1949
 1529W        W16998   9.041  13.295   2.066 -0.1900 -0.2905  0.1657
 1530W        W16999  17.992  14.511  15.879  0.1674  0.2917  0.0233
 1531W        W17000  13.686   2.561   1.435 -0.0099  0.0862 -0.0695
 1532W        W17001   8.913   7.726   0.809  0.0164 -0.1371  0.0368
 1533W        W17002   9.151   9.942   4.247 -0.1164 -0.2178  0.1737
 1534W        W17003   1.318  17.083   2.982 -0.1874  0.2302 -0.1286
 1535W        W17004  16.694  12.165   1.233 -0.2751 -0.4975  0.0602
 1536W        W17005   5.299   9.707   4.360 -0.1797  0.0222  0.1996
 1537W        W17006  10.423  15.367   9.917 -0.3695  0.0223 -0.1454
 1538W        W17007   0.054   9.826   0.727  0.0973  0.0764  0.3330
 1539W        W17008  17.283   4.977  15.470 -0.0948  0.1906 -0.2909
 1540W        W17009  13.025   9.540   0.625 -0.1029  0.2038 -0.1789
 1541W        W17010  11.080   2.911   0.650  0.0056 -0.2071  0.0942
 1542W        W17011   9.322  14.323   4.522 -0.0144 -0.1830  0.2052
 1543W        W17012   8.458  15.578  14.133 -0.3633  0.1056  0.2882
 1544W        W17013   4.152  11.652  10.176  0.1572  0.1145 -0.1517
 1545W        W17014   3.595   1.715  12.216 -0.0396  0.1762 -0.1076
 1546W        W17015  12.267   9.879   3.621 -0.0889 -0.0829  0.0999
 1547W        W17016   2.724   4.191   3.468  0.0847  0.3866  0.1204
 1548W        W17017   2.377  14.915   2.549 -0.0918  0.0643 -0.0572
 1549W        W17018   3.207  14.792   1.957  0.1421  0.0464 -0.1211
 1550W        W17019  17.778   7.986  14.023 -0.1061 -0.1912 -0.0434
 1551W        W17020   1.406  11.126  12.693  0.0066 -0.3210 -0.0251
 1552W        W17021  15.401  10.167   4.335 -0.2980  0.1639  0.2304
 1553W        W17022   4.313  10.356   5.192  0.1383 -0.3457  0.1471
 1554W        W17023   1.767  17.009  14.268 -0.3236 -0.2349 -0.0090
 1555W        W17024  15.774  17.415   3.850  0.1855 -0.1554 -0.2516
 1556W        W17025   4.800   8.324   5.059  0.2949 -0.0484  0.0912
 1557W        W17026   3.409   2.685  11.413 -0.0437 -0.0475 -0.1221
 1558W        W17027   0.311   0.643  11.269  0.3054 -0.1173  0.1821
 1559W        W17028   9.783   7.230  11.629  0.1682  0.0669  0.1843
 1560W        W17029  15.224  16.986   0.441 -0.1521 -0.4612 -0.0106
 1561W        W17030   5.726   5.471   4.173 -0.0419 -0.1191  0.1753
 1562W        W17031   3.070  13.884  10.626 -0.2487  0.1791  0.2308
 1563W        W17032   8.208  16.076   3.117 -0.1438 -0.2024  0.2632
 1564W        W17033   4.290  16.260   3.474  0.0570  0.1060  0.0751
 1565W        W17034  10.705   8.499  14.295 -0.0424 -0.2087 -0.1267
 1566W        W17035  15.061   8.272  15.477  0.0826 -0.1932  0.1074
 1567W        W17036   3.932  16.775   0.181  0.1112  0.0514  0.1535
 1568W        W17037   0.699  10.502  11.095  0.2072  0.0565  0.2862
 1569W        W17038  17.359  14.404   4.666  0.3449 -0.1188  0.0203
 1570W        W17039   5.476   4.435   4.922 -0.1519 -0.2708 -0.0713
 1571W        W17040  10.555  16.159  15.858 -0.0322 -0.0784  0.1425
 1572W        W17041  10.237   4.990  13.296 -0.1144  0.2356  0.1023
 1573W        W17042   3.734  15.115  14.145  0.0262  0.1126 -0.0306
 1574W        W17043  11.022  13.359  16.216  0.1658 -0.0558 -0.0677
 1575W        W17044   5.265  10.963   3.191  0.3703  0.2733 -0.0596
 1576W        W17045   6.258   4.472   2.237  0.0031  0.0074  0.0171
 1577W        W17046   1.001   0.599   1.065  0.1169  0.0189  0.1364
 1578W        W17047  13.431  14.501   5.476 -0.2807 -0.1106 -0.2697
 1579W        W17048   5.087   5.921  11.651 -0.0135  0.3122 -0.1845
 1580W        W17049   0.714   9.268  13.257 -0.1442  0.0219  0.0997
 1581W        W17050  17.233  16.023  12.787  0.0184 -0.0276 -0.3362
 1582W        W17051  17.384   2.372  13.880 -0.1929  0.0015  0.2650
 1583W        W17052   5.475   5.540   1.539 -0.0615 -0.1281 -0.0755
 1584W        W17053   5.270   6.977  13.337 -0.0125 -0.1167 -0.0595
 1585W        W17054   1.959  11.880  12.433  0.0147  0.1198  0.2523
 1586W        W17055  17.879   9.411   4.545 -0.1085 -0.2698 -0.0168
 1587W        W17056  14.871  14.503   2.266 -0.1210  0.0045  0.0088
 1588W        W17057  16.615  16.514   0.098  0.3503  0.0542 -0.0346
 1589W        W17058   6.780   5.245  11.422 -0.1861 -0.1471  0.1478
 1590W        W17059  12.522  13.769  15.269 -0.0621  0.0346  0.1181
 1591W        W17060  16.698   7.269   1.161  0.3386 -0.1284  0.3413
 1592W        W17061  13.143  17.521   6.270  0.0549 -0.2528  0.0596
 1593W        W17062   1.757   3.167  15.345  0.0517 -0.1946  0.1041
 1594W        W17063   3.053  15.920  13.793  0.0790 -0.1284  0.0107
 1595W        W17064  13.225   1.778   3.493 -0.2666 -0.3638 -0.2489
 1596W        W17065  10.133   6.589   6.100  0.0216 -0.2850 -0.0501
 1597W        W17066   9.971  16.238  12.539  0.0302  0.1705  0.2308
 1598W        W17067  16.493   7.756  15.786  0.3810  0.2111  0.2187
 1599W        W17068   6.795   9.316   4.227 -0.2359  0.4277 -0.0590
 1600W        W17069  13.362  12.195   3.367  0.0871 -0.3484 -0.1466
 1601W        W17070   6.093  15.832   1.341  0.2051 -0.0613  0.3930
 1602W        W17071  12.416   1.564  12.621 -0.1152 -0.0469  0.0525
 1603W        W17072   2.171   5.102   4.207  0.2505  0.1092 -0.1081
 1604W        W17073  11.884  15.260  11.005 -0.2213 -0.2860  0.3645
 1605W        W17074   0.868  12.845  14.076  0.3387 -0.0007  0.1424
 1606W        W17075   0.639  10.709  13.240 -0.1316  0.1436  0.0962
 1607W        W17076   0.221   7.691   1.901 -0.3189 -0.1590 -0.2740
 1608W        W17077  17.674   7.452  11.851 -0.0103  0.3764  0.2529
 1609W        W17078   6.626   5.428  12.966 -0.1241 -0.0932  0.2283
 1610W        W17079   4.894   3.179   2.907  0.0673  0.2252  0.0124
 1611W        W17080   2.450   7.469   4.044  0.1098  0.2554  0.0285
 1612W        W17081  11.512   0.452   3.183 -0.2376  0.2089 -0.1814
 1613W        W17082  10.248  16.210   5.413 -0.1034 -0.0145 -0.2657
 1614W        W17083  10.513  10.408   0.391  0.0711  0.0714  0.1493
 1615W        W17084  10.215   5.596  14.011  0.1655 -0.2170  0.3931
 1616W        W17085  13.689   6.547  11.557 -0.2036  0.3204 -0.0011
 1617W        W17086  10.886  17.886   1.929 -0.1757 -0.1382  0.0294
 1618W        W17087   0.702  12.110  13.495 -0.0786 -0.3864  0.1008
 1619W        W17088   0.575   3.827   3.035 -0.0653 -0.0725  0.3045
 1620W        W17089  16.745  12.156   5.186  0.1341  0.0347  0.0418
 1621W        W17090   4.294   9.200   3.290 -0.3883  0.1009  0.1501
 1622W        W17091   7.248   4.967  14.899 -0.2010 -0.0201  0.0321
 1623W        W17092  13.262   7.764   5.912 -0.1748  0.1063 -0.1274
 1624W        W17093   5.766   9.666   3.869 -0.1729  0.0039  0.0693
 1625W        W17094   9.846   0.461   5.366 -0.0099  0.1464 -0.0203
 1626W        W17095   8.741   5.899   0.054  0.4021  0.0958 -0.1068
 1627W        W17096  11.654   7.852   2.836  0.0617 -0.2899 -0.0362
 1628W        W17097   4.899  13.312  14.989 -0.2449 -0.3328 -0.0268
 1629W        W17098  14.493   0.160   3.041 -0.0770  0.2200  0.4920
 1630W        W17099   2.363  10.842   1.400 -0.0254 -0.1254 -0.3687
 1631W        W17100  14.559   6.636  15.045  0.0327 -0.3205 -0.0220
 1632W        W17101  12.491  12.193   2.942 -0.0491  0.0751 -0.2317
 1633W        W17102   4.084   7.340  15.503  0.0080  0.1078  0.1614
 1634W        W17103   4.014  16.235   3.052  0.2814  0.2056 -0.1391
 1635W        W17104  17.621  11.063  11.651  0.3458  0.0284  0.1569
 1636W        W17105   5.565  18.039   5.778  0.2677  0.0903  0.0674
 1637W        W17106   5.450   6.087  12.481  0.2123  0.1924 -0.1163
 1638W        W17107   9.738  14.040   2.205 -0.2089  0.0483  0.1951
 1639W        W17108   3.687   3.849   3.200  0.2685 -0.0520  0.2231
 1640W        W17109  12.640   6.630   4.237 -0.0026 -0.0730  0.1914
 1641W        W17110  11.315  14.261   3.833 -0.5303  0.0136 -0.0671
 1642W        W17111  16.809   3.132  12.246  0.0598  0.1566  0.1854
 1643W        W17112  13.761   9.800   4.667  0.1167  0.2789  0.0538
 1644W        W17113   6.039  11.071  15.130  0.0800 -0.2599 -0.3024
 1645W        W17114  13.165  14.167   1.826  0.1673  0.1045  0.1728
 1646W        W17115   9.427   0.420   0.132 -0.1004 -0.1824  0.0123
 1647W        W17116  13.667   3.124  14.554  0.2625  0.1496  0.1889
 1648W        W17117  17.493   2.866   3.281  0.3687  0.1160 -0.3587
 1649W        W17118   1.089  11.539   4.747 -0.1101  0.0052  0.3659
 1650W        W17119   2.667   5.042  13.678 -0.1489 -0.0817 -0.3120
 1651W        W17120   1.079   0.325   5.000 -0.1491  0.0609 -0.1355
 1652W        W17121   3.615  16.639   5.131 -0.0745 -0.4933  0.0012
 1653W        W17122  13.789  13.833   3.562 -0.2191 -0.0443  0.0117
 1654W        W17123   2.654  11.448   5.424  0.0008 -0.1460 -0.0456
 1655W        W17124   4.848  10.692  13.419  0.3942 -0.1579 -0.1385
 1656W        W17125  17.424  14.370   0.944  0.0939 -0.1142 -0.0101
 1657W        W17126   9.853  15.100  13.550  0.3638  0.0514  0.2645
 1658W        W17127   9.888   6.650   0.345 -0.0298 -0.2167 -0.0031
 1659W        W17128   6.650  14.100  10.811 -0.0814  0.0355 -0.0632
 1660W        W17129   2.965   7.867  15.867  0.0792  0.0098  0.0883
 1661W        W17130   1.755  14.219   0.747  0.0218  0.1857 -0.0824
 1662W        W17131   7.790   4.179   4.365  0.0480 -0.0014  0.1246
 1663W        W17132  11.645   2.981  14.397  0.3973 -0.0619  0.0741
 1664W        W17133  16.244  10.123  12.577  0.4877  0.1288 -0.5511
 1665W        W17134  15.675  12.001  16.100  0.2809  0.0791  0.0310
 1666W        W17135   7.128  18.063  15.986  0.2901  0.0293 -0.0300
 1667W        W17136   8.399   9.616   0.458  0.0341 -0.1994  0.2372
 1668W        W17137   4.939   0.855  11.139  0.0628 -0.2527  0.1993
 1669W        W17138  11.288   7.751   5.592  0.0421 -0.1299  0.0153
 1670W        W17139   1.148  16.655  13.209 -0.1110 -0.0242 -0.0752
 1671W        W17140   7.646  12.759  11.421 -0.3797  0.0779  0.2165
 1672W        W17141  11.052  10.952   3.284  0.1739 -0.0845 -0.1028
 1673W        W17142   7.898   0.116  16.164  0.2772 -0.2998 -0.1173
 1674W        W17143  14.769   1.961   0.081  0.4132 -0.0710  0.2255
 1675W        W17144   8.875   6.537   4.925  0.1389 -0.0907  0.0155
 1676W        W17145  11.322   6.644  12.833 -0.3034  0.2550  0.4286
 1677W        W17146  10.677  17.034   1.067  0.0530  0.0570 -0.1135
 1678W        W17147  11.047  12.306   2.500  0.1669 -0.0568  0.0471
 1679W        W17148  10.955  10.698   5.008  0.0221  0.1731 -0.0831
 1680W        W17149  10.406  14.385  12.682 -0.0991 -0.2462  0.1637
 1681W        W17150  10.323   3.893   3.492 -0.2847 -0.0038  0.1110
 1682W        W17151   5.294  10.602  16.075 -0.2841 -0.3166 -0.2785
 1683W        W17152  11.996   1.946  16.192  0.1904  0.1001 -0.0823
 1684W        W17153  11.180   6.381   0.014  0.0319  0.1776 -0.4990
 1685W        W17154   0.099  11.811   0.225 -0.1805 -0.0123  0.3672
 1686W        W17155   7.162   0.427   5.003 -0.3406 -0.0092  0.3476
 1687W        W17156   5.809  15.012  10.082 -0.1201  0.0454  0.2002
 1688W        W17157  14.913  17.802   0.432  0.1545  0.1156 -0.1655
 1689W        W17158   7.664  13.793  12.172 -0.1568  0.1898  0.0993
 1690W        W17159  11.601  16.674   3.264 -0.1649  0.0215 -0.1091
 1691W        W17160  12.127  14.061   3.428 -0.1863 -0.1023  0.0439
 1692W        W17161  11.284   3.970  11.637 -0.0146  0.3361  0.1055
 1693W        W17162  13.236   3.105  12.073  0.1343  0.3581 -0.0244
 1694W        W17163  16.893  17.411   0.782 -0.1836 -0.3225  0.2907
 1695W        W17164   3.704   8.896   2.971 -0.4857 -0.0029  0.2119
 1696W        W17165   3.117  17.541   1.306  0.0608  0.1354 -0.0668
 1697W        W17166  12.367   5.481   0.658  0.0120  0.1845  0.1932
 1698W        W17167  17.677   9.868  13.578 -0.0768  0.1185  0.0036
 1699W        W17168   6.857  16.812   4.950  0.0161  0.0463  0.0561
 1700W        W17169   8.823   3.986  16.158 -0.0636  0.1149 -0.0158
 1701W        W17170  11.837   7.435  12.439  0.1275 -0.0524  0.1047
 1702W        W17171   6.329   4.892  15.872  0.3633 -0.2513 -0.0157
 1703W        W17172   4.736   2.205   4.316  0.1362 -0.0492  0.1776
 1704W        W17173   4.500   9.234   4.600  0.1893 -0.0902 -0.0085
 1705W        W17174  13.032   2.706   0.638 -0.1788  0.1277  0.0720
 1706W        W17175   3.043  16.164   4.718 -0.1805 -0.0686 -0.2447
 1707W        W17176  11.496  16.654   3.768  0.1564 -0.0910 -0.1326
 1708W        W17177  12.645   8.087  12.466 -0.2343  0.0344 -0.0403
 1709W        W17178  15.709  11.302  12.781 -0.0864  0.0356 -0.2945
 1710W        W17179   4.170   4.890  10.386  0.1229 -0.0882  0.1085
 1711W        W17180  14.269   7.924   1.421  0.1662 -0.1324 -0.4192
 1712W        W17181   3.962   3.273   0.918 -0.3131 -0.1536 -0.1013
 1713W        W17182  10.441  16.417   4.466 -0.2276  0.2264  0.0506
 1714W        W17183  10.540  16.036  13.332  0.0074  0.1300  0.1146
 1715W        W17184   3.197  16.939   4.507  0.0176 -0.0333 -0.1237
 1716W        W17185   6.008   9.348   5.114 -0.0632  0.1000 -0.2556
 1717W        W17186  16.731   5.557   0.733  0.2268  0.1459 -0.1197
 1718W        W17187  16.031  10.820   4.703  0.0064 -0.1759 -0.2395
 1719W        W17188   8.350   5.845  14.877 -0.2949  0.0697  0.1437
 1720W        W17189  12.123  13.549   2.438 -0.0416 -0.2219 -0.1576
 1721W        W17190   0.886   2.493  12.364 -0.0459  0.1193 -0.0156
 1722W        W17191  17.934  14.628  13.505  0.1128  0.3224 -0.0301
 1723W        W17192  10.529  14.330   2.175 -0.0563  0.0622  0.1220
 1724W        W17193   2.863   5.176   1.044  0.2859 -0.0201 -0.1721
 1725W        W17194   9.642   1.570  14.704  0.2600  0.0628  0.0379
 1726W        W17195   7.452   5.567  12.943 -0.1852  0.1051 -0.0908
 1727W        W17196   8.798   0.767  12.943  0.0643  0.3593 -0.2055
 1728W        W17197   3.668   4.116  13.702 -0.0286 -0.0120  0.0305
 1729W        W17198  17.831   1.092   1.301 -0.2742  0.1021 -0.0393
 1730W        W17199   5.045  16.077  14.378 -0.1034 -0.0882  0.2587
 1731W        W17200   6.550  13.151   0.204 -0.1221 -0.0841 -0.1762
 1732W        W17201   5.158  10.678   2.196  0.0267 -0.0164 -0.0192
 1733W        W17202   9.711   8.489   5.458  0.2570  0.3132  0.2393
 1734W        W17203   6.504  13.226  13.111  0.2369  0.3768 -0.0132
 1735W        W17204  16.805   5.075   0.156  0.0846 -0.1787  0.1426
 1736W        W17205   6.013   1.827   5.266 -0.0631 -0.1539  0.0301
 1737W        W17206  10.833   7.408   5.007 -0.3126 -0.2556  0.1547
 1738W        W17207  16.301  16.576   5.507 -0.0387  0.0168  0.0488
 1739W        W17208   5.732   9.905  11.998 -0.1984 -0.0517  0.0899
 1740W        W17209   4.406   3.906   2.956  0.2428 -0.1223  0.1486
 1741W        W17210   6.889  12.116  14.260 -0.1099 -0.0025  0.1753
 1742W        W17211  13.110  12.096  12.069  0.1216  0.2563  0.1966
 1743W        W17212   4.300   7.857  14.154 -0.1602  0.4662  0.1275
 1744W        W17213  13.979  15.533   5.613 -0.0214 -0.3520 -0.0770
 1745W        W17214   8.631   7.096  15.182  0.2179  0.1871 -0.1131
 1746W        W17215   5.417   2.471  12.150 -0.0515  0.1869 -0.1501
 1747W        W17216  11.572  14.760  15.065  0.0631 -0.0121 -0.1714
 1748W        W17217  15.286   7.767   5.692 -0.0878  0.1371  0.3417
 1749W        W17218   1.072  17.633   4.148 -0.4388 -0.3509  0.1393
 1750W        W17219   3.196   9.833  10.957 -0.1225  0.4168 -0.1684
 1751W        W17220  12.601  16.859  12.386  0.2485  0.0972  0.2747
 1752W        W17221  10.863  16.240   3.025  0.1671 -0.1920  0.1901
 1753W        W17222  16.256   0.240  11.693  0.0354  0.1289  0.1291
 1754W        W17223  17.717  11.622  12.864 -0.3483 -0.1787 -0.2748
 1755W        W17224   4.224   1.169  14.650  0.0569 -0.5513  0.0013
 1756W        W17225   6.370   1.818  13.100  0.0935  0.2926 -0.0784
 1757W        W17226   3.957   4.054   3.792 -0.2137 -0.1471  0.2184
 1758W        W17227   1.031  18.022  16.209 -0.2693 -0.2731 -0.2474
 1759W        W17228  11.454  10.384   1.625  0.2707 -0.0584 -0.0016
 1760W        W17229  12.978  10.077   4.024 -0.1799  0.3326  0.0839
 1761W        W17230  16.566  11.419   0.241 -0.2646  0.0782 -0.1559
 1762W        W17231   0.763  12.787  12.733  0.2327  0.1893  0.2511
 1763W        W17232   3.900   4.146   4.872 -0.1073  0.0845  0.0484
 1764W        W17233   1.708   6.159  10.553 -0.0698  0.0595 -0.2335
 1765W        W17234  14.532  11.183  14.908  0.0519 -0.0319 -0.0027
 1766W        W17235   9.533   8.194   0.614  0.3106  0.0343 -0.2191
 1767W        W17236   2.927  16.193   6.068  0.2199 -0.0253 -0.4605
 1768W        W17237  14.097   9.313  15.555  0.0739 -0.0922  0.1764
 1769W        W17238   2.823   6.164  14.593 -0.1731 -0.1717 -0.3080
 1770W        W17239  12.327   7.809   5.947  0.0319  0.2258  0.0628
 1771W        W17240  14.942  14.330  12.776 -0.0913  0.0769 -0.1600
 1772W        W17241  11.498   6.202  15.861 -0.2746  0.0610 -0.0589
 1773W        W17242  13.376  11.690  11.196  0.4759 -0.0556  0.2441
 1774W        W17243   7.612  11.680  14.766 -0.0989  0.0307 -0.2281
 1775W        W17244  17.333   7.989   3.354 -0.2767 -0.0857  0.1595
 1776W        W17245   7.529   1.741   1.458 -0.1723 -0.2409  0.0100
 1777W        W17246   2.828  11.277   3.552 -0.0674 -0.1299  0.2204
 1778W        W17247   3.552  14.123  16.057 -0.0714 -0.0590  0.2067
 1779W        W17248   4.576  17.668   5.598  0.0952  0.1904 -0.0863
 1780W        W17249  12.305   1.438  13.943  0.1050  0.1828  0.3737
 1781W        W17250  10.973  17.083  15.948 -0.2909 -0.1617  0.0220
 1782W        W17251   4.384   1.278   5.345  0.3117  0.0907 -0.3015
 1783W        W17252   3.035  16.066  13.315 -0.0794  0.1053  0.2819
 1784W        W17253   7.012  16.962  13.101 -0.1093  0.3346  0.1815
 1785W        W17254  16.056   2.564  16.235  0.1437 -0.2247 -0.0352
 1786W        W17255   4.042  11.817  12.369  0.0670  0.0744 -0.0811
 1787W        W17256  10.188   6.264   4.403 -0.0564  0.1348 -0.1018
 1788W        W17257  13.007  13.689   3.474 -0.2734  0.1130  0.5513
 1789W        W17258   1.699  15.569   0.049  0.0700 -0.1318 -0.0775
 1790W        W17259   9.900   3.039  12.152 -0.0234 -0.1077  0.1386
 1791W        W17260   1.771  16.491  13.971  0.2836  0.0589  0.3347
 1792W        W17261  10.606  15.151   0.155 -0.1943 -0.2164 -0.3240
 1793W        W17262  16.039   8.954  13.680 -0.2759 -0.3129 -0.1465
 1794W        W17263   5.315   9.930  15.424 -0.1136  0.0117  0.1643
 1795W        W17264  12.529   0.029  15.416  0.1479 -0.2776 -0.0413
 1796W        W17265   4.563   2.890  15.150  0.2037 -0.0311  0.1114
 1797W        W17266  14.745   4.736   5.686 -0.2392 -0.1746 -0.1916
 1798W        W17267  17.584  16.413  15.400  0.0645  0.1963  0.1805
 1799W        W17268   1.873   1.228   1.302 -0.0782 -0.1872  0.0975
 1800W        W17269  12.264  16.862   6.230  0.1167  0.0317  0.1186
 1801W        W17270  12.718  16.116   1.260 -0.0535  0.1611  0.1718
 1802W        W17271   9.872  15.934  12.164 -0.0591 -0.3862  0.1449
 1803W        W17272  15.804   2.464  11.096 -0.2712 -0.5334 -0.2170
 1804W        W17273   4.479  17.016  14.302 -0.3327 -0.1699 -0.0632
 1805W        W17274  17.897   5.655  14.346 -0.0543 -0.0763  0.1174
 1806W        W17275   1.962  10.476   4.214  0.3496 -0.0428  0.2040
 1807W        W17276  13.234  17.231   4.313  0.1309 -0.0022  0.0847
 1808W        W17277  14.892  13.464   0.607  0.1009 -0.1189  0.0015
 1809W        W17278   0.588  12.503  14.408  0.3641 -0.2564  0.0522
 1810W        W17279   9.217   0.295   2.748 -0.0996 -0.0614  0.0749
 1811W        W17280   5.583  12.230   1.141  0.0459 -0.1446 -0.1387
 1812W        W17281   1.006  18.028   0.701 -0.0673  0.1529  0.1641
 1813W        W17282  17.513  13.138   0.199  0.0175  0.1091 -0.0518
 1814W        W17283  10.623  11.875   4.752  0.0550  0.1604  0.2190
 1815W        W17284   2.789   5.007   1.551 -0.1252 -0.0975  0.2117
 1816W        W17285  12.785  13.873   5.281  0.0171  0.2870  0.0695
 1817W        W17286   3.659   3.728  12.944  0.2654  0.0322  0.1062
 1818W        W17287  10.808   5.372   5.747 -0.2991  0.2347 -0.2238
 1819W        W17288   6.043   0.668   2.391 -0.1753  0.0083 -0.1044
 1820W        W17289   9.303   7.267   5.215  0.1684 -0.2248 -0.1474
 1821W        W17290   2.147   2.777  11.603  0.1165  0.1033 -0.1615
 1822W        W17291   7.291  15.116   2.774 -0.0106  0.2709  0.2051
 1823W        W17292  16.488   1.948   0.566 -0.0602  0.0816 -0.0563
 1824W        W17293  10.356  13.682   2.620  0.0498  0.1784  0.1734
 1825W        W17294   4.276  12.708   2.325 -0.1421  0.1366  0.0533
 1826W        W17295  11.886   9.987  12.523 -0.0014  0.0554 -0.2899
 1827W        W17296  14.821  11.468   1.679  0.1513  0.2443 -0.3765
 1828W        W17297   7.293   2.158   0.212  0.0598 -0.2524  0.2671
 1829W        W17298   3.036   7.024   4.080 -0.2895 -0.1443 -0.0874
 1830W        W17299  13.165   5.644   1.291 -0.3615 -0.1252 -0.0955
 1831W        W17300   7.898  10.841   2.159 -0.1493  0.3005  0.0461
 1832W        W17301  15.482   6.596   1.400 -0.0744  0.2495 -0.1828
 1833W        W17302   6.906   7.077  13.977  0.0528  0.2326 -0.1825
 1834W        W17303  11.166  17.720   5.751  0.0645 -0.2181  0.3552
 1835W        W17304   5.933   7.878  11.604  0.0439 -0.2662  0.1279
 1836W        W17305   8.570   6.368   1.377  0.1050 -0.0962  0.0176
 1837W        W17306   8.879  11.159  14.818 -0.0512 -0.0706  0.3534
 1838W        W17307   6.517   9.259  15.256  0.3087 -0.1260 -0.0890
 1839W        W17308  10.969  11.398   1.941  0.0198  0.1719 -0.1677
 1840W        W17309   0.750   1.269  14.127  0.2258 -0.3007  0.0680
 1841W        W17310   0.297  11.251  13.145 -0.0217  0.0023  0.1047
 1842W        W17311   8.357  10.051  12.372  0.1901 -0.2213 -0.1669
 1843W        W17312   7.785  16.496  12.117 -0.2608 -0.0607 -0.1502
 1844W        W17313  11.115  17.488  12.013 -0.2509  0.0754 -0.1703
 1845W        W17314  10.936  13.750   2.707 -0.1416  0.0410 -0.0770
 1846W        W17315   7.657   8.349   0.907  0.0215  0.0117  0.0128
 1847W        W17316   6.912  10.364  15.716 -0.2462 -0.1625  0.0376
 1848W        W17317   5.554   6.386   1.959  0.1755 -0.1887 -0.0773
 1849W        W17318  17.279   7.926  15.987 -0.0067  0.1568 -0.3122
 1850W        W17319   2.456   5.186   3.773  0.1695  0.0589  0.1315
 1851W        W17320  15.625   1.403  12.994 -0.1383 -0.1089 -0.0242
 1852W        W17321  17.084   9.970   1.877 -0.0902 -0.0797  0.0351
 1853W        W17322  10.322  10.204   2.204 -0.0850  0.3132  0.3409
 1854W        W17323  17.002   8.852  11.668 -0.0425  0.1744  0.3217
 1855W        W17324  17.881   3.116  12.893 -0.0623 -0.4134 -0.0319
 1856W        W17325   0.507   0.124  12.118 -0.2373 -0.0170  0.4544
 1857W        W17326   0.330   3.595   4.207 -0.0417  0.2442 -0.1782
 1858W        W17327  17.745   5.176  14.098  0.2332 -0.1747 -0.1493
 1859W        W17328   9.170  14.695  13.927 -0.1299  0.0395 -0.0242
 1860W        W17329  16.549   5.964  14.571 -0.2217  0.0004  0.0860
 1861W        W17330   3.877   2.478   3.045 -0.1696  0.0902 -0.2191
 1862W        W17331  17.065   2.997   3.500  0.2986 -0.2759 -0.0129
 1863W        W17332  15.496   4.844  14.621 -0.0079 -0.2776  0.1660
 1864W        W17333   1.378   2.512  11.156 -0.1160 -0.1876  0.0098
 1865W        W17334   8.269   1.462  10.296  0.1821  0.0643  0.0259
 1866W        W17335   9.946   8.719  16.250  0.0128  0.3794  0.3417
 1867W        W17336   9.823   7.189   5.566 -0.1050 -0.3374 -0.1913
 1868W        W17337   7.687   8.747  13.422  0.2285 -0.0981  0.0784
 1869W        W17338  11.516  15.121   1.514  0.3241 -0.0005 -0.1262
 1870W        W17339  11.245   2.119   4.699 -0.1002  0.1000 -0.0751
 1871W        W17340   0.997   8.194   2.908 -0.2440  0.0322  0.2336
 1872W        W17341   4.268  17.421   2.700 -0.0363 -0.1602 -0.0375
 1873W        W17342   7.851  17.800   4.902  0.4264 -0.2241  0.0028
 1874W        W17343  11.060  14.189   1.438  0.3790  0.0635  0.0200
 1875W        W17344   6.941  12.491   3.665  0.0686 -0.1032 -0.0618
 1876W        W17345  13.520   0.114  11.058  0.0302  0.0519 -0.0712
 1877W        W17346  12.898   6.886  13.299 -0.1301  0.0704 -0.0229
 1878W        W17347   1.985   4.462  14.956 -0.0397  0.1087 -0.1313
 1879W        W17348  16.541  17.759   0.696 -0.0405 -0.1874  0.1790
 1880W        W17349  16.175   3.935   4.177 -0.0191 -0.2585  0.1165
 1881W        W17350  11.763   9.604  15.694 -0.3386  0.0472  0.0669
 1882W        W17351   0.297   0.347  11.725  0.0384  0.0248  0.1225
 1883W        W17352   6.171   4.138   2.620 -0.0124 -0.0795 -0.0551
 1884W        W17353   0.089   8.164  14.478 -0.0121 -0.0151  0.1025
 1885W        W17354  12.038  13.074  11.268  0.0632  0.0125  0.3162
 1886W        W17355   5.495  17.498  14.449 -0.1543 -0.1270 -0.0613
 1887W        W17356   8.443  10.559  12.210 -0.3027 -0.3913  0.1607
 1888W        W17357   8.389   3.160  13.517  0.1328  0.1828 -0.2844
 1889W        W17358   9.373  15.344  13.545 -0.0645  0.0740 -0.2119
 1890W        W17359  10.617   7.076  14.395  0.0476 -0.1160 -0.5101
 1891W        W17360   7.810   9.035  11.430 -0.2291  0.4175 -0.2665
 1892W        W17361  17.779  10.049  16.281 -0.1660 -0.0722 -0.0526
 1893W        W17362  10.911   5.242   1.177 -0.1870 -0.0492  0.2211
 1894W        W17363   3.267  12.302  14.993 -0.2024  0.0363  0.1091
 1895W        W17364  12.969  10.031  12.373 -0.2351 -0.3670 -0.0393
 1896W        W17365   5.507   1.867   5.231  0.0788  0.0077  0.0568
 1897W        W17366  12.287   4.168  12.480  0.2122 -0.2683 -0.1489
 1898W        W17367  17.086   5.195   1.547 -0.1388  0.1582  0.4151
 1899W        W17368   1.494   9.334  14.983  0.1139  0.0867  0.2086
 1900W        W17369  12.200   1.172  14.516  0.2685 -0.3537  0.2046
 1901W        W17370   2.361  12.833  15.245  0.0025  0.0117  0.1154
 1902W        W17371  17.712  12.807   2.167 -0.2637  0.1159  0.3579
 1903W        W17372   2.698  12.986   3.570  0.2032 -0.2796 -0.3551
 1904W        W17373   4.793  14.122  11.997 -0.0179 -0.0843 -0.1857
 1905W        W17374  17.067   7.036  15.252  0.0617  0.1060 -0.0649
 1906W        W17375   8.200   2.687  13.598 -0.1233  0.2101  0.0539
 1907W        W17376   7.579   8.041  14.368  0.3463  0.1593 -0.0047
 1908W        W17377   0.842   3.157   4.810  0.0156  0.0503  0.1013
 1909W        W17378   9.230   4.769  12.445 -0.1381 -0.1716  0.1491
 1910W        W17379  12.252   4.400  15.860 -0.1426  0.0562 -0.2319
 1911W        W17380   0.912   2.244   2.106 -0.1943 -0.1272 -0.3367
 1912W        W17381   9.040   4.210  12.554  0.2281 -0.4091 -0.1505
 1913W        W17382   9.124   6.206   2.068 -0.1762 -0.0576 -0.1756
 1914W        W17383   5.833   6.395   1.058 -0.0075 -0.0171  0.0732
 1915W        W17384  13.931   9.577   3.247 -0.2592  0.0132 -0.2117
 1916W        W17385   0.481   2.244  11.494 -0.2014  0.0204 -0.4339
 1917W        W17386   5.011   5.454  16.056 -0.1797 -0.1534  0.0544
 1918W        W17387   8.236   5.400   5.044 -0.0562  0.0357  0.0020
 1919W        W17388  11.901  15.432   5.805 -0.1226  0.0655 -0.1597
 1920W        W17389   6.538   5.953  14.483 -0.2483  0.3074 -0.1718
 1921W        W17390   3.574  11.917   4.708 -0.1990  0.0158 -0.0300
 1922W        W17391  17.118  16.112   5.129 -0.0309 -0.2085  0.1288
 1923W        W17392   5.810  12.318   4.434  0.1776 -0.1103 -0.1383
 1924W        W17393   4.594  15.750   2.371 -0.0013  0.0954 -0.0412
 1925W        W17394  14.606   1.177  13.935  0.1185 -0.0690 -0.1498
 1926W        W17395   0.921  17.972   5.319  0.1580  0.2727 -0.0206
 1927W        W17396   4.129  17.277  12.187 -0.2972 -0.0115 -0.2404
 1928W        W17397  17.599  12.425  10.120 -0.1013  0.3724  0.2594
 1929W        W17398   7.239   6.077  15.711 -0.0786  0.0967  0.0928
 1930W        W17399   3.004   2.968  15.855  0.2210 -0.0637 -0.1250
 1931W        W17400   9.939   8.819   0.419 -0.2002  0.1565  0.2666
 1932W        W17401   5.145   2.075  11.832 -0.0764  0.2439  0.0431
 1933W        W17402  17.056  12.702   5.089 -0.0228  0.1260 -0.2337
 1934W        W17403   3.132   0.318   0.589 -0.1094 -0.1003 -0.1963
 1935W        W17404   0.947   5.852  14.184 -0.1506 -0.1884  0.0896
 1936W        W17405  11.003  17.509  11.134  0.1054  0.0766 -0.0312
 1937W        W17406   5.088  11.997   1.165 -0.4111 -0.2046  0.2512
 1938W        W17407   3.041   1.046   1.513 -0.0308 -0.0875  0.0327
 1939W        W17408   8.623   2.256   3.908 -0.2263 -0.1308 -0.0984
 1940W        W17409   8.649   6.158   3.379  0.1065 -0.2208 -0.0918
 1941W        W17410   6.186   5.947   1.017  0.2203 -0.3012 -0.0740
 1942W        W17411   7.719  11.230   4.230  0.2127  0.1944  0.2650
 1943W        W17412  11.170   5.284   0.618  0.0468  0.2392 -0.0750
 1944W        W17413   5.505  12.509  11.246 -0.0168  0.1249  0.0755
 1945W        W17414  17.784  10.324   2.332 -0.1104 -0.1426 -0.2857
 1946W        W17415  10.797  16.073   4.643 -0.0100 -0.4887 -0.0652
 1947W        W17416   8.855  15.946  13.311 -0.1282  0.1157 -0.3051
 1948W        W17417   9.647  10.940   6.298  0.0797  0.2068 -0.1973
 1949W        W17418   3.501   2.460   0.130 -0.0524 -0.0724 -0.0703
 1950W        W17419   5.312   4.600  15.817 -0.1241 -0.3080 -0.5019
 1951W        W17420  11.535   4.294   4.420  0.1141 -0.0818  0.2669
 1952W        W17421   4.558   0.799  13.951 -0.0145  0.0015 -0.1477
 1953W        W17422  17.817  14.357   4.831 -0.2487  0.0452  0.1234
 1954W        W17423  13.073   0.081  10.277  0.0326 -0.3641 -0.2882
 1955W        W17424  14.565  15.340  11.454 -0.2191  0.0020  0.2846
 1956W        W17425  10.220   3.738   2.032 -0.1932 -0.1369  0.0411
 1957W        W17426  12.329   9.261  12.106 -0.1589  0.1139 -0.0384
 1958W        W17427  15.185  10.281  15.451  0.2515 -0.0146  0.3039
 1959W        W17428  12.252  10.203  15.287  0.0823 -0.1100  0.0484
 1960W        W17429  14.888   2.316   5.220 -0.2327  0.0941 -0.0153
 1961W        W17430  17.345  13.623  11.116  0.0754  0.0244  0.4129
 1962W        W17431  15.251   4.007   5.963 -0.1499 -0.0432  0.0414
 1963W        W17432  17.114  10.832  11.590 -0.0086 -0.1562  0.1916
 1964W        W17433  17.651   5.955   2.438 -0.1911 -0.1007 -0.1467
 1965W        W17434   7.042  15.182  11.030 -0.1923  0.1035  0.0566
 1966W        W17435   5.863   2.347  16.154 -0.2576 -0.0835 -0.0591
 1967W        W17436   6.245   7.831   2.424  0.1562  0.0313  0.0772
 1968W        W17437   7.266  12.555  15.545 -0.1268  0.0963  0.0142
 1969W        W17438  14.814  11.142   2.956 -0.1754  0.1767  0.0678
 1970W        W17439  15.133   6.986  10.842 -0.1861 -0.0087  0.3801
 1971W        W17440  13.576   2.136   0.798 -0.0566  0.0826  0.0281
 1972W        W17441  12.039   8.675  11.775 -0.0479 -0.0140 -0.3135
 1973W        W17442  10.494   3.753   5.707 -0.2454  0.0376 -0.1777
 1974W        W17443  10.140   2.668   1.680 -0.0260  0.0520  0.0420
 1975W        W17444  11.094  15.820   2.847 -0.0316 -0.4399 -0.2738
 1976W        W17445   9.296   5.241   6.771 -0.1510 -0.1706  0.0954
 1977W        W17446   1.250   3.339  16.282  0.2032  0.2123  0.2488
 1978W        W17447   9.576  10.330   0.793  0.3748  0.1235 -0.0977
 1979W        W17448  10.157   7.499   4.038 -0.2930  0.2989  0.0032
 1980W        W17449   1.286   7.204  14.574  0.3547 -0.0798 -0.1474
 1981W        W17450   4.169   5.508   2.288 -0.0835 -0.0204  0.1111
 1982W        W17451  10.143   9.502  16.003  0.2312  0.2100 -0.3117
 1983W        W17452   6.883   8.256  11.567  0.2370 -0.0208 -0.3181
 1984W        W17453  14.968   5.356  11.034  0.1352  0.1982 -0.2956
 1985W        W17454   2.962  15.480   1.124  0.2711  0.0748 -0.1078
 1986W        W17455   1.335   2.356  14.989  0.2302  0.0549 -0.0525
 1987W        W17456  16.753   9.342  15.765  0.0588  0.1871 -0.4484
 1988W        W17457   0.834  10.713  12.068  0.0306 -0.0459  0.1672
 1989W        W17458   3.785   8.082  11.311 -0.1114 -0.1868  0.2157
 1990W        W17459   3.192   9.249   0.060 -0.0009  0.0885 -0.1740
 1991W        W17460   7.710   7.954  12.302  0.0240  0.2581 -0.0871
 1992W        W17461  17.270   0.835   4.756  0.0785 -0.2303 -0.1999
 1993W        W17462  17.326   3.395  15.989 -0.1122 -0.1993 -0.0075
 1994W        W17463  16.668   7.388  15.303  0.1512  0.1621  0.0621
 1995W        W17464  13.563  17.136  12.677  0.1665  0.0957 -0.1304
 1996W        W17465  12.811  14.374  12.003 -0.0577  0.1263 -0.1153
 1997W        W17466   4.604   9.219  15.272  0.1206  0.1986 -0.2419
 1998W        W17467   7.803  17.384  16.145  0.2558 -0.0622  0.0644
 1999W        W17468   2.804   7.038  11.144 -0.0244 -0.0040  0.0584
 2000W        W17469   1.253   6.076   0.505 -0.1066 -0.1045  0.0063
 2001W        W17470   0.675  17.645   6.114  0.2059 -0.0754 -0.0321
 2002W        W17471   5.742   6.690  13.163  0.3615  0.0803 -0.2940
 2003W        W17472  17.575   2.662   5.312  0.1041  0.1895  0.1213
 2004W        W17473  13.183  10.980   4.916  0.2985 -0.1191 -0.1677
 2005W        W17474  17.448   7.255  11.429  0.1804 -0.3395 -0.2064
 2006W        W17475   6.927   4.694   3.740 -0.0442  0.0631 -0.0667
 2007W        W17476   8.139   8.632   2.610 -0.2495  0.1544 -0.2170
 2008W        W17477  13.350   7.221   4.860 -0.1699  0.2242  0.0449
 2009W        W17478   8.686  12.271   2.635 -0.4370 -0.0574 -0.1383
 2010W        W17479   3.810   2.422   1.258  0.3296  0.2126  0.0941
 2011W        W17480   2.409  16.848   1.342 -0.0431  0.0774  0.0865
 2012W        W17481   1.962   0.807  12.955 -0.3282  0.0117  0.4305
 2013W        W17482  11.041   9.771   2.447 -0.1189  0.3048  0.2843
 2014W        W17483  12.034  17.821   2.492  0.1484 -0.1907  0.0518
 2015W        W17484   0.724  13.312   4.406 -0.1114  0.1948  0.4844
 2016W        W17485   0.096   4.732   2.351 -0.0523  0.0104  0.3556
 2017W        W17486  11.164   4.520   5.007  0.0460 -0.1086  0.1933
 2018W        W17487   3.201   3.822  11.394  0.0365 -0.0454 -0.4870
 2019W        W17488   2.258  17.679   0.861  0.1392 -0.1356 -0.3023
 2020W        W17489   7.475  17.625  11.551 -0.0963  0.1395  0.2403
 2021W        W17490  12.394  11.043   5.712  0.2868  0.0426 -0.1414
 2022W        W17491   8.933   2.914   3.128  0.0836  0.1995  0.0504
 2023W        W17492  17.419  13.483  14.717  0.1806  0.0183  0.0118
 2024W        W17493  13.407   5.521   2.717  0.1857  0.0541 -0.3743
 2025W        W17494  17.103  13.878   3.287  0.0354  0.2922 -0.2395
 2026W        W17495   4.260   8.506  13.559 -0.0411  0.0843 -0.0782
 2027W        W17496  10.041  12.461  14.036  0.0703 -0.0075 -0.0977
 2028W        W17497   8.846   8.008  15.826  0.3790 -0.2241  0.1168
 2029W        W17498   1.650  16.114   0.243 -0.0837 -0.0083  0.0154
 2030W        W17499   1.904  12.212   5.090  0.0316  0.0606  0.0019
 2031W        W17500   3.078  10.450   5.732  0.0979  0.1408 -0.1059
 2032W        W17501   1.712   3.856   4.633  0.3294 -0.0423 -0.1010
 2033W        W17502  11.884   7.965   2.431  0.2700 -0.0504  0.1478
 2034W        W17503   1.949   6.690  15.137 -0.1220  0.0508 -0.1468
 2035W        W17504   4.664   3.665  15.323 -0.2712  0.1156  0.3413
 2036W        W17505   0.989   5.496   1.502  0.1107 -0.0905 -0.0332
 2037W        W17506  11.443   5.641   0.821  0.1282 -0.4107 -0.1276
 2038W        W17507   4.629  10.505   4.825  0.1453  0.0260 -0.0765
 2039W        W17508   9.411  17.261   4.868  0.2689 -0.3371  0.2127
 2040W        W17509   3.820   1.502   0.704 -0.1983  0.1884 -0.1236
 2041W        W17510  15.484  16.866   3.405  0.1091 -0.2181  0.0306
 2042W        W17511   7.721  10.021   2.331  0.1551 -0.3636 -0.3123
 2043W        W17512   7.557  11.665  11.744 -0.0895 -0.1312  0.2335
 2044W        W17513   1.549   9.863  15.277 -0.3440 -0.1811 -0.2337
 2045W        W17514   4.876  17.815  14.394 -0.0010  0.0682 -0.0008
 2046W        W17515  11.417   3.256   1.526 -0.0353 -0.2319  0.0418
 2047W        W17516   4.461   3.540  11.156  0.1166 -0.2722  0.0681
 2048W        W17517  14.867  14.366   1.761  0.0524 -0.1224 -0.0029
 2049W        W17518   5.523   6.347  14.563 -0.1270 -0.0101  0.2372
 2050W        W17519  11.602  13.953  11.528 -0.1275 -0.2108 -0.5184
 2051W        W17520  12.395  15.172  11.148  0.2418 -0.0127 -0.1427
 2052W        W17521   4.340   8.536  12.566  0.3174 -0.2180  0.0325
 2053W        W17522  10.539   0.264   4.794  0.0163 -0.0279  0.2140
 2054W        W17523  16.048  12.522  12.172  0.0771  0.4555  0.1269
 2055W        W17524  13.657   1.102  14.126  0.5881 -0.1490 -0.0503
 2056W        W17525  17.960   8.890  13.464  0.1613 -0.3803  0.2505
 2057W        W17526  14.780  10.751   3.354 -0.0488 -0.0706  0.3258
 2058W        W17527  15.347   7.619  12.020 -0.1806 -0.1237 -0.0431
 2059W        W17528   0.755   9.377   2.537  0.1776 -0.2080  0.2075
 2060W        W17529  16.071   6.348   4.482  0.1271 -0.2965  0.0695
 2061W        W17530   8.323   3.257   4.952 -0.0223 -0.0056  0.1442
 2062W        W17531   3.820   0.582  14.092  0.0441 -0.1863 -0.0551
 2063W        W17532  13.900   9.637  13.364 -0.1328  0.4185  0.1797
 2064W        W17533   9.832   6.217  11.387 -0.1797 -0.1231  0.3075
 2065W        W17534   8.993   3.418   3.602  0.0763  0.2897  0.0318
 2066W        W17535   1.600   1.563   0.947  0.0137 -0.2221 -0.0648
 2067W        W17536  11.206  15.393   1.857  0.1766  0.0385 -0.2059
 2068W        W17537   5.016   1.967  13.418  0.1993  0.1921 -0.4666
 2069W        W17538   1.601  16.490   0.638  0.0305 -0.0104 -0.2000
 2070W        W17539  12.264   4.744  14.976 -0.1809 -0.0440 -0.1678
 2071W        W17540  15.261  10.145   1.636  0.1964  0.1832  0.2159
 2072W        W17541  12.768   2.475  14.634  0.0465  0.2567 -0.1341
 2073W        W17542  13.597  16.065   1.415  0.0029  0.2132  0.2313
 2074W        W17543   3.747   7.230   3.613  0.2934  0.1371 -0.0189
 2075W        W17544   1.034   0.969   2.505 -0.2378  0.1225 -0.0736
 2076W        W17545   5.753  10.658  14.255 -0.1029 -0.1381 -0.0753
 2077W        W17546  13.391   2.615   0.997 -0.0813  0.1591 -0.2335
 2078W        W17547   8.917   1.297   0.953 -0.1618  0.2068 -0.2795
 2079W        W17548  12.879  16.239  16.212 -0.1059 -0.0371 -0.0911
 2080W        W17549  14.611  16.219   0.728 -0.1315  0.0980 -0.2486
 2081W        W17550   4.456  14.277   3.884  0.1040 -0.0340 -0.0496
 2082W        W17551  17.346   5.454  15.508  0.0006 -0.3873 -0.0699
 2083W        W17552   9.592  11.598  14.585 -0.3085 -0.1551 -0.3045
 2084W        W17553  14.552  17.791   5.740  0.2552 -0.5499  0.1722
 2085W        W17554   7.840  12.086  15.744 -0.2178 -0.1081 -0.0958
 2086W        W17555  17.974  16.304   1.292  0.4163  0.0333 -0.0281
 2087W        W17556   3.237  11.007   4.770  0.0139 -0.1331  0.2202
 2088W        W17557   4.444   1.431   1.997 -0.2142  0.2439  0.2131
 2089W        W17558   3.350  10.866  12.219 -0.1410 -0.3126 -0.1348
 2090W        W17559  14.046   0.729   5.277 -0.0492  0.0528 -0.3198
 2091W        W17560  11.222  17.435  15.604 -0.1199 -0.2691 -0.0978
 2092W        W17561  10.176  17.084   3.966 -0.1796 -0.0544  0.4178
 2093W        W17562   9.045  13.325   4.717  0.2230 -0.3275 -0.1064
 2094W        W17563   5.928   5.227   2.824 -0.2047 -0.0512  0.1315
 2095W        W17564   9.637   0.906   1.523 -0.1345  0.3569  0.0252
 2096W        W17565   8.566  11.888   2.990 -0.1592  0.0638 -0.1102
 2097W        W17566  10.802   0.450  11.800  0.1053  0.1191  0.0904
 2098W        W17567   0.799   8.168  11.677  0.2521 -0.1316 -0.0685
 2099W        W17568  11.922   0.908  12.220  0.0618  0.2261 -0.0818
 2100W        W17569  17.618  13.084  15.077  0.1895 -0.2263 -0.1351
 2101W        W17570   3.676  15.519   4.469 -0.0567  0.3822 -0.2209
 2102W        W17571  12.544  15.415  11.591 -0.4215  0.0761 -0.0989
 2103W        W17572  13.203  10.004   6.312 -0.3006  0.0222 -0.5911
 2104W        W17573   7.076  13.544   3.645 -0.0513 -0.0016 -0.1355
 2105W        W17574   6.278  16.394   5.224  0.0682  0.1185 -0.0716
 2106W        W17575   4.969  11.763  14.438 -0.2126  0.0094  0.0159
 2107W        W17576  17.466   4.926  13.505 -0.0645 -0.2119 -0.0388
 2108W        W17577  17.587  13.159  15.569 -0.1563  0.1206 -0.0416
 2109W        W17578   9.051  13.733   0.900 -0.1641 -0.0559  0.0172
 2110W        W17579  15.117   0.188   4.601 -0.1878 -0.0079 -0.1761
 2111W        W17580  11.396  12.635  12.627  0.1401 -0.2944  0.0997
 2112W        W17581   4.206   5.797   0.663  0.2886  0.0493  0.0171
 2113W        W17582   8.411   3.550  14.300 -0.1390 -0.0828 -0.1251
 2114W        W17583  16.745  10.786  15.470  0.0630  0.3738  0.1124
 2115W        W17584  10.855  12.696   1.237  0.0963 -0.2018 -0.0593
 2116W        W17585  15.430  17.123  13.844 -0.4479  0.1700 -0.1431
 2117W        W17586   9.893   2.447   0.434  0.0938 -0.1448  0.0678
 2118W        W17587  13.300  10.163  14.359  0.1119  0.2725 -0.2951
 2119W        W17588   0.117  15.656   1.002 -0.0106 -0.1211  0.1503
 2120W        W17589   6.230   5.567  12.544 -0.1946  0.3708 -0.0111
 2121W        W17590  15.808  10.933   3.428  0.1406 -0.0754 -0.0436
 2122W        W17591   4.731   6.351   0.012 -0.3938 -0.0667  0.0344
 2123W        W17592   4.675   8.855   5.383  0.3063 -0.0781  0.3135
 2124W        W17593   1.223   6.462  11.844 -0.3166  0.0007  0.0460
 2125W        W17594   9.495  15.984   4.102 -0.1696 -0.1292  0.0340
 2126W        W17595   0.378  14.012  15.121  0.3118 -0.2811  0.0285
 2127W        W17596  15.323  17.434   2.008 -0.1691  0.0714 -0.2629
 2128W        W17597   8.398   7.302   4.939 -0.0400  0.0013  0.1619
 2129W        W17598   9.210   0.239   3.320  0.0799 -0.3146  0.0355
 2130W        W17599  10.025  17.623  14.502  0.0711  0.0337 -0.3087
 2131W        W17600  13.996   6.620  16.285 -0.3713 -0.1163 -0.1525
 2132W        W17601  10.852   6.468  12.761  0.0251 -0.0865  0.2381
 2133W        W17602  11.419  10.237  15.111 -0.0122  0.0053 -0.0145
 2134W        W17603   9.011   5.303  15.907  0.1448 -0.4138  0.1348
 2135W        W17604   1.908  16.419   3.248  0.0810 -0.0858  0.0667
 2136W        W17605  10.978  14.542  10.833 -0.0684 -0.0807  0.2698
 2137W        W17606   8.992   6.433  10.170 -0.0794 -0.2770 -0.1674
 2138W        W17607  16.864   0.723  13.163  0.0500  0.1506  0.1591
 2139W        W17608  15.680   7.037   2.354  0.0657 -0.0158  0.1783
 2140W        W17609   6.527   0.709   2.256 -0.0593  0.0345 -0.1327
 2141W        W17610  13.580   2.516  14.468  0.1415 -0.1166 -0.2036
 2142W        W17611   7.475  17.039   3.235  0.1982 -0.1164 -0.0950
 2143W        W17612  12.271   0.154  13.336 -0.2263  0.2397 -0.1306
 2144W        W17613   3.109  13.593  16.220  0.0491  0.1220 -0.1060
 2145W        W17614  15.845  17.653   0.622 -0.0224 -0.3418  0.0091
 2146W        W17615  14.068   7.833  12.894 -0.1352  0.1715  0.0421
 2147W        W17616   6.694  16.410  16.169  0.0043 -0.0155  0.3413
 2148W        W17617  15.904   1.017  12.847  0.0890 -0.0392 -0.0873
 2149W        W17618  16.891  15.635   5.310 -0.0016 -0.3339  0.0941
 2150W        W17619  12.529   8.814  14.145  0.1687  0.0955  0.1577
 2151W        W17620  15.198   5.802  11.301  0.3275 -0.1475  0.0728
 2152W        W17621  15.677   4.774  14.084  0.1399 -0.1378  0.0934
 2153W        W17622  15.151  11.840   1.552 -0.0827 -0.1307 -0.0971
 2154W        W17623  12.927   3.388  15.939  0.1763 -0.1933  0.0534
 2155W        W17624   6.604  12.565   4.774 -0.0045 -0.0304 -0.0265
 2156W        W17625   7.154  11.466  11.988  0.2681  0.0046  0.0385
 2157W        W17626  13.142  12.490  11.426 -0.0356  0.0602 -0.0615
 2158W        W17627  16.569  13.408   0.607 -0.0321 -0.2359 -0.0782
 2159W        W17628  16.154  17.556   2.998 -0.0619 -0.0369 -0.1695
 2160W        W17629   8.475  15.366  12.988  0.0615  0.2055  0.0621
 2161W        W17630   6.652   9.139   0.531  0.2807 -0.2966  0.0874
 2162W        W17631   8.947   3.725  13.100 -0.2604 -0.0889  0.2268
 2163W        W17632  10.681   3.733   3.829  0.0715  0.2400  0.1518
 2164W        W17633   0.482  13.249   0.848  0.0692 -0.0716  0.0992
 2165W        W17634   3.320   1.624  15.254  0.1880 -0.1186  0.4409
 2166W        W17635  17.936   5.206  13.609  0.1787  0.2312 -0.2303
 2167W        W17636  17.913   9.617   1.735  0.0168 -0.0648  0.0724
 2168W        W17637  15.441   7.679  13.705  0.1830  0.0519 -0.3560
 2169W        W17638   6.857   1.076   2.378  0.0014 -0.3281  0.0722
 2170W        W17639   6.930   1.185   1.063  0.2082 -0.2726 -0.0630
 2171W        W17640   5.522   8.287  14.131  0.0399 -0.1508 -0.1364
 2172W        W17641  16.809   8.452   4.902 -0.2652  0.0646  0.0513
 2173W        W17642  10.945  16.542   1.600  0.1510  0.0795  0.2398
 2174W        W17643   2.863  17.444  15.956  0.1069 -0.2270  0.2183
 2175W        W17644  17.544   2.308  13.358 -0.0865  0.1968  0.1500
 2176W        W17645   4.958   7.271   2.646 -0.1923 -0.1593  0.1156
 2177W        W17646  16.570  14.725  12.741 -0.3078 -0.1443  0.0162
 2178W        W17647  10.246  14.077  13.509  0.1786  0.3718 -0.2720
 2179W        W17648   3.692   4.360  14.592 -0.0878  0.1263  0.0542
 2180W        W17649  12.359   4.925  13.279  0.0251  0.0171 -0.0237
 2181W        W17650  15.245   8.913  11.713  0.1781 -0.3222  0.4887
 2182W        W17651  11.209  11.722  13.125 -0.2096 -0.1940  0.2205
 2183W        W17652   6.048  14.533   4.672 -0.0676 -0.2360  0.1557
 2184W        W17653   5.040  11.814  15.884 -0.0010  0.1761 -0.1544
 2185W        W17654   6.063   8.368  11.548 -0.1203 -0.5337 -0.1519
 2186W        W17655  12.276  11.683   1.831  0.0857  0.1908  0.0618
 2187W        W17656   9.191   0.951   5.873  0.0159  0.2341  0.3159
 2188W        W17657  18.024  12.508   4.573  0.2769  0.0916 -0.1097
 2189W        W17658   7.631  10.921   4.887  0.2963  0.0964 -0.2251
 2190W        W17659  15.842   8.482  11.096  0.0794  0.0013 -0.0717
 2191W        W17660  10.248   9.983   2.651 -0.3183  0.0086  0.2495
 2192W        W17661   2.716  13.546   1.930 -0.1862  0.1691  0.1958
 2193W        W17662   8.129   1.116   0.382  0.1174  0.2289 -0.6552
 2194W        W17663   1.839   2.818  15.694  0.0213  0.2572 -0.1260
 2195W        W17664  11.975   7.788  15.856 -0.1478 -0.0742 -0.1963
 2196W        W17665   8.756  10.898   3.196  0.0811 -0.0254  0.0527
 2197W        W17666  11.507   4.809  11.644 -0.1177  0.1826 -0.3977
 2198W        W17667  15.086  16.682   4.880 -0.0973 -0.0856 -0.3519
 2199W        W17668   8.783  13.453   5.630  0.0457 -0.2860  0.0337
 2200W        W17669   1.062   4.724   2.795  0.4239  0.0562  0.0697
 2201W        W17670  10.018  14.043  15.226 -0.1982 -0.2731  0.1057
 2202W        W17671  17.645  13.068  14.539  0.0567  0.2722 -0.1643
 2203W        W17672   8.516  15.938   1.562  0.0559  0.0072  0.0578
 2204W        W17673  13.550  14.293   4.582 -0.2464  0.2786  0.1448
 2205W        W17674  12.403   9.036   1.205  0.1027  0.2387  0.1444
 2206W        W17675   5.928  11.244  11.441  0.0392 -0.1019  0.0975
 2207W        W17676  10.766   7.135  14.903  0.0884  0.1401  0.0164
 2208W        W17677  13.699  14.184   5.937  0.1811  0.0740 -0.1934
 2209W        W17678  10.225  15.293   4.179 -0.3764  0.0398  0.1983
 2210W        W17679   7.063   3.851   2.892 -0.2667 -0.0291 -0.3355
 2211W        W17680  15.023   8.636   5.540 -0.2720  0.1654  0.0289
 2212W        W17681  10.780   7.536  14.511  0.2197  0.0538 -0.1083
 2213W        W17682  16.327   6.806   6.014  0.0306  0.0811 -0.2949
 2214W        W17683  14.507   6.044   3.405 -0.1640 -0.1557 -0.0431
 2215W        W17684   0.708  11.320   0.689  0.1085  0.2285  0.3631
 2216W        W17685   4.307  16.484   0.000  0.1535 -0.1267 -0.1270
 2217W        W17686   7.006  13.087  11.698 -0.2918  0.3408 -0.1736
 2218W        W17687  13.767   6.262   2.241  0.0031 -0.0262  0.1607
 2219W        W17688  13.805   6.646  13.267 -0.0722  0.3634 -0.2494
 2220W        W17689  15.233  14.076   3.517  0.0897  0.0743 -0.0442
 2221W        W17690   7.706  11.375   4.796 -0.2161  0.1667 -0.1814
 2222W        W17691   3.125   0.421   1.498  0.1275  0.0744  0.2404
 2223W        W17692  16.997   4.743   3.591  0.2312  0.0507  0.0198
 2224W        W17693   4.537  14.299  15.837  0.1946 -0.0053 -0.0253
 2225W        W17694  11.792  14.387  11.939 -0.0158 -0.1697 -0.3414
 2226W        W17695   7.014  14.711   0.988 -0.1232 -0.1844 -0.3020
 2227W        W17696   5.316  14.885  11.160  0.1542 -0.1024  0.2272
 2228W        W17697   9.663   7.661   5.474  0.0188 -0.0444 -0.2163
 2229W        W17698   9.975  17.602   2.104  0.1751  0.1164 -0.1027
 2230W        W17699   1.138   9.444  12.976  0.3343 -0.1536 -0.4042
 2231W        W17700  15.808   0.507  11.792  0.3820  0.2531 -0.0928
 2232W        W17701   9.703  14.542   1.056  0.0680 -0.1317  0.0126
 2233W        W17702   9.790  15.978  11.177  0.0564 -0.2037 -0.1636
 2234W        W17703  12.566  12.642   4.757 -0.1139  0.0334  0.1004
 2235W        W17704   8.900  15.801   2.920  0.1165 -0.0415  0.0614
 2236W        W17705   3.644   4.465  11.988 -0.0613 -0.0591 -0.0047
 2237W        W17706  11.421   5.761  10.831  0.0528 -0.1112 -0.1575
 2238W        W17707  10.251   6.438  13.304  0.1021  0.2260 -0.2319
 2239W        W17708  13.508  13.709   2.318  0.1943 -0.0274  0.0389
 2240W        W17709   6.246   3.053   3.967  0.0371 -0.0784  0.0158
 2241W        W17710   1.402  10.090  12.875  0.2124 -0.0160 -0.1512
 2242W        W17711  15.240  16.255   2.878 -0.0761 -0.1650  0.1536
 2243W        W17712   2.390   2.079   4.336 -0.1651  0.2717 -0.0616
 2244W        W17713  17.090  15.641   3.191 -0.1514 -0.2394  0.4007
 2245W        W17714  18.057   8.638   4.921 -0.2965 -0.1767  0.4715
 2246W        W17715  13.581  15.496  13.423 -0.3249  0.3032  0.2025
 2247W        W17716  11.035  14.041   0.940 -0.1551  0.0380 -0.0422
 2248W        W17717   3.476   9.775  15.267  0.1658 -0.0717  0.2112
 2249W        W17718  14.141  15.147   3.807 -0.0876  0.0206 -0.1792
 2250W        W17719  13.924  15.510   2.227 -0.1574  0.1730  0.4491
 2251W        W17720  10.547   6.331   2.121  0.0737 -0.3109  0.2204
 2252W        W17721  11.664  14.842  13.422  0.0715  0.1085  0.0451
 2253W        W17722   2.078  10.723   5.544 -0.0835  0.0348 -0.0716
 2254W        W17723   0.483   7.726   3.419 -0.1912 -0.0512  0.1617
 2255W        W17724  10.229  17.758   1.163 -0.0246  0.1224  0.0117
 2256W        W17725   3.897   8.255  13.880  0.2997  0.0309 -0.3350
 2257W        W17726   8.460  16.479  13.737 -0.2435 -0.1158 -0.0155
 2258W        W17727   8.450   9.433  13.617 -0.0481 -0.1269 -0.0492
 2259W        W17728   0.627   6.507   3.807 -0.1238  0.4369 -0.0190
 2260W        W17729  12.132  17.724   5.488 -0.0595 -0.1333  0.1623
 2261W        W17730   8.574  13.976  13.227  0.0391 -0.0311  0.1623
 2262W        W17731   4.916  11.640   5.376 -0.1699  0.1797  0.1403
 2263W        W17732  14.279  11.635  11.659  0.3197 -0.0635  0.2089
 2264W        W17733   2.599  17.452   2.586 -0.1946  0.0325  0.1847
 2265W        W17734  17.057   7.754   1.195  0.5823 -0.1852 -0.0765
 2266W        W17735   3.467   2.932   5.043 -0.1023  0.0185  0.0034
 2267W        W17736  15.441  16.323  11.362 -0.0355  0.1735  0.2373
 2268W        W17737   7.216   0.623   0.245 -0.1094  0.0752  0.2809
 2269W        W17738  17.577   8.151   0.699  0.0832 -0.2186  0.0908
 2270W        W17739   2.060   5.323   5.547  0.0939 -0.2771  0.1924
 2271W        W17740   8.365  11.392   5.037  0.1524 -0.0113 -0.2403
 2272W        W17741   3.425   3.952   4.751 -0.1223  0.0035 -0.1277
 2273W        W17742  11.881  13.688   1.975  0.3192 -0.1414  0.1376
 2274W        W17743  10.297   8.373   4.265 -0.2662  0.0809 -0.0407
 2275W        W17744  10.176  11.771   3.021 -0.1525  0.0984  0.2788
 2276W        W17745  11.694  17.162   1.348  0.1639 -0.1464 -0.0773
 2277W        W17746   4.398  10.363  16.300  0.0314 -0.1182 -0.0326
 2278W        W17747   4.519   2.772  14.620 -0.1575 -0.0738  0.2328
 2279W        W17748   7.921  16.229  15.515  0.1306 -0.0345 -0.2844
 2280W        W17749   3.530   5.657  16.140 -0.0658  0.0762  0.1501
 2281W        W17750   3.255   9.945  11.738 -0.0488  0.2328  0.2864
 2282W        W17751   4.723  14.351  12.694 -0.1441  0.0174  0.1903
 2283W        W17752   6.219   3.694   1.614 -0.0542  0.0934 -0.0239
 2284W        W17753  10.594   2.540   2.612  0.1833  0.1121 -0.2291
 2285W        W17754   5.523  17.226   0.095  0.0181  0.1308 -0.1743
 2286W        W17755   2.182   3.535   5.090 -0.0715  0.2184 -0.0927
 2287W        W17756  17.832  11.151   2.838  0.0403  0.0059 -0.0223
 2288W        W17757  12.532  16.178  11.746 -0.0393  0.2698  0.0788
 2289W        W17758   5.324   7.352  15.556 -0.0493 -0.1419 -0.2325
 2290W        W17759  17.543   2.593  14.592 -0.1448 -0.0948  0.1461
 2291W        W17760   7.593  16.424  14.671  0.0544  0.0488  0.2253
 2292W        W17761   8.121   1.987   3.469  0.2012 -0.1485  0.0158
 2293W        W17762   1.528   9.348   0.189 -0.3156 -0.2004 -0.2126
 2294W        W17763   5.613   8.024   2.694  0.3163 -0.1754 -0.0825
 2295W        W17764  12.851   5.642   2.785 -0.1088  0.0350 -0.1038
 2296W        W17765   3.236  16.034   2.645 -0.0366 -0.0844 -0.1465
 2297W        W17766   2.801  13.174   1.104  0.0664  0.0129  0.3742
 2298W        W17767  12.083   3.187  15.668  0.0574 -0.0868  0.1055
 2299W        W17768   5.522  15.740  12.783 -0.0459  0.0445  0.0585
 2300W        W17769  15.484   8.635   5.104  0.2074 -0.0126  0.3636
 2301W        W17770   1.252   6.389  15.541  0.3711  0.3577 -0.2616
 2302W        W17771  11.899   5.854  13.465 -0.0683  0.0756 -0.2355
 2303W        W17772  17.182   2.050   3.046 -0.2153  0.0798 -0.0062
 2304W        W17773  17.519  16.182  11.831 -0.0513 -0.4392 -0.1578
 2305W        W17774  15.109   7.848   3.903  0.0999  0.1575 -0.1796
 2306W        W17775   8.733   9.219   2.150  0.1790 -0.0870 -0.2298
 2307W        W17776   9.657  10.428  11.871 -0.2684  0.1907  0.0497
 2308W        W17777  10.260  12.769  15.330 -0.0596  0.2904  0.0146
 2309W        W17778  11.986   8.986  13.885  0.2964 -0.2227  0.1858
 2310W        W17779  12.989  12.897  13.760 -0.0100 -0.1605  0.4786
 2311W        W17780   7.099   4.731  11.414  0.0178  0.0565 -0.1383
 2312W        W17781  17.735  13.837   1.392  0.2358 -0.2640 -0.1735
 2313W        W17782  14.658   2.034   1.797 -0.0004 -0.1815  0.1513
 2314W        W17783   7.856   6.537  13.066 -0.1415 -0.3424  0.3296
 2315W        W17784   9.385  10.710  14.208  0.0299 -0.0026  0.0470
 2316W        W17785  17.338  16.658  11.011  0.1215  0.1050 -0.2156
 2317W        W17786  13.520   4.929  16.056  0.2961 -0.1312  0.1382
 2318W        W17787   7.204   7.517  15.186 -0.1114 -0.1943 -0.1203
 2319W        W17788   5.075   8.493  14.302 -0.0291 -0.4150 -0.0039
 2320W        W17789   3.982   9.653  16.320  0.2429 -0.0767 -0.2274
 2321W        W17790  11.374   3.212   2.551 -0.1317  0.0972  0.1301
 2322W        W17791  12.622  13.177  13.213  0.0700  0.0375 -0.3421
 2323W        W17792   2.399   4.622  11.582 -0.0023 -0.2198 -0.1494
 2324W        W17793  15.697   9.889   3.745 -0.0291  0.1054  0.2075
 2325W        W17794   5.965   6.095  12.482  0.0759 -0.0610  0.0106
 2326W        W17795  10.798   4.120   5.173  0.0409  0.2015  0.2687
 2327W        W17796   7.731   6.175   3.064  0.1300 -0.1002 -0.2026
 2328W        W17797   3.381   9.735  12.206  0.0795  0.1136 -0.0816
 2329W        W17798  14.890  14.199  15.765 -0.0701 -0.0044 -0.0258
 2330W        W17799  13.219   7.851   1.549 -0.0248 -0.2980  0.0077
 2331W        W17800  16.875   3.925   4.987 -0.2615 -0.1517 -0.2011
 2332W        W17801  14.310   5.235   1.774  0.1656  0.0565  0.1345
 2333W        W17802   1.863   1.826   1.350 -0.3106  0.0995 -0.0701
 2334W        W17803   3.547   7.293  12.882  0.0425  0.2865  0.2106
 2335W        W17804   8.063   1.876   5.784  0.0794 -0.2335 -0.1811
 2336W        W17805   5.833   6.183  15.110 -0.1588  0.1383 -0.2534
 2337W        W17806   5.421  11.395  10.151 -0.1911 -0.3117  0.2469
 2338W        W17807   7.553  16.896  14.999  0.0283 -0.1069  0.2245
 2339W        W17808   0.540   5.603  16.280  0.0395 -0.2785  0.2945
 2340W        W17809   7.146  14.583   0.048  0.4174  0.3427  0.3150
 2341W        W17810  15.103   1.967   3.289  0.0943  0.1321  0.0199
 2342W        W17811   2.126   1.072  15.136  0.0694  0.0084 -0.3299
 2343W        W17812  13.528   7.700   1.269  0.0348 -0.0475  0.0571
 2344W        W17813   7.848  13.678  11.686  0.0226  0.2832  0.0359
 2345W        W17814  16.464   2.740  14.804 -0.1009  0.0212  0.1562
 2346W        W17815   7.480   5.433   1.394  0.1178  0.2154  0.2232
 2347W        W17816  10.761   8.771  13.867 -0.3572 -0.2484 -0.0554
 2348W        W17817   0.637  17.049  10.569 -0.1634 -0.0254  0.0926
 2349W        W17818  12.710   2.609   3.595 -0.0159 -0.0331 -0.2963
 2350W        W17819  14.119   4.052   4.256  0.1194  0.0100 -0.1293
 2351W        W17820   0.515  14.559  14.018 -0.1855 -0.0785 -0.1208
 2352W        W17821  17.727  16.804   4.021 -0.0222 -0.1281  0.2862
 2353W        W17822   9.182   8.431   2.560 -0.0475 -0.0090  0.1951
 2354W        W17823   5.084  10.454   2.644 -0.2870 -0.0690  0.1943
 2355W        W17824  16.242   5.525   0.922  0.2809 -0.2042 -0.0218
 2356W        W17825  16.555  15.826   5.640 -0.0205  0.0339 -0.0483
 2357W        W17826  17.442  15.649  12.592  0.1158 -0.0280 -0.1529
 2358W        W17827   6.930   3.394  16.204 -0.3276 -0.0923 -0.1704
 2359W        W17828   1.348  12.711   3.382 -0.0329  0.2615 -0.3268
 2360W        W17829  16.457   3.248   2.828  0.0750 -0.3348 -0.1204
 2361W        W17830   7.303  11.048  12.204 -0.1882 -0.1951 -0.0091
 2362W        W17831   0.881   5.551  13.278  0.0196  0.2864 -0.1776
 2363W        W17832  13.644  17.020   4.542  0.1757  0.1771 -0.0073
 2364W        W17833   0.588  10.133  13.454 -0.0492  0.1292  0.2582
 2365W        W17834   4.855  17.769   1.733 -0.2975  0.1087 -0.3606
 2366W        W17835   7.172  17.545   1.127  0.0377  0.3055 -0.2367
 2367W        W17836   8.830  15.302  12.128  0.1650  0.4357 -0.0455
 2368W        W17837   1.650  12.674  12.526 -0.1192 -0.1086  0.0739
 2369W        W17838   3.411   8.877   5.281 -0.2318  0.0592 -0.0642
 2370W        W17839  12.891   4.795  14.957  0.0937  0.0138  0.1814
 2371W        W17840  16.632  12.268  10.400 -0.1086 -0.1038 -0.2570
 2372W        W17841  10.547   6.327   3.162  0.3694  0.2845  0.0489
 2373W        W17842  11.173   2.448   2.529  0.0560 -0.1148  0.3426
 2374W        W17843  16.454   8.596  12.663 -0.0067 -0.0538 -0.1946
 2375W        W17844   6.808  15.954   3.306 -0.0065 -0.3016 -0.0659
 2376W        W17845   4.362   2.611   2.868 -0.1640  0.0698 -0.2059
 2377W        W17846   1.806   5.599   2.597 -0.0904 -0.1607 -0.1977
 2378W        W17847  13.720   3.499   0.960 -0.0726  0.4231  0.1260
 2379W        W17848   2.969  13.280   0.597  0.1912  0.0407 -0.2156
 2380W        W17849   7.740   0.452  13.823  0.1131  0.3408 -0.0301
 2381W        W17850  17.363   9.075  11.180 -0.0771  0.3564  0.0754
 2382W        W17851   0.847  17.938  13.742 -0.3916  0.1627 -0.1357
 2383W        W17852   2.724   8.377   2.264 -0.0805  0.0892 -0.3497
 2384W        W17853  11.852   5.974   2.880 -0.1578 -0.2231  0.0687
 2385W        W17854   7.690  11.036   0.318 -0.0094 -0.0436 -0.2122
 2386W        W17855   4.384   4.753   0.691  0.1922 -0.0755 -0.0964
 2387W        W17856  17.808  14.859   0.839  0.0787 -0.3283 -0.1271
 2388W        W17857   7.738   2.025   4.116 -0.0040  0.2947 -0.1602
 2389W        W17858  17.168  18.066   5.777  0.0680  0.2105  0.2821
 2390W        W17859   4.379  13.903  11.975 -0.1805 -0.0137 -0.2021
 2391W        W17860  13.719   2.191   3.780  0.0791  0.0792  0.2082
 2392W        W17861  16.122  14.137   3.298  0.2595 -0.3661 -0.3297
 2393W        W17862   1.171  14.745  13.433 -0.0015  0.0430  0.2973
 2394W        W17863  13.108  13.260  12.060 -0.0248  0.0400  0.3219
 2395W        W17864   2.242   7.290   2.007 -0.0073 -0.1056  0.1001
 2396W        W17865   0.014   7.859   5.629 -0.0267  0.1202 -0.1911
 2397W        W17866  11.898  12.912   4.017 -0.0388  0.2380  0.3106
 2398W        W17867  10.446   0.967   3.007 -0.0664  0.3588  0.2564
 2399W        W17868   9.257   9.605   0.769  0.3507 -0.1247 -0.3165
 2400W        W17869  17.524   9.204  15.288 -0.0264  0.1471 -0.2823
 2401W        W17870   8.812  17.868  16.142  0.0478 -0.2928 -0.1123
 2402W        W17871  12.454  17.894   2.184 -0.1054 -0.2087 -0.1642
 2403W        W17872  11.488  11.329   3.906  0.0637 -0.0986 -0.0692
 2404W        W17873  13.233   2.756  11.089 -0.2488 -0.5088  0.4304
 2405W        W17874   2.924   2.307   4.249  0.1291 -0.0420  0.0480
 2406W        W17875  16.324   1.891  13.074  0.3320 -0.0036  0.1217
 2407W        W17876  12.424  17.396   4.967 -0.0983 -0.3062  0.0414
 2408W        W17877  13.333   1.198   4.502 -0.0910 -0.2132 -0.4345
 2409W        W17878   5.061  12.496  10.890 -0.0510 -0.1912  0.2427
 2410W        W17879  10.045   9.657   2.228  0.0606  0.0841  0.1500
 2411W        W17880  16.555   2.988   0.857  0.1024 -0.0253 -0.3201
 2412W        W17881   2.727   7.331   2.478 -0.3886 -0.0990  0.0761
 2413W        W17882  12.635   2.189   3.970  0.1562  0.2538 -0.1772
 2414W        W17883   8.031  17.934  14.911 -0.2488 -0.1488 -0.1715
 2415W        W17884  10.355   8.035  15.532 -0.1870 -0.2960 -0.0059
 2416W        W17885   0.899   1.600  13.048  0.1530 -0.0664 -0.0845
 2417W        W17886  14.681   4.515  13.274 -0.1501 -0.1755  0.0296
 2418W        W17887   1.663  17.722   4.798  0.0339  0.0406  0.0683
 2419W        W17888   0.898   7.379  12.996 -0.0483  0.0973 -0.2444
 2420W        W17889   9.727  10.751  12.738  0.0089 -0.1342 -0.0489
 2421W        W17890   2.331   2.613   4.127 -0.1111 -0.0739 -0.1451
 2422W        W17891  12.630  17.864  13.393  0.0567  0.1770 -0.1943
 2423W        W17892  13.769   7.919   1.660  0.1408  0.0739  0.1293
 2424W        W17893  12.128  16.475  14.180 -0.0942  0.0995 -0.0488
 2425W        W17894  12.943  10.854   0.298  0.1080  0.0704  0.1783
 2426W        W17895  12.074   9.368   0.313 -0.1184 -0.2080 -0.1917
 2427W        W17896  18.023  12.286  16.238 -0.0410 -0.0822  0.0408
 2428W        W17897  12.197  11.516  12.909  0.1471  0.3552 -0.1637
 2429W        W17898   6.554  12.880  11.682 -0.0538  0.1576  0.0230
 2430W        W17899   9.273   1.766   4.348  0.4080 -0.0685 -0.0052
 2431W        W17900   3.475   2.738   2.478  0.1275  0.2296 -0.1389
 2432W        W17901  13.205   5.218  11.530 -0.3380  0.0744  0.0659
 2433W        W17902   1.645  13.453   1.185  0.0913  0.0451  0.0802
 2434W        W17903   4.255  15.279   0.501 -0.0456  0.1848 -0.1607
 2435W        W17904   0.142   3.102   1.483 -0.0108 -0.0332  0.1749
 2436W        W17905   9.559   4.534  15.571 -0.0548 -0.3431  0.1883
 2437W        W17906  16.113   1.927  14.120  0.1841 -0.0234 -0.3135
 2438W        W17907  15.269   5.047  15.335 -0.1115  0.2614  0.2783
 2439W        W17908   3.282  16.968   2.292 -0.1104 -0.0957 -0.0040
 2440W        W17909  12.447   0.532   4.658  0.4213  0.2080 -0.3145
 2441W        W17910   8.826   6.623  12.556 -0.2167 -0.2278  0.1063
 2442W        W17911   9.612   1.901  12.857 -0.2475  0.1124  0.1599
 2443W        W17912   7.917   3.638   4.206  0.3544 -0.4214  0.1594
 2444W        W17913   8.352   0.167  11.855 -0.0010  0.2262  0.1585
 2445W        W17914   8.953   2.581  15.144 -0.0020 -0.1260 -0.1387
 2446W        W17915   3.531  12.114   1.324 -0.2635 -0.0607  0.0267
 2447W        W17916   2.471   8.117   5.400  0.1237  0.1668 -0.0564
 2448W        W17917  11.244   7.351   1.733 -0.0529  0.0815  0.0040
 2449W        W17918   2.838   9.175  13.873 -0.0144 -0.1769  0.2285
 2450W        W17919   6.496   8.782   3.333 -0.0800 -0.0504 -0.0564
 2451W        W17920  14.802   9.136   2.844  0.0707 -0.0707 -0.1947
 2452W        W17921   5.710   6.148  12.948 -0.1753 -0.1304  0.3186
 2453W        W17922  15.799   0.236  13.703 -0.2783  0.2101  0.1355
 2454W        W17923  12.556  14.711  15.004 -0.0820  0.0549  0.1146
 2455W        W17924  17.552   2.596  15.451 -0.0452  0.1145  0.1981
 2456W        W17925   8.632   1.224   5.385 -0.0644 -0.0587  0.3172
 2457W        W17926  10.025  16.485  13.493 -0.2084  0.0093  0.0868
 2458W        W17927   2.526   2.868   4.595  0.1008 -0.0784 -0.4478
 2459W        W17928   3.398   1.279   0.399 -0.1448 -0.0143 -0.1542
 2460W        W17929   5.069   3.731  13.232 -0.0098 -0.0027  0.0352
 2461W        W17930   4.125   0.762   1.418 -0.1006 -0.1008 -0.3423
 2462W        W17931   7.498  10.536  13.179 -0.2386  0.1337 -0.2156
 2463W        W17932   2.790  14.551  13.583 -0.0010  0.2898  0.1079
 2464W        W17933   7.953   1.023   3.187  0.0494  0.0743  0.2897
 2465W        W17934   1.151   5.446  14.375  0.0705  0.1308  0.4162
 2466W        W17935  16.324   9.512   6.489 -0.2975 -0.1129 -0.1257
 2467W        W17936   5.954   1.194   1.425 -0.0231  0.3312  0.1785
 2468W        W17937  16.865  11.510  15.456  0.1828 -0.2995  0.0203
 2469W        W17938   1.789   9.764   0.847 -0.3250  0.0193  0.2859
 2470W        W17939  17.914   6.078  15.059 -0.2539  0.0166  0.2298
 2471W        W17940   1.048   8.257   0.986  0.0871  0.1843 -0.2789
 2472W        W17941   7.494   8.419   2.612 -0.0727 -0.1591 -0.0707
 2473W        W17942  17.142  13.171  15.226 -0.1737  0.0710 -0.3458
 2474W        W17943  10.006   1.943  14.640  0.1793  0.2905  0.0922
 2475W        W17944  17.273  12.194   3.412  0.1127  0.1654  0.0352
 2476W        W17945   1.738  15.811   0.656 -0.0782 -0.1886 -0.1394
 2477W        W17946  15.885  17.283  12.603  0.0033 -0.1031  0.3305
 2478W        W17947  11.051   1.882   4.103  0.1939 -0.0773  0.0990
 2479W        W17948   6.081   2.379   4.420 -0.0542  0.2966 -0.1850
 2480W        W17949   4.367  15.288   2.148  0.2392 -0.2041  0.0052
 2481W        W17950   8.127   2.492  16.146  0.2869 -0.0149  0.0832
 2482W        W17951   9.829  13.214  15.861 -0.1040  0.0738  0.0260
 2483W        W17952  14.665   3.065   2.218  0.2409  0.0744  0.2689
 2484W        W17953   9.352   3.681   2.961 -0.0738 -0.0409 -0.0116
 2485W        W17954  14.804  16.540  11.744 -0.0249  0.1504  0.1462
 2486W        W17955  13.624  15.801   2.499 -0.0027  0.1263  0.0569
 2487W        W17956   3.212   1.892  13.492 -0.0979  0.1169  0.0201
 2488W        W17957   6.822  11.708   2.310  0.0468 -0.0546  0.2199
 2489W        W17958   3.042  14.551  11.617  0.1403  0.1224  0.0881
 2490W        W17959   5.362   4.495   5.453  0.1849  0.1329 -0.0619
 2491W        W17960  13.977  12.864  12.634 -0.0119 -0.0685 -0.2916
 2492W        W17961  10.555  11.396   5.600  0.1385 -0.1713 -0.1163
 2493W        W17962   5.654   3.057  11.125 -0.0945 -0.1076 -0.2255
 2494W        W17963  10.455   5.331   4.206  0.4826  0.1928 -0.0432
 2495W        W17964   8.202   7.233  16.026 -0.3581 -0.3641  0.0089
 2496W        W17965  12.211   4.264   2.001  0.2958  0.0167 -0.1709
 2497W        W17966   6.984   3.013  15.827  0.2422 -0.1770 -0.2555
 2498W        W17967   0.122   1.313  13.427  0.0686  0.4253 -0.0505
 2499W        W17968  10.737   1.509  15.927 -0.1497 -0.3864 -0.1678
 2500W        W17969   7.482  15.971  14.117  0.0626 -0.0489  0.0855
 2501W        W17970  17.060   6.714   0.003  0.0731  0.0555  0.2798
 2502W        W17971  15.152   2.133   6.175 -0.1245  0.0541 -0.0731
 2503W        W17972   8.040   3.169   2.519 -0.1238  0.0750 -0.2515
 2504W        W17973  12.625  12.694   0.496 -0.0218  0.1522  0.1158
 2505W        W17974   5.777  14.194   2.825 -0.3057 -0.0560  0.1487
 2506W        W17975   2.522   4.816  14.182 -0.1771 -0.0537 -0.0666
 2507W        W17976   4.473  15.862  10.905 -0.3827  0.0058 -0.2169
 2508W        W17977  11.130  16.629  12.107  0.1261  0.2428 -0.3479
 2509W        W17978  17.297  16.592   1.460 -0.0506  0.3298  0.1582
 2510W        W17979  10.575  12.455  15.109  0.1339  0.4477  0.0912
 2511W        W17980  12.753   9.530   1.035 -0.2178 -0.2146 -0.1254
 2512W        W17981   5.030  15.958  13.874 -0.0071  0.2178  0.2553
 2513W        W17982   2.689   0.766   0.748 -0.2897  0.2217 -0.3822
 2514W        W17983  16.627   2.088   2.401  0.1401  0.1384  0.0343
 2515W        W17984   8.805   1.670  12.786 -0.0005 -0.4242  0.1691
 2516W        W17985   0.456   2.756  12.551 -0.0292  0.0592  0.0881
 2517W        W17986  13.626  17.336   3.475 -0.1046 -0.1828  0.2568
 2518W        W17987   9.105   2.075  13.084 -0.0849 -0.1237 -0.1925
 2519W        W17988  17.462   2.827  15.049  0.1783 -0.1175 -0.1078
 2520W        W17989   1.356  11.938  11.211 -0.2259  0.0046  0.1802
 2521W        W17990   0.590   3.657   0.790  0.1377 -0.2816 -0.1514
 2522W        W17991  15.219   0.843   1.348  0.0528 -0.0628  0.2201
 2523W        W17992   8.216  15.388   0.723  0.2229 -0.0217 -0.1240
 2524W        W17993   6.593  17.393   1.858 -0.1342 -0.1194 -0.5743
 2525W        W17994  12.286   5.824   3.145  0.0616  0.3086  0.1347
 2526W        W17995  11.881  17.527   3.659 -0.2734  0.0801 -0.1921
 2527W        W17996   3.478  15.959   3.699  0.3408  0.0064 -0.0849
 2528W        W17997   0.971   4.338   4.339 -0.0218 -0.1145  0.0818
 2529W        W17998   1.255   9.174   5.008  0.0316 -0.4074 -0.0577
 2530W        W17999   9.215   9.335   1.536 -0.0083 -0.0200 -0.0917
 2531W        W18000   4.953  11.359   2.604 -0.4649  0.2629 -0.2682
 2532W        W18001  14.197   1.005  13.661 -0.0024 -0.0448  0.0121
 2533W        W18002  13.135   1.078   1.183 -0.0319  0.1472  0.0535
 2534W        W18003   7.531  13.320  12.063  0.1375  0.0879 -0.1381
 2535W        W18004   1.578   3.777   1.769  0.1154 -0.1323  0.0121
 2536W        W18005   6.983  13.012  13.258 -0.0836  0.0444  0.1252
 2537W        W18006  17.343   3.434  15.457 -0.0871  0.0545  0.2399
 2538W        W18007  16.917   9.856  15.885 -0.0471  0.1720 -0.0854
 2539W        W18008  15.443  16.870  10.296  0.2258  0.1021 -0.0705
 2540W        W18009   1.610   3.442   2.183  0.0371  0.3286  0.1649
 2541W        W18010  11.878  10.701   2.401  0.2310  0.1945 -0.1312
 2542W        W18011   6.635   3.011   5.557 -0.0148  0.1995  0.2796
 2543W        W18012  10.262  16.655  14.042  0.4174  0.2483  0.4183
 2544W        W18013  14.207   5.857  13.762  0.4370 -0.0608  0.1001
 2545W        W18014  13.370   7.083  14.530 -0.5093 -0.0025  0.0396
 2546W        W18015   3.589   6.024   2.841  0.0216  0.1594 -0.6472
 2547W        W18016  15.801   8.124   4.467  0.0313 -0.1131  0.0875
 2548W        W18017  16.458   8.882   2.070 -0.0353  0.0807 -0.0853
 2549W        W18018   4.437  16.339  11.732  0.0458  0.0815 -0.1905
 2550W        W18019   5.390  12.187  14.852  0.3724  0.1154 -0.0043
 2551W        W18020   0.993  15.879   3.747 -0.0743 -0.0733  0.2870
 2552W        W18021  12.078  10.589  14.661  0.2058  0.2174 -0.1912
 2553W        W18022   8.425   1.161   4.495 -0.3290 -0.2989 -0.0608
 2554W        W18023   4.957  12.193  14.126 -0.0366 -0.1596 -0.1219
 2555W        W18024   5.486  11.866   2.463 -0.0475 -0.1006  0.0489
 2556W        W18025  15.784   0.290   2.526 -0.3876  0.3803  0.2129
 2557W        W18026   0.924  15.482  15.019 -0.2075  0.3009 -0.2221
 2558W        W18027   2.289  10.365   3.185  0.1990 -0.1136  0.0148
 2559W        W18028  11.868  10.869  12.259 -0.1588 -0.0652  0.0431
 2560W        W18029  11.643   6.816   3.924 -0.0191 -0.0324  0.0470
 2561W        W18030   9.057   0.950  13.969  0.0308  0.1142  0.1052
 2562W        W18031  10.503  14.623  14.221  0.0157  0.0751  0.1401
 2563W        W18032   5.589  12.046  13.146 -0.1049  0.2994 -0.1362
 2564W        W18033  15.862  14.854  15.452  0.1292 -0.0552 -0.1050
 2565W        W18034  17.156  17.847  13.188  0.1083  0.1129  0.0059
 2566W        W18035  15.260   7.744   2.000 -0.0049  0.0766 -0.0527
 2567W        W18036  14.702  10.875  11.310  0.2097  0.0141 -0.0703
 2568W        W18037  13.757   2.073  14.186  0.1218 -0.0259 -0.2646
 2569W        W18038  11.488   3.431  10.810  0.1496 -0.0864  0.0621
 2570W        W18039  14.155   3.051  14.360  0.2065 -0.1948 -0.0306
 2571W        W18040  13.614  12.540   4.846 -0.0192 -0.2015  0.1334
 2572W        W18041   7.446   6.410  13.324 -0.1040 -0.0528 -0.2539
 2573W        W18042   0.370   9.523   1.653  0.0933  0.2467  0.3068
 2574W        W18043  14.117  14.802  13.636 -0.3660 -0.0966 -0.2821
 2575W        W18044  17.274  11.420   0.943 -0.0752 -0.1038  0.1644
 2576W        W18045   8.966   7.535   4.783  0.0564  0.0297 -0.1445
 2577W        W18046  14.833   2.025  15.526  0.1897 -0.0872 -0.3904
 2578W        W18047  11.453   2.326   4.092  0.0739  0.2024  0.1189
 2579W        W18048   8.103   7.325   0.684  0.0862  0.1993 -0.1404
 2580W        W18049   0.969   5.988  10.707  0.2412  0.1148  0.3086
 2581W        W18050  12.463   9.158  14.564  0.2087  0.0777 -0.0527
 2582W        W18051   9.915   2.415   3.805 -0.1138 -0.4140 -0.0193
 2583W        W18052  16.391   4.639   0.675  0.0518 -0.0542  0.1792
 2584W        W18053  12.680   9.236  13.111  0.0670  0.0739 -0.4600
 2585W        W18054  11.984   6.837  13.150  0.1853 -0.2828 -0.0435
 2586W        W18055  10.032   4.193   0.877 -0.1118 -0.1605 -0.1734
 2587W        W18056  17.827   6.781   4.680 -0.1190  0.0049  0.0791
 2588W        W18057  15.101   5.426   2.786  0.2865 -0.0203  0.0762
 2589W        W18058  17.724   9.310  13.957 -0.1745  0.0309 -0.2042
 2590W        W18059  17.242   2.149  16.278 -0.1924  0.0224  0.1270
 2591W        W18060  13.716   6.463   4.034  0.0707 -0.6315 -0.0946
 2592W        W18061   3.822  17.705  10.150 -0.1591  0.3328 -0.0705
 2593W        W18062   9.641   0.069   3.529  0.0294  0.0273 -0.0933
 2594W        W18063   2.963  14.054   0.252 -0.2860  0.1023  0.0493
 2595W        W18064   4.160   4.709   3.403  0.1847  0.4062  0.2793
 2596W        W18065   9.625  10.027   0.181 -0.5236 -0.0594 -0.1362
 2597W        W18066  16.414   1.607   4.498 -0.1535 -0.0029 -0.1487
 2598W        W18067  10.428  11.298  12.404 -0.0636 -0.0650 -0.0508
 2599W        W18068  12.134   5.316  14.208 -0.1256  0.0562 -0.1769
 2600W        W18069   2.851  17.609  11.071 -0.1147  0.0678  0.1696
 2601W        W18070   8.710  11.412   4.141 -0.1375 -0.0549  0.2345
 2602W        W18071  10.522   4.537  13.308 -0.0515  0.1558 -0.0445
 2603W        W18072  12.994  10.499   3.728  0.1257  0.4388  0.0011
 2604W        W18073   4.271   0.039   2.075  0.2797 -0.0305 -0.0575
 2605W        W18074  16.175   1.342  11.500 -0.2600 -0.1344 -0.0035
 2606W        W18075  12.228   0.130   3.940 -0.0715 -0.0223 -0.0431
 2607W        W18076   2.544   2.118   3.398 -0.1286  0.1032 -0.0484
 2608W        W18077   0.024  16.522   3.028 -0.0528 -0.1367 -0.1499
 2609W        W18078   2.846  10.270  10.889  0.0848  0.3598 -0.1427
 2610W        W18079   1.182  11.073   0.093 -0.0466  0.0674 -0.1142
 2611W        W18080   7.151  11.871  12.377  0.1107 -0.2324 -0.0980
 2612W        W18081   7.062   7.694  13.803  0.2299  0.0769 -0.1673
 2613W        W18082   9.744   5.873  15.488  0.4087 -0.1241 -0.1509
 2614W        W18083  11.800  11.631  11.782  0.0212 -0.0581  0.1140
 2615W        W18084  15.354   0.400  15.488 -0.1001 -0.0013 -0.2899
 2616W        W18085   5.586  10.527  13.688 -0.0148  0.2271 -0.3360
 2617W        W18086   0.564   3.171   1.235 -0.0658  0.0676 -0.1646
 2618W        W18087   4.902   8.178  14.751 -0.0064 -0.0398  0.3023
 2619W        W18088  16.036  12.957  11.930  0.0934  0.3588  0.0433
 2620W        W18089   3.045   5.705   1.951  0.3337  0.1451 -0.0464
 2621W        W18090   2.714   6.088   4.052  0.0897 -0.0739  0.0160
 2622W        W18091   0.531  10.844   5.723 -0.0298 -0.0405 -0.1870
 2623W        W18092   2.961  15.618   2.711  0.2356 -0.0995 -0.0170
 2624W        W18093  17.998  11.965  14.228  0.0390  0.0884 -0.0490
 2625W        W18094  16.993   4.160  12.355 -0.1729  0.1330 -0.0134
 2626W        W18095  10.964  16.138  10.815 -0.0062 -0.1202 -0.2291
 2627W        W18096  13.120   0.582   6.204 -0.2942 -0.3584  0.3228
 2628W        W18097   1.719  12.689  13.538  0.0733  0.2536 -0.0887
 2629W        W18098  18.031  11.653  11.613 -0.0386 -0.1603 -0.1943
 2630W        W18099   3.865   3.330  12.434 -0.0070 -0.3280 -0.3515
 2631W        W18100  15.740  15.184  12.816  0.0846  0.0462 -0.1704
 2632W        W18101   6.978  12.545  10.406  0.2929  0.2617 -0.0181
 2633W        W18102  14.555  17.252   4.530 -0.0808  0.0082  0.1119
 2634W        W18103   9.992  15.590   0.190  0.1078  0.1106  0.1852
 2635W        W18104   3.233  14.106  15.642 -0.0752  0.0139  0.2122
 2636W        W18105  11.974   3.277   3.650  0.0483  0.1743  0.0829
 2637W        W18106  12.778   6.998  16.226  0.2274 -0.0613 -0.0617
 2638W        W18107   9.796   4.687   0.536 -0.0473  0.0959  0.1639
 2639W        W18108   8.482   6.607   2.534  0.0116 -0.0468  0.1482
 2640W        W18109   8.587   2.774  14.877  0.1020 -0.1825  0.3441
 2641W        W18110  14.920   8.877  11.342  0.1432 -0.0467  0.2728
 2642W        W18111  14.253  13.056   1.140 -0.0962 -0.0382  0.0410
 2643W        W18112   1.581  16.881   3.370  0.1410  0.2381  0.2686
 2644W        W18113   7.018  15.541   4.250  0.1520 -0.1488  0.1577
 2645W        W18114   5.366   5.634  10.897  0.1469 -0.0564  0.0977
 2646W        W18115   9.905  16.338   4.003 -0.1500 -0.1715  0.1813
 2647W        W18116  14.056   1.816  12.244  0.0852 -0.1864  0.1438
 2648W        W18117   1.392  16.348  15.263 -0.1475  0.2254 -0.1280
 2649W        W18118  13.422   9.705   0.329 -0.1056  0.1657 -0.2799
 2650W        W18119  11.827   3.979   5.291 -0.0680  0.1293 -0.0578
 2651W        W18120  13.119   9.540   1.637 -0.2332  0.1638 -0.2646
 2652W        W18121  13.928  15.558  14.437  0.0466 -0.2157  0.1195
 2653W        W18122   9.527  16.324   1.333  0.0026 -0.0663  0.2758
 2654W        W18123   4.956   4.006   5.276 -0.0808  0.0496  0.0528
 2655W        W18124   9.752  17.574   5.366 -0.2394 -0.0378  0.1698
 2656W        W18125  11.976  14.841   0.627 -0.0001 -0.0286  0.1328
 2657W        W18126  12.713  12.949   3.390  0.1069 -0.0420 -0.0532
 2658W        W18127  11.135  13.438   2.302 -0.1242 -0.1592  0.0720
 2659W        W18128   4.414   8.019   3.644  0.1713  0.2969 -0.1762
 2660W        W18129   0.257   2.541  11.794  0.0670 -0.0639 -0.1546
 2661W        W18130  15.964   4.671  13.178 -0.0527  0.2913 -0.1607
 2662W        W18131   3.582   4.839   2.472  0.3800 -0.2741  0.1868
 2663W        W18132  11.984  14.785   5.157  0.3174 -0.0665 -0.1718
 2664W        W18133  12.866   3.883   2.660 -0.3220  0.1538 -0.0368
 2665W        W18134   0.002   8.690   3.385 -0.0170 -0.0765  0.3262
 2666W        W18135   6.275  17.075  15.455 -0.0415 -0.0490 -0.1172
 2667W        W18136   5.849   5.860   5.448 -0.0526 -0.0671 -0.0873
 2668W        W18137  12.763  16.142   0.673 -0.2997  0.0008  0.2970
 2669W        W18138   1.040   6.088   3.219  0.0289 -0.1324 -0.1012
 2670W        W18139   2.227  11.308   4.702  0.0909 -0.0355 -0.0132
 2671W        W18140  11.837   6.976  15.921  0.1552 -0.0181  0.0422
 2672W        W18141  15.159   1.748   0.594 -0.2253  0.0425  0.4005
 2673W        W18142  12.615   1.289  14.904  0.3955  0.1488 -0.0384
 2674W        W18143  11.330  14.197   2.722 -0.2217  0.1748 -0.2654
 2675W        W18144   8.235  15.036   4.016  0.4273  0.0881  0.1132
 2676W        W18145   8.295   7.670   3.266  0.1592 -0.0079  0.1790
 2677W        W18146  11.509   1.521  14.297  0.0122 -0.1740  0.0814
 2678W        W18147   6.751  11.613  15.894 -0.2003  0.0996 -0.0727
 2679W        W18148   9.838  11.724   2.653 -0.1430 -0.3255 -0.0804
 2680W        W18149  17.230   7.575  11.047 -0.0820 -0.1313 -0.1467
 2681W        W18150  11.096   2.185  12.947  0.0762  0.1651 -0.2915
 2682W        W18151   4.783   2.266  12.154 -0.1814 -0.1819  0.0929
 2683W        W18152   1.226   0.702  15.676 -0.0266 -0.0387  0.2739
 2684W        W18153   2.870  13.000  11.208  0.1999 -0.0963 -0.1698
 2685W        W18154  16.183   0.073  13.456  0.0965 -0.1763  0.0944
 2686W        W18155  11.792  14.374  15.850  0.4013  0.1444 -0.0828
 2687W        W18156   2.602  11.162  13.956  0.0730  0.1662  0.4669
 2688W        W18157  15.738   1.196   4.723  0.2530 -0.0638  0.0981
 2689W        W18158   4.024   6.973   0.487 -0.1081 -0.1995  0.2332
 2690W        W18159  14.499  16.246  14.310 -0.0567  0.1000 -0.1653
 2691W        W18160   0.854  12.167   4.988  0.0289 -0.3185 -0.0329
 2692W        W18161  14.926   7.213  12.858 -0.1043  0.0852  0.2543
 2693W        W18162   2.644  15.322  12.965  0.2107 -0.3602 -0.0772
 2694W        W18163   6.126  16.900  13.143 -0.0338  0.1370 -0.0965
 2695W        W18164   4.487   8.274  10.756 -0.0585  0.3346 -0.1573
 2696W        W18165  15.770  13.895   4.238  0.1761  0.0741 -0.1445
 2697W        W18166   0.491   9.287   5.133  0.1413 -0.0035 -0.0627
 2698W        W18167  13.948   9.763  11.895 -0.0844  0.1347  0.0643
 2699W        W18168   4.447   9.093  14.795 -0.0941 -0.0798 -0.2048
 2700W        W18169  11.081   2.076   1.078 -0.3202  0.3313  0.2476
 2701W        W18170   3.254  12.582  10.909 -0.0336  0.1921  0.0252
 2702W        W18171   3.154  13.411  12.665  0.0547  0.1419 -0.1139
 2703W        W18172  15.456   7.227   5.762 -0.0523 -0.0028 -0.2281
 2704W        W18173   0.592   9.678   4.308 -0.0027  0.0918  0.0236
 2705W        W18174   0.361  17.161   4.248 -0.1882  0.3280  0.2447
 2706W        W18175   5.284  10.263   5.600  0.1521  0.2163  0.3667
 2707W        W18176   5.298   8.226   5.036  0.2172 -0.1815 -0.0521
 2708W        W18177  16.857  14.181   1.641  0.0584 -0.0514  0.1174
 2709W        W18178   4.035  13.665  11.648 -0.1010 -0.0797  0.2737
 2710W        W18179   9.972  11.103  15.587 -0.1714 -0.1582 -0.0265
 2711W        W18180   5.097  16.685  13.537  0.0697  0.0801 -0.2332
 2712W        W18181   4.807  17.786   3.738 -0.1722 -0.1628 -0.0085
 2713W        W18182  16.653  14.804   2.434  0.3582 -0.0767 -0.0706
 2714W        W18183   8.305   4.856   4.102  0.0801  0.4498  0.4825
 2715W        W18184  15.943   0.490   9.969 -0.2881 -0.0107 -0.2901
 2716W        W18185  11.428   5.642  13.819  0.1673  0.1388  0.2840
 2717W        W18186   2.867   1.509  14.117 -0.5206 -0.0055  0.0387
 2718W        W18187   2.553  13.279   2.326  0.0054  0.1460 -0.2709
 2719W        W18188   6.708  11.639  12.571  0.0988  0.0972 -0.0024
 2720W        W18189  11.466   0.263  15.481 -0.3782  0.0473 -0.3241
 2721W        W18190   6.599  16.406   1.636  0.1104 -0.1866  0.1458
 2722W        W18191  10.747  17.875   2.390 -0.2513  0.0151 -0.3121
 2723W        W18192   5.995  10.614   2.785  0.1750  0.0209 -0.2507
 2724W        W18193   4.034   2.820  12.245  0.2929 -0.2044 -0.1361
 2725W        W18194   1.921  11.387   3.614  0.1021 -0.0403  0.2737
 2726W        W18195   4.178   0.686  12.821  0.2832 -0.2697 -0.0984
 2727W        W18196   3.078  10.529  12.489 -0.2231 -0.0226  0.2206
 2728W        W18197  16.050  14.061   5.688 -0.2027 -0.3860 -0.2963
 2729W        W18198  16.030   2.173  12.809  0.2105 -0.0891 -0.1454
 2730W        W18199  15.926  14.187  13.457 -0.0480  0.1401  0.0130
 2731W        W18200   9.973   5.875   2.074 -0.0248 -0.1056  0.2930
 2732W        W18201   2.626  15.856  14.113 -0.0506 -0.0153  0.0036
 2733W        W18202   5.696   3.714   3.808  0.3694  0.0121  0.2527
 2734W        W18203  12.436   9.141  11.554 -0.0205 -0.4678 -0.2686
 2735W        W18204  16.704  16.272  13.469 -0.1703  0.0556 -0.1088
 2736W        W18205  16.825  10.360   1.217  0.0945 -0.1865 -0.0887
 2737W        W18206   9.501  17.394  12.219 -0.0854 -0.1020  0.0168
 2738W        W18207  10.302   5.203   6.337 -0.2392 -0.0149 -0.0259
 2739W        W18208   7.287   0.740  10.255  0.0448 -0.1298  0.1845
 2740W        W18209   9.053   6.229  12.570  0.0214  0.1088 -0.0986
 2741W        W18210   0.622  15.829   3.028 -0.1735 -0.2964 -0.2796
 2742W        W18211  17.953  15.564   1.805 -0.0460  0.2506  0.0874
 2743W        W18212   3.192   9.868  14.868  0.0751 -0.4053  0.0941
 2744W        W18213  16.729   9.405  12.870  0.0284  0.0338  0.0665
 2745W        W18214  13.063  17.385   0.898  0.2241  0.0381  0.1968
 2746W        W18215   9.393   0.833   3.822  0.1868 -0.1648 -0.0956
 2747W        W18216  12.898   3.816  16.246 -0.1350  0.0750 -0.0710
 2748W        W18217   2.189   4.481  12.229 -0.1054 -0.1431 -0.1796
 2749W        W18218   8.664   1.886  14.586  0.0896  0.1567 -0.0826
 2750W        W18219   8.051   1.729   1.523  0.2810 -0.1565 -0.0528
 2751W        W18220   7.046  10.911   5.760 -0.3109  0.0936 -0.1606
 2752W        W18221  16.336   3.051  15.210 -0.2139  0.0078  0.0543
 2753W        W18222   5.060   7.757  15.613  0.2255 -0.1368 -0.4204
 2754W        W18223   0.623   4.270   0.174 -0.1263  0.0312 -0.1189
 2755W        W18224   5.935  12.195   0.075 -0.2980  0.0314  0.2195
 2756W        W18225  12.835  17.026   1.177  0.0346 -0.1205 -0.1899
 2757W        W18226  16.088  15.724   0.647  0.2149 -0.0367  0.1841
 2758W        W18227   1.430  16.220   3.139 -0.2936 -0.2332 -0.1070
 2759W        W18228   0.271   4.181   0.568 -0.0751 -0.1408  0.1674
 2760W        W18229   8.807  10.533   5.945  0.0810 -0.0798  0.0793
 2761W        W18230   4.824  11.039   1.472 -0.1857  0.0753  0.4262
 2762W        W18231   1.472   8.834   1.970  0.2002  0.0775 -0.0406
 2763W        W18232   8.654   8.541  15.780 -0.1988 -0.0064  0.1263
 2764W        W18233  13.476   6.558  12.907 -0.0836 -0.1626  0.2401
 2765W        W18234  15.900  15.915   1.063 -0.0940  0.0571 -0.1747
 2766W        W18235   6.198   3.359   5.309 -0.1973 -0.0214 -0.1252
 2767W        W18236   1.177  15.907  15.141  0.1483  0.4295 -0.2920
 2768W        W18237   1.058   5.550  15.310 -0.1065 -0.0540  0.0193
 2769W        W18238   4.129  10.127   2.399  0.0021 -0.2342  0.1617
 2770W        W18239  17.638   0.840   3.460 -0.0724 -0.0175 -0.0626
 2771W        W18240   7.525  14.791   3.944  0.1559  0.2935 -0.0853
 2772W        W18241   2.182   2.454   4.677 -0.0176  0.0492 -0.3147
 2773W        W18242  16.577   8.756   4.097 -0.0667 -0.0253  0.1553
 2774W        W18243  13.991  13.038   0.126  0.1569  0.0504  0.1244
 2775W        W18244   2.255   3.907  15.343 -0.3387 -0.0918  0.0421
 2776W        W18245   2.714   6.570  10.877 -0.0970 -0.1305 -0.0498
 2777W        W18246   0.715  14.586  14.439 -0.2195  0.1385  0.3083
 2778W        W18247  11.653   7.049  12.714  0.2075 -0.2248  0.0076
 2779W        W18248   8.419   0.101  16.115  0.0555 -0.2185  0.0114
 2780W        W18249  17.295  10.245  16.318  0.0137  0.2721 -0.2438
 2781W        W18250   8.179   2.800   4.764  0.2816  0.0533  0.2056
 2782W        W18251   5.291  17.965   2.074  0.3437  0.1081  0.0054
 2783W        W18252   2.081   2.913  16.222 -0.0174 -0.1094  0.0487
 2784W        W18253   2.220   1.599   0.378  0.1521  0.1680 -0.0345
 2785W        W18254  13.163   6.342  16.007 -0.0594  0.3292 -0.1201
 2786W        W18255   1.383   4.669  16.303 -0.1484  0.0214 -0.2323
 2787W        W18256   6.460  11.319  16.228  0.0583  0.0347  0.2446
 2788W        W18257  12.542   5.978  16.119  0.2699 -0.0642 -0.0851
 2789W        W18258  15.524   6.986  11.231 -0.1536  0.0423  0.3314
 2790W        W18259  14.875  10.182  15.821 -0.0451  0.0205 -0.0390
 2791W        W18260   3.040   1.508   2.698  0.0531 -0.4321 -0.0279
 2792W        W18261  11.389   2.438   3.532 -0.0566 -0.1659  0.0238
 2793W        W18262   0.607   1.956  15.786  0.1696  0.2258  0.0071
 2794W        W18263   7.282   3.006  12.382  0.1358 -0.2477 -0.1539
 2795W        W18264   3.472   3.196  13.203  0.1144  0.1131  0.0608
 2796W        W18265  17.969  16.074  15.463  0.2290  0.2679 -0.0864
 2797W        W18266  12.315  11.566   0.384  0.1747 -0.2542  0.1868
 2798W        W18267   8.158   0.650   2.115  0.0370  0.0474 -0.0248
 2799W        W18268   9.589  11.402  11.031  0.2674  0.2887  0.2259
 2800W        W18269  14.831   8.978  13.775 -0.2027  0.0287  0.2244
 2801W        W18270  14.530   4.658   1.113  0.2287  0.1722  0.0545
 2802W        W18271   9.595  11.208  16.037  0.1094  0.2176  0.2188
 2803W        W18272  15.788   2.391   5.284 -0.0542 -0.1078  0.2554
 2804W        W18273  17.259  16.243  16.241  0.0090 -0.0449  0.0245
 2805W        W18274   1.496  18.084   0.512  0.1312  0.2078 -0.2448
 2806W        W18275  15.120  16.582   1.611 -0.1820  0.1477 -0.0962
 2807W        W18276   9.091  17.190  14.590  0.0893 -0.0437  0.2074
 2808W        W18277   6.640  17.439  15.303 -0.0344  0.0233 -0.2175
 2809W        W18278   3.820  17.636  13.578  0.1670 -0.2605  0.3726
 2810W        W18279   2.899  13.699  15.683  0.0508  0.0922 -0.1560
 2811W        W18280   1.951  17.063   1.272 -0.1249 -0.1396  0.0842
 2812W        W18281   9.832   4.994  14.496  0.0101 -0.1738  0.3652
 2813W        W18282   4.423  17.349   3.169  0.0093  0.0603  0.2929
 2814W        W18283   6.779  10.029   1.440  0.0377 -0.1463 -0.1762
 2815W        W18284  14.470   2.568   3.877  0.1057  0.0224 -0.1348
 2816W        W18285  13.155  14.931  14.137 -0.2096  0.1455 -0.2022
 2817W        W18286   2.735  17.513   4.169 -0.1883 -0.1029 -0.1323
 2818W        W18287   3.878   5.908   2.445  0.0531 -0.0335 -0.3065
 2819W        W18288   8.309   6.094   5.867 -0.1758 -0.2000 -0.1181
 2820W        W18289   7.886   9.218   5.091  0.2002  0.2502  0.0141
 2821W        W18290   1.734  17.747   2.288  0.1420 -0.1734 -0.2531
 2822W        W18291  15.577  11.372   4.167 -0.0858  0.0417 -0.2321
 2823W        W18292  13.557   9.235  15.488 -0.1277  0.0342  0.3302
 2824W        W18293  14.832   5.799   0.286 -0.0682 -0.2150 -0.0162
 2825W        W18294   5.732  16.743  12.750  0.2892 -0.1544 -0.1947
 2826W        W18295  11.851   5.002   5.364  0.2575  0.0830  0.0122
 2827W        W18296  13.650  16.439  15.593  0.0919 -0.2377 -0.0530
 2828W        W18297   1.509   5.047  14.525  0.0705 -0.0073  0.2299
 2829W        W18298  11.602   4.908   0.060  0.3287 -0.2252 -0.0664
 2830W        W18299  13.462   5.977   1.634  0.3421 -0.2822 -0.0438
 2831W        W18300  13.401   8.603  13.173  0.1986  0.1708 -0.0553
 2832W        W18301  17.185  10.942   2.967 -0.1026  0.1708  0.3348
 2833W        W18302   9.991   7.200  16.056 -0.2188  0.0322 -0.0830
 2834W        W18303   8.294   1.542   4.977 -0.0989 -0.0795  0.0805
 2835W        W18304  14.576   0.526   2.333  0.0335  0.1238 -0.1619
 2836W        W18305   9.243  14.543  13.057  0.1910 -0.0879  0.0929
 2837W        W18306  11.056  14.642   4.833 -0.0980  0.0972 -0.0777
 2838W        W18307   4.349   6.320   1.793 -0.1448 -0.5011 -0.3508
 2839W        W18308   1.306  12.762   2.029 -0.1185 -0.0760  0.1075
 2840W        W18309   5.598   9.451   4.740  0.0207  0.3646 -0.3043
 2841W        W18310  15.601  13.797  14.670 -0.3494  0.0206 -0.0327
 2842W        W18311   1.659  13.923   2.993  0.0535 -0.0916  0.0899
 2843W        W18312   4.469  11.440   1.384  0.0123  0.0717 -0.0706
 2844W        W18313   8.004   1.080  12.385  0.1022  0.1514 -0.1399
 2845W        W18314   9.271   1.958   0.177 -0.0092 -0.2195 -0.0999
 2846W        W18315   6.001  15.514   0.942 -0.1233 -0.1536 -0.1339
 2847W        W18316  16.991   3.515   1.551 -0.1818 -0.1102  0.2509
 2848W        W18317   8.963   8.243  11.456  0.0867  0.1642  0.0693
 2849W        W18318  15.538  11.536  16.091  0.1038 -0.2989  0.1510
 2850W        W18319   0.778   4.099   1.509  0.1017 -0.0390  0.0465
 2851W        W18320  15.476   4.283   2.600  0.4450 -0.0957  0.0097
 2852W        W18321   2.518  13.166  13.410 -0.0293  0.4084  0.0814
 2853W        W18322  16.490  16.959  11.779 -0.0132 -0.0656 -0.0811
 2854W        W18323  16.683   6.391  15.988 -0.1104 -0.0605 -0.3087
 2855W        W18324  16.606   5.642  12.116  0.1130 -0.0014 -0.1164
 2856W        W18325  10.157  12.416   4.167 -0.3002 -0.0380 -0.1286
 2857W        W18326   3.325  16.463  13.075 -0.3067  0.1407 -0.1990
 2858W        W18327  14.862  17.591   1.984  0.0759 -0.1553  0.0322
 2859W        W18328  12.300  17.674   3.985  0.2368  0.0869  0.1054
 2860W        W18329   8.051  15.256   1.992 -0.0833 -0.1720 -0.1046
 2861W        W18330   1.323   8.776   5.355 -0.1099 -0.4010  0.2028
 2862W        W18331   2.099   9.641   4.717 -0.1284  0.0565  0.1611
 2863W        W18332  13.495   2.919   5.361  0.1924 -0.0243  0.0142
 2864W        W18333  17.365  16.067   3.519  0.2592 -0.1010  0.1032
 2865W        W18334   8.853   6.671   0.651 -0.1703  0.0674 -0.0895
 2866W        W18335   7.658   0.764  12.045 -0.1966 -0.1913  0.0646
 2867W        W18336   2.197   3.067  14.418  0.0132 -0.1047 -0.1995
 2868W        W18337   3.689  14.508  12.718 -0.0453 -0.0833  0.0285
 2869W        W18338  16.236  11.078   0.071 -0.1981  0.0813 -0.1492
 2870W        W18339   6.632  17.746  10.976  0.0348 -0.0135 -0.2391
 2871W        W18340   8.681  10.357   0.872 -0.1517 -0.1052 -0.0426
 2872W        W18341  17.717   4.785   4.345  0.0819 -0.0231 -0.0272
 2873W        W18342  10.531   9.413   1.005  0.0121  0.0291  0.1118
 2874W        W18343  17.302  17.881   1.736  0.0146  0.2235 -0.3962
 2875W        W18344  16.112   5.935  15.417  0.1119 -0.0124  0.0455
 2876W        W18345  10.138   3.697  10.158 -0.1779 -0.1832  0.0508
 2877W        W18346   9.299   5.283   6.217 -0.1502 -0.0825  0.2852
 2878W        W18347   0.685   4.216  15.011 -0.0262  0.1155 -0.1413
 2879W        W18348  14.561   7.382  15.473  0.1643 -0.2738 -0.2616
 2880W        W18349  13.449  10.291   3.886  0.2842  0.0938 -0.1264
 2881W        W18350   8.746  13.718  14.114  0.1019  0.3238 -0.2322
 2882W        W18351  10.196   1.807   1.212 -0.0081 -0.0217 -0.0493
 2883W        W18352   8.849   4.788   1.879 -0.1560 -0.1446  0.0962
 2884W        W18353  17.076   8.321  11.692  0.0278 -0.1867  0.0219
 2885W        W18354  17.601   3.890   3.252 -0.0956  0.0502 -0.0652
 2886W        W18355  17.712   1.849   3.911 -0.0435  0.2301 -0.3276
 2887W        W18356  14.922  11.066  12.392 -0.0346 -0.1092  0.1477
 2888W        W18357   8.766   1.878   0.915  0.0784  0.1745 -0.0955
 2889W        W18358   8.014  15.657   0.340 -0.0166  0.1094  0.0850
 2890W        W18359   7.334   2.186   1.676 -0.0485  0.0073 -0.1069
 2891W        W18360  14.247   6.589   3.980  0.1076  0.0948 -0.4469
 2892W        W18361   5.731  12.423  10.637 -0.1095 -0.0950 -0.1298
 2893W        W18362   1.915   4.666   2.064 -0.2686  0.0287 -0.2170
 2894W        W18363   6.933   8.805  13.206  0.2072  0.0214 -0.3172
 2895W        W18364  11.158   3.460   4.925  0.0539  0.0733  0.0798
 2896W        W18365   2.900   8.616  13.749  0.2004 -0.1176  0.0877
 2897W        W18366   6.258   3.772   0.710 -0.1321  0.1181  0.1866
 2898W        W18367  13.450  12.881   4.369 -0.0091 -0.2358 -0.1933
 2899W        W18368  14.746   7.653   2.091  0.0981 -0.0776  0.0787
 2900W        W18369   3.546  10.192   2.641 -0.2748  0.0144 -0.0548
 2901W        W18370   2.986   7.535  12.328  0.0550  0.3234  0.3809
 2902W        W18371   3.978  13.993   0.038 -0.0020  0.1361  0.1630
 2903W        W18372  17.250   4.712  12.225  0.0713  0.1092  0.1374
 2904W        W18373  12.580   2.700   1.362  0.0490 -0.0309 -0.1175
 2905W        W18374  16.166  12.026   2.480 -0.1105  0.2250  0.1026
 2906W        W18375  13.298  14.348  11.993 -0.2567 -0.0745 -0.1863
 2907W        W18376   1.607   1.393   1.758 -0.2165  0.0829  0.0598
 2908W        W18377  14.738  17.875   1.202 -0.3980 -0.0430 -0.1786
 2909W        W18378   8.081  12.629   0.364 -0.3538  0.2458  0.0123
 2910W        W18379   7.353  14.042   4.435 -0.0188 -0.1279 -0.2840
 2911W        W18380   6.259   9.962  12.969 -0.1686  0.0062 -0.1197
 2912W        W18381  16.487  14.254  12.493 -0.0405  0.1742  0.2148
 2913W        W18382   0.596  11.802   4.722  0.3239  0.0183 -0.0665
 2914W        W18383   7.287   4.816  12.492 -0.1317  0.1071  0.1864
 2915W        W18384   5.521   5.907  11.322  0.1407  0.0946 -0.1592
 2916W        W18385   6.833  16.086   2.471 -0.2481 -0.3037 -0.0593
 2917W        W18386  14.485  10.569   1.687  0.0880  0.0927 -0.0025
 2918W        W18387  17.352   5.656   0.054  0.4804 -0.0737  0.0499
 2919W        W18388  14.851  17.807   2.871  0.2944  0.0814 -0.2101
 2920W        W18389  10.201  10.953  11.414  0.0865  0.1039  0.1828
 2921W        W18390  13.949  17.593  15.463  0.2371 -0.1068  0.3767
 2922W        W18391   0.154   8.562   1.031 -0.2105 -0.2054  0.3079
 2923W        W18392  14.773   9.101  14.879  0.0568 -0.3203  0.1204
 2924W        W18393   2.638   6.400  11.517  0.0151 -0.2273  0.1282
 2925W        W18394  15.238   5.739  12.372 -0.0107  0.0767  0.0814
 2926W        W18395  10.453   1.653   5.095 -0.0446  0.0288 -0.0769
 2927W        W18396  11.468  17.232  14.468  0.0750 -0.3265  0.2069
 2928W        W18397  17.599   1.219   0.246 -0.0145  0.0358  0.2190
 2929W        W18398  13.020   4.640   2.696 -0.1148  0.0107  0.1896
 2930W        W18399   4.526  14.804   3.786  0.2078  0.2349 -0.2630
 2931W        W18400   1.448   4.680   1.731  0.1435  0.0294  0.0838
 2932W        W18401  14.462  17.504  15.473 -0.0147  0.0744 -0.0850
 2933W        W18402   4.846  16.962  13.081 -0.2799  0.1303 -0.2600
 2934W        W18403  11.644  11.400  14.282  0.1313  0.2140  0.1626
 2935W        W18404  11.826  13.365   0.553  0.2085 -0.1455  0.1287
 2936W        W18405  11.264   1.334  16.121 -0.0181  0.0033  0.0482
 2937W        W18406   4.840   9.255   4.204  0.0963 -0.3229  0.0579
 2938W        W18407  12.807  10.797  15.029 -0.1348  0.1504 -0.0656
 2939W        W18408  17.132  12.398   3.853 -0.0532  0.1996 -0.2038
 2940W        W18409  12.308  11.747  14.994 -0.0539  0.1201 -0.1031
 2941W        W18410  13.093  11.988   1.134 -0.1680  0.0282 -0.1441
 2942W        W18411   9.269   9.176   0.490 -0.3108  0.0979 -0.1414
 2943W        W18412  11.731   5.351  16.195  0.1609  0.1261  0.2008
 2944W        W18413   0.903  14.950   4.114 -0.0813  0.1374  0.1647
 2945W        W18414  10.065   2.623   2.396  0.3211 -0.1049 -0.0797
 2946W        W18415   5.547   4.687  11.776 -0.0722 -0.2723  0.1872
 2947W        W18416   2.620  13.997  12.279 -0.1475  0.1243 -0.2757
 2948W        W18417  10.648   8.753   3.849  0.0869 -0.1500  0.1637
 2949W        W18418   0.206   2.470  14.191 -0.3592 -0.0447 -0.0850
 2950W        W18419   3.962   8.094   2.659 -0.0253 -0.2814  0.1791
 2951W        W18420   3.826  12.875   2.237  0.2885 -0.1871 -0.1864
 2952W        W18421   8.893  13.982   5.629 -0.1402  0.2422  0.4190
 2953W        W18422   8.561   2.087   4.850  0.0427  0.1236  0.1024
 2954W        W18423   2.129  14.307   0.182  0.1916  0.0776  0.3771
 2955W        W18424  14.611   3.112  14.168  0.1282 -0.3104 -0.1696
 2956W        W18425   0.620   7.469   2.358 -0.2511  0.0723  0.1958
 2957W        W18426   8.395   2.253   5.939  0.0908  0.1603 -0.2124
 2958W        W18427  13.422  17.795   0.797  0.1318 -0.1217  0.0744
 2959W        W18428  14.401   7.490   3.510  0.3050  0.2300 -0.1937
 2960W        W18429   3.370   2.443  15.046  0.3047 -0.2770 -0.1883
 2961W        W18430   9.003  12.683  13.380  0.0217  0.0159  0.0401
 2962W        W18431   1.556   6.515   5.071  0.3057  0.0433  0.1003
 2963W        W18432   8.046  14.989  10.426 -0.0781  0.0068 -0.0721
 2964W        W18433   6.412   4.151   1.664 -0.0005  0.0613  0.0424
 2965W        W18434   5.267  11.631   1.736 -0.0423  0.3551  0.0157
 2966W        W18435  11.750   6.545   2.035  0.0583 -0.2573 -0.1192
 2967W        W18436   0.144  16.033   3.130  0.1530 -0.1467  0.2309
 2968W        W18437   6.182   4.609   1.318  0.1953  0.0412 -0.2022
 2969W        W18438   9.567   5.776  11.631  0.2659 -0.0985 -0.1144
 2970W        W18439   4.662   4.069  12.612 -0.2095  0.0198  0.1170
 2971W        W18440   1.555  17.625  10.370 -0.1240 -0.4540 -0.0010
 2972W        W18441   5.922   1.216   2.366  0.0858  0.0154 -0.2280
 2973W        W18442   6.569   9.278   4.716 -0.1986 -0.1074  0.0924
 2974W        W18443  16.146   9.642   2.962 -0.1271  0.0550 -0.2341
 2975W        W18444   7.059  10.372   4.002  0.2780 -0.2027 -0.0239
 2976W        W18445  15.899  13.509  15.720  0.2010  0.3976 -0.1227
 2977W        W18446   0.690  11.584   6.127  0.0301 -0.1714 -0.3184
 2978W        W18447   2.622  13.841   3.786 -0.4561 -0.0838  0.0818
 2979W        W18448   4.723   7.626  12.200  0.0197  0.1508 -0.1151
 2980W        W18449  17.703   2.738   0.371  0.1486  0.4295 -0.3501
 2981W        W18450   3.215   9.354   0.581  0.0909  0.0774  0.1553
 2982W        W18451  16.255  10.117   5.342  0.0068  0.2361 -0.3261
 2983W        W18452   3.926  15.192   4.191  0.3895 -0.2396 -0.3746
 2984W        W18453   9.579   5.387   2.953  0.1169  0.0184 -0.0024
 2985W        W18454   1.039   3.254  12.429  0.0913  0.2457 -0.0229
 2986W        W18455  16.968   7.326   4.131  0.2590 -0.0228 -0.1793
 2987W        W18456   1.380   4.802   2.291 -0.0113 -0.1620 -0.0981
 2988W        W18457  11.598  11.210  13.111 -0.1628  0.1424  0.0955
 2989W        W18458  16.435   9.074   5.232 -0.0499 -0.0325  0.0589
 2990W        W18459   7.775  15.108  14.600  0.1965  0.3268  0.0093
 2991W        W18460   5.735  13.776   0.207 -0.0317 -0.0706 -0.4112
 2992W        W18461   1.515  11.196   0.994 -0.0738  0.0176  0.1832
 2993W        W18462  16.381   1.793  15.887 -0.3494  0.1669  0.2861
 2994W        W18463   2.486   5.754  14.369  0.0423  0.1413 -0.1081
 2995W        W18464   0.163   9.983   2.674  0.1929 -0.1211 -0.0611
 2996W        W18465   8.316   3.118   5.892  0.1670 -0.1151 -0.1357
 2997W        W18466  13.324  11.775  13.608 -0.2910  0.1555  0.1671
 2998W        W18467   6.127   4.597  15.475 -0.1092 -0.2288 -0.1163
 2999W        W18468  14.721   3.030   1.719  0.3071 -0.2308 -0.1497
 3000W        W18469  14.381  13.240  16.201 -0.1046 -0.1410 -0.1135
 3001W        W18470  10.282   5.319  14.504 -0.1705  0.3138 -0.2831
 3002W        W18471  17.857  10.038   3.817  0.0240 -0.0357  0.2261
 3003W        W18472   7.313  15.828  13.127  0.1848  0.1173 -0.0134
 3004W        W18473  15.078   0.273  14.739  0.0143 -0.0361 -0.6190
 3005W        W18474  11.371   4.948  13.170  0.1993  0.1217 -0.0569
 3006W        W18475  15.151   5.336  13.525  0.1399 -0.0582 -0.2783
 3007W        W18476   8.520  12.386   3.630  0.0360  0.2202 -0.3083
 3008W        W18477   3.628   4.818   4.095  0.0044  0.0294 -0.1152
 3009W        W18478   7.013   5.677   4.115  0.0917  0.0661 -0.1244
 3010W        W18479  11.494  11.725  12.199  0.2021  0.2067 -0.0055
 3011W        W18480  16.702   3.186  14.822  0.0853  0.1559 -0.1031
 3012W        W18481  15.919  16.678   0.363 -0.0915 -0.0023  0.2205
 3013W        W18482  15.723   9.286   4.606  0.4411  0.0682  0.0074
 3014W        W18483   0.333   4.152   3.340  0.1679  0.0300  0.3049
 3015W        W18484   7.401   7.097  12.300 -0.0891 -0.0969  0.1307
 3016W        W18485  10.819   5.915  12.704 -0.1387  0.4387  0.1193
 3017W        W18486   8.040  14.484  15.940  0.1466  0.2773  0.0738
 3018W        W18487  10.030   4.340  15.434 -0.3245  0.0645  0.1125
 3019W        W18488   6.214   9.436  14.872 -0.3696  0.1534  0.0188
 3020W        W18489   9.395   0.715   3.180 -0.1279 -0.0424  0.0274
 3021W        W18490  12.376   7.791   3.268 -0.0669  0.1045  0.2409
 3022W        W18491   7.038   7.418  12.253  0.3032 -0.0797 -0.0644
 3023W        W18492   1.511   0.660   1.387 -0.0376  0.0398  0.1270
 3024W        W18493  13.214   1.662  15.876 -0.0779  0.1815 -0.2651
 3025W        W18494   0.244  14.347  11.328 -0.1907  0.0218  0.0542
 3026W        W18495  12.680   8.635   1.154 -0.0055 -0.1227 -0.0001
 3027W        W18496  15.134  12.331  16.278 -0.2082 -0.1064  0.0192
 3028W        W18497  12.826  11.354   5.824  0.0959 -0.0356 -0.2444
 3029W        W18498  10.824   1.360  12.779  0.1114  0.0895  0.1558
 3030W        W18499   2.890  10.002   6.009 -0.3203 -0.4236  0.1891
 3031W        W18500  16.475  11.785   3.373  0.1239  0.0034 -0.1106
 3032W        W18501   1.186  16.768  15.540 -0.0332 -0.2650  0.1028
 3033W        W18502   0.759   0.522  15.486  0.1802  0.0601  0.1400
 3034W        W18503  11.245  12.674  13.572 -0.0523 -0.2258 -0.0655
 3035W        W18504   0.918  12.998   0.818  0.0538  0.1392  0.3358
 3036W        W18505   7.656   9.038   2.788  0.1810 -0.4807  0.2832
 3037W        W18506  16.623  12.381   2.574  0.0254  0.1530 -0.1906
 3038W        W18507   7.303   4.152  14.997  0.1422  0.0192 -0.1304
 3039W        W18508  16.024   8.797   5.417 -0.0125  0.6291  0.1487
 3040W        W18509  12.961   7.961  15.306 -0.1991  0.1315  0.1760
 3041W        W18510   9.933  14.012  11.295 -0.1790 -0.0192  0.5289
 3042W        W18511   6.259   8.371  16.301 -0.0855 -0.2806  0.1245
 3043W        W18512   1.441   5.270   2.328 -0.2149 -0.0389  0.2314
 3044W        W18513  10.617   7.997  14.272 -0.3366 -0.0915 -0.1501
 3045W        W18514   6.668  13.790  14.615 -0.0583  0.1514  0.1246
 3046W        W18515  17.522   8.868  13.769 -0.1595 -0.2685  0.0068
 3047W        W18516   2.635   7.509  10.950 -0.0383 -0.1634 -0.2807
 3048W        W18517   8.743   2.958   5.000 -0.1090  0.2422  0.1846
 3049W        W18518   9.965   0.320   4.908  0.0242 -0.1387 -0.3001
 3050W        W18519   7.922  10.291   3.811 -0.1479  0.1581 -0.1604
 3051W        W18520   3.492   0.664  15.427  0.0771  0.0286 -0.2126
 3052W        W18521  14.510   0.867   5.221 -0.0234  0.0545  0.0702
 3053W        W18522  10.007   3.514  12.073 -0.0157  0.2550 -0.1116
 3054W        W18523  15.162  11.924   3.923  0.0672 -0.3667  0.1330
 3055W        W18524  14.387   7.681  11.556 -0.1631 -0.0365 -0.0738
 3056W        W18525   0.106   3.868   5.109  0.0836 -0.0301 -0.0254
 3057W        W18526  14.090   3.113  16.033 -0.0437  0.1116  0.0434
 3058W        W18527   4.164  16.484   5.116  0.2539 -0.0868  0.3362
 3059W        W18528   1.824  11.811   3.971  0.1624 -0.1179  0.1253
 3060W        W18529  12.734   1.696  13.666  0.2131  0.0375  0.0074
 3061W        W18530  11.324   4.737  15.447  0.0188  0.0795  0.0965
 3062W        W18531  13.001   5.296   1.811 -0.0648  0.0691  0.3252
 3063W        W18532   2.638   8.999   4.219 -0.0206 -0.2035 -0.1262
 3064W        W18533  17.125   3.383   3.889  0.3721 -0.5910  0.4736
 3065W        W18534   1.278   2.545   3.878 -0.1409  0.0074  0.1146
 3066W        W18535  12.716   7.609  12.819  0.2611  0.4386 -0.2418
 3067W        W18536   8.884  10.594  15.850 -0.0830  0.0221  0.2227
 3068W        W18537  12.427   2.329   3.093 -0.1810 -0.1322  0.0747
 3069W        W18538  17.627   1.528   1.361  0.2890  0.0604  0.0673
 3070W        W18539  12.418   2.586   4.834  0.1718 -0.1153  0.0151
 3071W        W18540  12.074   8.265  14.324 -0.3785  0.0684  0.1488
 3072W        W18541   6.052  10.654  13.855 -0.0340 -0.0351  0.0105
 3073W        W18542   2.408   7.277  11.962  0.0383  0.3420  0.0177
 3074W        W18543  16.872  16.704  15.169 -0.2587 -0.0867 -0.0570
 3075W        W18544   6.883  12.175  15.246 -0.1866  0.2186  0.0661
 3076W        W18545  13.210  15.900   0.561 -0.1781 -0.2522 -0.1808
 3077W        W18546   3.434  15.925  11.629 -0.2071  0.0391 -0.1664
 3078W        W18547  10.053  14.919   2.820 -0.0203  0.1206  0.1449
 3079W        W18548  12.238   1.778  15.804 -0.1284 -0.1714  0.0640
 3080W        W18549  15.760   4.757  15.251 -0.1129 -0.0489  0.0890
 3081W        W18550  15.863  13.462   1.106  0.0349 -0.0442  0.0090
 3082W        W18551  12.251  16.590   2.767 -0.1535 -0.0514  0.0714
 3083W        W18552  15.537  10.709   0.762 -0.1437  0.6325 -0.1945
 3084W        W18553   2.945  15.439  16.251 -0.0050  0.0990  0.0786
 3085W        W18554  17.860   1.465   4.200  0.1894  0.1830 -0.0434
 3086W        W18555   8.005   5.651   5.528  0.1557  0.0758  0.4169
 3087W        W18556  17.422   7.588   4.122  0.0138 -0.2166 -0.2134
 3088W        W18557  16.107  13.532   0.635 -0.0069 -0.2754 -0.3903
 3089W        W18558  12.460   8.979  13.648 -0.0694 -0.0549  0.3514
 3090W        W18559   1.618  15.576  11.337 -0.1707 -0.0553 -0.1172
 3091W        W18560   1.684   5.161  13.253  0.0537  0.3853  0.0628
 3092W        W18561   4.140  16.459  12.134 -0.1351  0.0552 -0.0814
 3093W        W18562  17.069  11.649   4.274 -0.2147  0.0890 -0.0963
 3094W        W18563  16.506  12.617   5.073  0.0773  0.0186 -0.0397
 3095W        W18564   0.928   3.850  13.772 -0.3558  0.3716 -0.0693
 3096W        W18565   2.324   7.114   0.692 -0.1551  0.0676  0.3058
 3097W        W18566   9.175   8.306   0.241 -0.2634  0.0886  0.1539
 3098W        W18567   3.987  17.898  14.257 -0.0341  0.2617 -0.0508
 3099W        W18568   1.753  15.715   5.597  0.0395  0.1225  0.3003
 3100W        W18569  17.259   5.762   2.215 -0.0742 -0.2819 -0.1389
 3101W        W18570   2.089   2.817  12.482 -0.2328  0.2389 -0.3829
 3102W        W18571   2.828  14.385   5.598 -0.1752 -0.0668 -0.0591
 3103W        W18572   5.824   9.453  15.542 -0.0353  0.0255 -0.1056
 3104W        W18573  11.645   7.036   4.364 -0.0822 -0.1554  0.2031
 3105W        W18574   1.704   2.540   0.951  0.2655 -0.0822 -0.1726
 3106W        W18575  11.834   0.429  10.550 -0.1831  0.1474 -0.2791
 3107W        W18576  14.626   1.852  12.957 -0.0004  0.0943  0.1144
 3108W        W18577   4.017  13.157  11.851  0.2107 -0.1313 -0.0186
 3109W        W18578   8.418  15.723  10.719 -0.0864 -0.0764  0.1963
 3110W        W18579  17.871   0.993   4.553  0.0272 -0.1053 -0.0806
 3111W        W18580   8.492   2.001   3.022 -0.1566  0.0071  0.1184
 3112W        W18581  15.180  16.258   0.317  0.0435 -0.1670 -0.3818
 3113W        W18582  12.731  10.065   4.681  0.2382 -0.2344 -0.1832
 3114W        W18583  16.141   4.601  11.432 -0.0290 -0.2125 -0.1531
 3115W        W18584   2.147  16.215   4.095 -0.0911  0.1560 -0.0937
 3116W        W18585   3.877   4.832   0.663 -0.0156  0.0371  0.1297
 3117W        W18586  15.223  10.607   4.110 -0.0542 -0.1751 -0.0383
 3118W        W18587  14.854  14.594   2.752  0.2033  0.1978  0.1214
 3119W        W18588   9.029   5.605  11.490  0.1171 -0.1804 -0.2604
 3120W        W18589   9.100  11.851   4.818 -0.3263 -0.0510  0.2613
 3121W        W18590  14.581  13.823   1.780  0.2534  0.0771 -0.1251
 3122W        W18591   7.419   0.787  13.683 -0.1797  0.0596 -0.2475
 3123W        W18592  14.175  16.416  16.297  0.2552 -0.4217  0.0038
 3124W        W18593  10.614  10.768  15.027 -0.0862 -0.1615 -0.1772
 3125W        W18594   5.891   9.793   5.045 -0.0241  0.1962  0.0524
 3126W        W18595  11.987   1.601   5.771  0.0678 -0.0020  0.1506
 3127W        W18596  10.565  14.741  11.029  0.0816  0.0551  0.0194
 3128W        W18597   2.814  15.031   2.796  0.1219  0.2353 -0.2116
 3129W        W18598   1.094   2.628   1.638 -0.4921  0.0275  0.2813
 3130W        W18599  13.236   6.084  12.973  0.1117 -0.0649  0.0907
 3131W        W18600   2.850  18.037  12.807 -0.0117 -0.1096 -0.1035
 3132W        W18601   6.371   6.118   2.962 -0.2189 -0.1287  0.0766
 3133W        W18602   6.781   9.471   3.725 -0.1426 -0.0743  0.0662
 3134W        W18603  10.489  16.749  11.442  0.0452 -0.0850 -0.2726
 3135W        W18604   0.160   2.936   3.351 -0.2508  0.3513  0.2372
 3136W        W18605   3.767  16.318   3.471  0.0426 -0.3082 -0.0015
 3137W        W18606   5.281   7.479   5.594  0.0190 -0.0704 -0.0115
 3138W        W18607  14.934   3.255  16.230 -0.0012  0.2722  0.2125
 3139W        W18608  11.360  14.138  15.688 -0.4698 -0.1313  0.2158
 3140W        W18609  12.379   0.105   2.596  0.1916  0.2522 -0.1347
 3141W        W18610  10.470  12.234   3.544  0.1945 -0.0176  0.0829
 3142W        W18611  13.497  12.869   3.025  0.3523 -0.0462 -0.0971
 3143W        W18612  14.933   9.960   2.110  0.0729 -0.1030 -0.1250
 3144W        W18613  13.528   0.332   3.578  0.3123 -0.0261 -0.0262
 3145W        W18614   9.409   7.210  14.766 -0.3224  0.1296 -0.1107
 3146W        W18615   5.389   7.738  11.387 -0.0645 -0.3352  0.2858
 3147W        W18616   0.536   4.811  14.127  0.3552  0.1743  0.2028
 3148W        W18617  13.441   2.360   5.639  0.0362 -0.2709 -0.3947
 3149W        W18618   2.281  13.461  13.740  0.1727 -0.1107 -0.1716
 3150W        W18619   6.191  13.946   4.622 -0.2229  0.1578  0.0375
 3151W        W18620   9.928   4.850   3.501 -0.0343  0.1174 -0.1929
 3152W        W18621   7.063   0.851   4.572 -0.1083 -0.0843  0.2422
 3153W        W18622  17.332   3.135  13.774  0.1728 -0.0056  0.1290
 3154W        W18623  14.486   7.922  12.054  0.2095  0.0979 -0.0314
 3155W        W18624   9.347   0.371  14.622 -0.1275  0.0675  0.2076
 3156W        W18625   1.157  17.330  12.398  0.1588 -0.3298  0.0945
 3157W        W18626   3.764   5.953   4.089 -0.0591  0.2552  0.0802
 3158W        W18627   6.585  10.260  13.215 -0.2883  0.1318  0.2066
 3159W        W18628  14.797   7.391   3.147  0.1665 -0.2054 -0.0534
 3160W        W18629  14.518   5.251   0.412 -0.1705  0.2281  0.2600
 3161W        W18630   2.967   6.815   4.954  0.0250 -0.0183 -0.0648
 3162W        W18631   6.130  12.675   4.674  0.4631 -0.1905 -0.1172
 3163W        W18632   6.191   4.371  16.224 -0.3745  0.1097 -0.0537
 3164W        W18633  10.727  14.941   5.581 -0.1874  0.2499 -0.3570
 3165W        W18634   4.588   4.229  11.829 -0.0883  0.0264 -0.1834
 3166W        W18635   2.570   6.700  15.902 -0.1518  0.1224  0.2053
 3167W        W18636   0.848  11.067  12.934  0.0521 -0.2436  0.1813
 3168W        W18637   8.857   7.044   4.897  0.0250 -0.0484 -0.5661
 3169W        W18638   8.658  10.921  15.498 -0.3298 -0.0209 -0.2233
 3170W        W18639   7.812  16.753  10.787 -0.1367 -0.0973  0.1305
 3171W        W18640   2.866   9.361  11.553  0.2821  0.3391  0.2372
 3172W        W18641   9.220  11.210  10.295  0.0438  0.1097 -0.0724
 3173W        W18642  13.072  11.579   0.306  0.0143  0.1349  0.0181
 3174W        W18643  16.138   6.889   3.069 -0.0352  0.0380  0.1144
 3175W        W18644   3.993   6.826   4.462 -0.1097 -0.0629  0.0951
 3176W        W18645  12.944   3.214   0.640  0.2363 -0.0492  0.0608
 3177W        W18646   6.671   7.306  15.438  0.1820 -0.0113 -0.4033
 3178W        W18647   3.757   0.047   2.276  0.3290 -0.2550 -0.0216
 3179W        W18648   4.332   7.620   3.208 -0.1433 -0.0567 -0.0011
 3180W        W18649  18.018   0.718  11.661 -0.2291 -0.0752  0.1447
 3181W        W18650  12.763  14.184  11.529 -0.0864  0.0888 -0.0648
 3182W        W18651  13.818   8.412   2.066 -0.0230 -0.1661 -0.1360
 3183W        W18652   6.576  13.785  11.201  0.1994 -0.1150 -0.0178
 3184W        W18653  15.869   7.576   4.853  0.1298  0.0366 -0.0966
 3185W        W18654   6.638  12.685   0.073  0.1702  0.2854  0.0425
 3186W        W18655  15.411  16.693   5.319 -0.1189 -0.0199 -0.1869
 3187W        W18656   3.453  15.561  12.128  0.1865  0.3612  0.3388
 3188W        W18657  16.026   8.124  12.414  0.2138 -0.2271  0.0735
 3189W        W18658  17.794   5.917   0.227 -0.1582  0.1851 -0.0366
 3190W        W18659   6.702   8.856   2.932 -0.1048 -0.0230  0.0253
 3191W        W18660   1.035   9.312   0.350 -0.0327 -0.0571 -0.0519
 3192W        W18661  17.327   8.074  11.279  0.3421 -0.1191 -0.1569
 3193W        W18662   3.400   6.184  11.251 -0.3009 -0.1537  0.0797
 3194W        W18663  12.790  16.388  12.178  0.1152  0.3331  0.0615
 3195W        W18664  14.683  10.619  14.043 -0.1877 -0.0810 -0.4661
 3196W        W18665   1.305  15.183   4.422  0.1665  0.0367 -0.1468
 3197W        W18666   3.030  15.679  15.204 -0.1144  0.0680 -0.1363
 3198W        W18667  15.142  16.938  15.840  0.3455 -0.1717 -0.2162
 3199W        W18668   6.064   8.439  12.117 -0.1007  0.0325 -0.2834
 3200W        W18669   6.000   8.629   6.139  0.1154  0.2423  0.0508
 3201W        W18670   0.768   9.583  10.984 -0.0164  0.3518 -0.0553
 3202W        W18671  17.530   3.442   4.541 -0.2912  0.0879 -0.0412
 3203W        W18672  10.128   2.279   2.805  0.0512 -0.0658  0.4434
 3204W        W18673   5.706   1.127   3.435  0.1402 -0.0415 -0.0801
 3205W        W18674  10.526   8.663  15.212 -0.5363  0.2134  0.1131
 3206W        W18675   4.748  18.088  11.417 -0.2928 -0.1980  0.0446
 3207W        W18676   0.163   3.666   0.451 -0.1385 -0.0388 -0.0728
 3208W        W18677  13.106   2.719   5.634  0.0521  0.0092 -0.2894
 3209W        W18678   9.657   4.147  13.395 -0.1476  0.0044  0.2154
 3210W        W18679  13.063  17.797  13.177 -0.3645 -0.2281  0.0158
 3211W        W18680   2.574  17.835   4.549  0.1740 -0.2363 -0.2808
 3212W        W18681   8.408  12.576  15.318  0.2283 -0.0781 -0.2693
 3213W        W18682   7.704  14.950   2.161  0.2656  0.0721 -0.0155
 3214W        W18683  16.127   7.455   3.532 -0.3669 -0.0087 -0.2167
 3215W        W18684  17.028  12.000   2.047  0.2583  0.3012  0.1403
 3216W        W18685   1.868  15.074  11.497  0.1130  0.1018 -0.0169
 3217W        W18686  17.941   4.365  14.580 -0.1140  0.0672  0.0311
 3218W        W18687  15.522  12.571  14.181 -0.0578 -0.0307  0.2163
 3219W        W18688   0.182  13.032   1.272 -0.3666  0.2447  0.1659
 3220W        W18689   1.203   9.843  16.133  0.0265  0.1230  0.0801
 3221W        W18690   3.678  13.716   1.860  0.0185 -0.0435 -0.2120
 3222W        W18691   2.708  12.803  14.856 -0.0204 -0.1239 -0.2128
 3223W        W18692  11.227  12.890  16.054 -0.1316  0.1179 -0.0332
 3224W        W18693   8.389   4.041   3.512  0.0454  0.0781  0.1324
 3225W        W18694   0.190   2.925   2.271  0.0347  0.0806  0.2316
 3226W        W18695   8.732  14.560  12.394  0.1545 -0.0700  0.2880
 3227W        W18696   6.884  17.126   1.123  0.1216 -0.1137  0.4916
 3228W        W18697   7.239   0.982   3.687  0.2251 -0.0039  0.2404
 3229W        W18698   7.893  11.684  12.669 -0.0375  0.2875  0.0927
 3230W        W18699   8.015   5.353  14.303  0.0444 -0.0746 -0.3849
 3231W        W18700  15.320  15.300   2.684  0.1671  0.1147 -0.0696
 3232W        W18701  13.498   2.450  12.674 -0.1498 -0.1636 -0.1877
 3233W        W18702   0.679  15.038  15.297  0.1206  0.2116  0.0846
 3234W        W18703   7.338  17.002   2.665  0.2492  0.1888 -0.0235
 3235W        W18704  16.233   8.650  14.143  0.0250  0.3242  0.2800
 3236W        W18705  17.106   7.724  13.246 -0.1737  0.0035  0.0288
 3237W        W18706  14.161   3.301  15.535  0.1867 -0.0916  0.0793
 3238W        W18707  13.464  13.583   3.234  0.1492  0.2077  0.0146
 3239W        W18708   5.978   7.581   5.173 -0.0951 -0.2898 -0.2762
 3240W        W18709  12.155  13.579  12.164  0.0878  0.1549 -0.1148
 3241W        W18710   8.217   4.333  12.511 -0.0177  0.4403  0.1022
 3242W        W18711   9.428  12.277   4.819 -0.0596  0.1827  0.0413
 3243W        W18712  13.652  12.688  11.443 -0.0587 -0.0994 -0.2239
 3244W        W18713  10.056   8.262   1.348  0.2159 -0.1691  0.0775
 3245W        W18714   9.434   6.870  15.164  0.0891  0.4129 -0.1942
 3246W        W18715   7.510  12.550   4.768  0.1242  0.2462 -0.1317
 3247W        W18716   3.881   1.870   3.373  0.2435 -0.0527 -0.1347
 3248W        W18717   2.657  17.198  14.174  0.0099  0.1352 -0.1364
 3249W        W18718   2.001   7.268   1.482 -0.0917  0.0491  0.2590
 3250W        W18719  10.658  10.916  13.549  0.3001  0.0863 -0.1698
 3251W        W18720  14.566   3.232  15.880  0.1743 -0.1641 -0.1189
 3252W        W18721   5.853  10.254   3.109  0.0115 -0.0343 -0.0622
 3253W        W18722  16.972   7.035   5.297  0.0333 -0.1192  0.1661
 3254W        W18723  17.865   1.405   0.834 -0.3069 -0.0416 -0.1634
 3255W        W18724  15.208  10.651   4.605 -0.0533 -0.0349  0.0405
 3256W        W18725  10.227  12.279  15.998 -0.0625  0.0386  0.4016
 3257W        W18726   5.463   1.701  11.396  0.3513 -0.1495  0.1003
 3258W        W18727   0.057  17.370  13.920  0.3041 -0.1203  0.0494
 3259W        W18728   5.014   4.868   3.731 -0.0406  0.0019 -0.2809
 3260W        W18729   3.658  17.218  13.719 -0.0275  0.1829  0.0305
 3261W        W18730  15.701   5.675  12.231 -0.1568  0.0478 -0.0005
 3262W        W18731   5.852   6.931   3.897  0.1597 -0.2013 -0.1300
 3263W        W18732   2.520   4.203   1.253  0.0615 -0.2436 -0.1341
 3264W        W18733  10.847  14.262   0.058  0.1309 -0.0840 -0.0148
 3265W        W18734   8.302  11.649   3.935  0.0717  0.0057  0.0379
 3266W        W18735   5.370  13.237  14.842 -0.1092 -0.0934  0.1801
 3267W        W18736  16.542   4.760  11.725 -0.0651  0.1162  0.0853
 3268W        W18737  11.510   1.816  11.615 -0.2386  0.3301  0.0783
 3269W        W18738  17.423  14.121   5.197  0.1633 -0.0578 -0.1492
 3270W        W18739  11.775   5.106   6.232 -0.1284  0.0014  0.1865
 3271W        W18740   4.625   6.695  13.410  0.1972  0.0885 -0.2414
 3272W        W18741   1.116   1.576  12.158 -0.3951  0.0301  0.0240
 3273W        W18742  12.340  10.851   4.778 -0.0391  0.1655  0.3441
 3274W        W18743  11.125  12.198   3.978 -0.0353 -0.3732  0.0169
 3275W        W18744   4.896   9.261  12.678  0.0432 -0.2485  0.0613
 3276W        W18745  11.493   2.809  14.852 -0.0227  0.0290  0.0586
 3277W        W18746   2.134  16.892  12.304  0.0831  0.0290  0.1563
 3278W        W18747   5.780   6.956   5.616 -0.2381  0.4755  0.2315
 3279W        W18748   0.539   2.102   5.176 -0.1184 -0.0012  0.1357
 3280W        W18749  14.090  14.107  12.383 -0.0614  0.0565 -0.1235
 3281W        W18750  17.655   8.420   4.658  0.0847 -0.3391  0.2358
 3282W        W18751  11.248   5.528   4.309  0.1892 -0.2440 -0.1753
 3283W        W18752  17.555  16.232   4.368  0.0627 -0.0691  0.1025
 3284W        W18753  12.375   3.815   0.258 -0.1927 -0.0396  0.0186
 3285W        W18754   8.865   6.707   0.161 -0.0251 -0.1182  0.0557
 3286W        W18755  17.732  12.217   3.238 -0.1590 -0.0626 -0.2308
 3287W        W18756  15.302  11.278   1.746  0.0943  0.1790  0.1980
 3288W        W18757  17.622   2.528   3.633  0.2168 -0.0428 -0.1240
 3289W        W18758   5.737  14.128   4.936 -0.2002  0.2287  0.1889
 3290W        W18759   0.007  16.290  16.228 -0.1658  0.0035  0.2100
 3291W        W18760  14.389   1.530  14.318  0.1367 -0.1053 -0.1420
 3292W        W18761  11.411   9.664  13.086  0.3053 -0.1538 -0.0962
 3293W        W18762  12.157   0.575  15.329  0.1087  0.1497 -0.2142
 3294W        W18763  12.331  15.096  15.266 -0.2530 -0.0207 -0.0048
 3295W        W18764   4.297  17.064   3.865  0.2635  0.0857 -0.4759
 3296W        W18765  16.650   7.326  14.055  0.1011 -0.0349  0.1920
 3297W        W18766   3.628   2.090   0.423 -0.1098 -0.1656 -0.1028
 3298W        W18767   9.263  17.329   5.354  0.1150 -0.1639  0.0447
 3299W        W18768   1.788   2.329  15.557  0.0051 -0.1007 -0.0791
 3300W        W18769  10.788  13.150  11.559 -0.0225  0.3317  0.1652
 3301W        W18770  11.322   4.425   3.997 -0.3311  0.1762 -0.0705
 3302W        W18771  16.749  17.472  14.955  0.1194 -0.1369  0.1511
 3303W        W18772  17.826   3.039   3.670  0.1549  0.1594 -0.0580
 3304W        W18773  17.901  12.253  12.358 -0.1103  0.1454 -0.0702
 3305W        W18774  14.694  11.843   1.990  0.2459  0.2766 -0.0213
 3306W        W18775   2.662  14.786  11.832 -0.1415  0.3689 -0.1628
 3307W        W18776   2.875  13.148   2.676 -0.2348  0.1453  0.0895
 3308W        W18777  16.991   7.480  14.395 -0.0111  0.0960  0.0963
 3309W        W18778   3.167   8.467   4.315  0.0483  0.1594  0.1394
 3310W        W18779   8.621  14.111  14.945  0.0499 -0.2550 -0.1830
 3311W        W18780   1.285   5.868   5.864  0.2661  0.0515  0.1128
 3312W        W18781  11.891  14.097   2.653  0.1714 -0.3332 -0.0913
 3313W        W18782   3.117  12.290  11.811  0.2555  0.0083  0.2692
 3314W        W18783  13.542   5.671  10.287 -0.0978  0.0009 -0.1490
 3315W        W18784   5.414  15.878   3.933  0.2147 -0.3657 -0.0542
 3316W        W18785   4.066  10.240  11.470 -0.2838  0.0224 -0.4778
 3317W        W18786   9.929   2.351   5.068 -0.0568 -0.0517  0.0502
 3318W        W18787  17.242   0.084   2.510 -0.1666 -0.1844 -0.1012
 3319W        W18788  13.868   0.613   1.699  0.0927 -0.3948 -0.3314
 3320W        W18789   9.759   1.574  10.835  0.2403  0.0078  0.0750
 3321W        W18790   4.259  11.368  13.162 -0.1520  0.0219 -0.0601
 3322W        W18791  10.511   9.815  15.946 -0.2883  0.2754  0.0032
 3323W        W18792   0.117  12.577   0.297  0.1733  0.1813 -0.1259
 3324W        W18793   4.200   2.545   1.603  0.0500  0.1036  0.0959
 3325W        W18794   1.634   7.667  12.717  0.1645  0.1634 -0.0994
 3326W        W18795  13.315   4.667   0.146 -0.2150 -0.2092  0.0712
 3327W        W18796   8.702   9.973  11.114 -0.0395  0.1933 -0.4641
 3328W        W18797   7.751   4.354  12.840  0.2072 -0.2085 -0.2572
 3329W        W18798   6.839  14.015   3.547  0.2767  0.0689  0.2787
 3330W        W18799   0.280  11.271  13.651  0.0134 -0.1483 -0.0042
 3331W        W18800   8.673   7.651  15.056  0.0509  0.2188 -0.0336
 3332W        W18801  11.413  14.926   4.457 -0.0019  0.0721  0.0101
 3333W        W18802  13.355   5.270   2.219 -0.0603  0.2085 -0.1613
 3334W        W18803  14.599  17.917  15.162 -0.2048 -0.0009  0.3031
 3335W        W18804  14.923  15.507  12.709 -0.0432  0.0113 -0.1355
 3336W        W18805  13.806   2.277  11.677  0.0870 -0.0817 -0.1912
 3337W        W18806   7.290   4.937  16.269 -0.2652  0.3275 -0.1296
 3338W        W18807   2.219   8.449   1.018  0.2132  0.0841 -0.1687
 3339W        W18808   8.167  15.701  12.027 -0.1128 -0.2352 -0.1722
 3340W        W18809   0.004   5.248  12.576  0.0996  0.0119 -0.1407
 3341W        W18810   0.264  11.982  12.530  0.1266  0.1701 -0.1033
 3342W        W18811   2.554   9.121  16.165 -0.0372 -0.2084  0.0391
 3343W        W18812  12.159  15.873   4.867 -0.0894  0.3556 -0.1089
 3344W        W18813   1.148   3.053  13.355  0.1831 -0.0317 -0.2288
 3345W        W18814  17.654  12.409  15.861  0.0653 -0.3160 -0.1137
 3346W        W18815  10.152   7.632  13.275  0.1226 -0.0973 -0.1430
 3347W        W18816   4.481   5.201   2.535 -0.3915 -0.1406 -0.3447
 3348W        W18817  15.287   0.854  14.778 -0.1431  0.0350  0.0351
 3349W        W18818   0.108   3.926  10.941 -0.2171  0.1990  0.4448
 3350W        W18819  11.569  11.823   1.190 -0.0847  0.1654 -0.1000
 3351W        W18820   0.991   5.326  11.120 -0.1381 -0.3662 -0.0715
 3352W        W18821  15.926   3.593  12.112  0.0096 -0.0521 -0.1812
 3353W        W18822   0.562  11.647  15.519 -0.2592  0.2515  0.2032
 3354W        W18823  17.067  11.853  14.433 -0.0139  0.1519  0.0803
 3355W        W18824   5.820  14.080  11.202  0.0801 -0.0673  0.1975
 3356W        W18825   3.251  14.009   4.353 -0.2453 -0.1201 -0.1667
 3357W        W18826  16.211  16.790  14.324 -0.0557 -0.1067 -0.0538
 3358W        W18827   9.044   1.468   3.436  0.3184 -0.0035 -0.0773
 3359W        W18828   7.667   7.505  14.250 -0.0253  0.0348  0.0500
 3360W        W18829   8.798   7.124   1.955  0.1685  0.0358  0.2069
 3361W        W18830   1.939  16.843  14.874  0.3068 -0.0085  0.2991
 3362W        W18831   7.668  17.025   4.541  0.4123 -0.0621 -0.1032
 3363W        W18832   3.571  14.058   2.256  0.0933  0.0842  0.1232
 3364W        W18833   5.353   3.511  13.592 -0.4193 -0.0867  0.0108
 3365W        W18834  14.018  11.603  14.119 -0.1268  0.1387 -0.2896
 3366W        W18835  12.495   8.934  15.453  0.2375  0.0895  0.0597
 3367W        W18836  13.505   6.276  12.444 -0.0827 -0.1565  0.3946
 3368W        W18837  17.391  11.470  13.636 -0.1847  0.2322  0.2583
 3369W        W18838  14.674   0.452   0.744  0.0789 -0.0040 -0.1308
 3370W        W18839  15.575  11.533  11.414 -0.1416  0.1334  0.1174
 3371W        W18840  10.745   7.929   5.058  0.3854 -0.0373  0.1836
 3372W        W18841  13.840   1.073  13.332 -0.1613  0.2263 -0.1511
 3373W        W18842   7.289  16.984   5.315 -0.3062  0.1203 -0.0004
 3374W        W18843  15.981   0.294  15.043  0.2938  0.1189 -0.1513
 3375W        W18844  13.311   4.695   3.724  0.0079  0.0801 -0.0832
 3376W        W18845  13.199  17.058  10.054  0.1268  0.2027 -0.1689
 3377W        W18846   0.709   9.100  16.318  0.1124  0.0032 -0.0650
 3378W        W18847   2.046  15.497   3.760  0.3329  0.0723 -0.0630
 3379W        W18848   8.667   4.064   5.617  0.0515  0.0792 -0.0095
 3380W        W18849   1.697  14.282  16.090  0.1747 -0.0744 -0.1247
 3381W        W18850  17.265  15.623   3.770  0.0318 -0.0998  0.0633
 3382W        W18851   4.345  11.079   2.289  0.0715 -0.0496  0.0454
 3383W        W18852   4.798   7.338  16.127  0.1309  0.3052  0.0752
 3384W        W18853   3.757   9.265  13.758  0.2574 -0.3720 -0.2059
 3385W        W18854  17.643  17.313   4.780  0.0733  0.3063  0.3271
 3386W        W18855  11.204  15.879  15.302 -0.1645  0.2431 -0.0052
 3387W        W18856   8.024  12.366  13.617  0.1032 -0.1169 -0.1329
 3388W        W18857  12.600  11.230  11.637  0.1283  0.0674 -0.2737
 3389W        W18858   5.430   7.062   2.591  0.1184  0.2005  0.0251
 3390W        W18859  16.500   4.769  12.718  0.0462 -0.2646 -0.0524
 3391W        W18860   2.479   3.407   1.592  0.0418  0.1481 -0.0250
 3392W        W18861   7.060   9.416   1.870  0.0870  0.0182 -0.0873
 3393W        W18862  14.175  13.180  11.325  0.1660 -0.3357 -0.2047
 3394W        W18863  17.991  12.472   0.952  0.0914 -0.0168  0.1511
 3395W        W18864   7.743   1.361   1.671  0.2765 -0.3754  0.2718
 3396W        W18865  16.454   1.400  13.669 -0.1573  0.0472 -0.0749
 3397W        W18866   7.559   6.246  15.336 -0.2386 -0.2369 -0.3221
 3398W        W18867  11.751   6.875   2.405 -0.0690  0.1213  0.0883
 3399W        W18868   8.731  14.717   2.044 -0.1288 -0.2180  0.3158
 3400W        W18869   0.188  17.178  13.422  0.2150 -0.2859  0.2722
 3401W        W18870  12.319   2.132  11.398 -0.3937  0.1273  0.1032
 3402W        W18871  12.409   7.844  13.652  0.2781  0.3333 -0.0132
 3403W        W18872   7.607  15.814   3.592  0.1424 -0.1010  0.1072
 3404W        W18873   9.406   3.240   3.826  0.3335  0.1731  0.2307
 3405W        W18874   5.606   3.929   3.229 -0.0712 -0.2029  0.0322
 3406W        W18875  13.365  13.361   1.463  0.2098 -0.1483 -0.3521
 3407W        W18876   3.027  17.937  15.176 -0.0570 -0.1855  0.0296
 3408W        W18877   6.491   0.519  10.433  0.0988  0.2990 -0.0632
 3409W        W18878   9.428   2.879   0.545  0.0807  0.0765  0.2250
 3410W        W18879   9.711  10.198  13.404  0.1770  0.3426  0.0981
 3411W        W18880   8.175   4.769  15.374  0.0157 -0.0351  0.1899
 3412W        W18881   0.305  15.516   0.429 -0.1576  0.2997  0.1568
 3413W        W18882  16.180   3.886   2.194 -0.0593  0.1541 -0.0746
 3414W        W18883   4.484  13.022   1.392 -0.0470 -0.2416  0.3239
 3415W        W18884  16.764   3.650  11.556 -0.0231  0.4618  0.0830
 3416W        W18885  16.589   3.984  14.124  0.2770  0.0884 -0.2870
 3417W        W18886  11.012  13.685   5.079 -0.1602  0.0123 -0.1652
 3418W        W18887   1.589   2.823   4.217  0.1536 -0.1787  0.1414
 3419W        W18888  13.369   5.319   4.109  0.1014  0.1467  0.0214
 3420W        W18889  11.175   7.272   5.308 -0.0368 -0.1374 -0.0564
 3421W        W18890  14.360  12.184   0.487  0.0965  0.2468  0.1256
 3422W        W18891   2.289   7.615  13.272 -0.1886 -0.0658  0.3591
 3423W        W18892  14.880   9.727   2.569  0.1742  0.0868 -0.0831
 3424W        W18893  15.773   6.591  12.090  0.0584  0.1605 -0.0916
 3425W        W18894  12.195   1.244  15.867 -0.0801  0.0977  0.2795
 3426W        W18895   1.546  15.483   2.528  0.0108  0.2139  0.3050
 3427W        W18896   0.868  17.313  15.448 -0.2339 -0.1291 -0.1614
 3428W        W18897  11.051   5.816   0.588 -0.0425  0.1672 -0.0362
 3429W        W18898  11.444   1.065   2.435  0.0115  0.0794  0.0759
 3430W        W18899  13.446   8.110   2.352 -0.3760  0.1349  0.1510
 3431W        W18900  12.991  12.471   1.209 -0.3811  0.0255 -0.1798
 3432W        W18901  17.131   1.223   0.446  0.1719  0.0352 -0.0317
 3433W        W18902   3.046  11.515  14.398 -0.2372 -0.2092  0.1188
 3434W        W18903  17.850   8.522  12.353  0.4442 -0.0806  0.1581
 3435W        W18904  13.055  16.624  12.575 -0.1772 -0.0565 -0.0772
 3436W        W18905  11.575   9.222   3.262  0.1405  0.1821  0.1159
 3437W        W18906   7.690  15.521  14.927  0.0300 -0.0643 -0.3068
 3438W        W18907   8.516   6.845  11.236  0.2491 -0.2694 -0.0644
 3439W        W18908  16.689   0.073   3.402  0.1995  0.0258 -0.0050
 3440W        W18909   0.732  12.455   3.824 -0.2309 -0.3511  0.1679
 3441W        W18910  14.101   9.983  13.694  0.0887 -0.1272  0.0351
 3442W        W18911   3.445   4.612   0.916 -0.1064 -0.2812 -0.1215
 3443W        W18912  16.929  16.966   2.809 -0.2005  0.1587  0.1800
 3444W        W18913   0.787   2.387  15.720 -0.2978 -0.1769  0.1594
 3445W        W18914   3.217  15.319   0.330 -0.0143  0.0710  0.2180
 3446W        W18915   9.796  10.399  16.213 -0.0080 -0.2881  0.0476
 3447W        W18916   8.808   3.462   0.490 -0.0774  0.4218 -0.5087
 3448W        W18917  15.810  12.932   2.807  0.0597  0.2972  0.1434
 3449W        W18918   7.963   6.577   2.468 -0.1708  0.1842  0.0780
 3450W        W18919   8.811   7.521   0.399 -0.0359 -0.3187 -0.0712
 3451W        W18920  14.019  17.485   2.600  0.3374 -0.0262  0.0930
 3452W        W18921  14.258   0.513  14.753 -0.1663  0.0148  0.2356
 3453W        W18922  15.974   1.636   0.374  0.0872  0.1445 -0.0466
 3454W        W18923  12.953  13.563  15.566 -0.0883  0.1956  0.2271
 3455W        W18924   0.776   1.358   3.210  0.2951  0.0757 -0.2222
 3456W        W18925   5.278   4.905   3.300  0.0197 -0.2560  0.0894
 3457W        W18926  10.566   3.276   5.565 -0.2088  0.0506  0.1100
 3458W        W18927   4.006  14.676   4.493 -0.2420 -0.0380  0.1033
 3459W        W18928   4.860   5.298   3.939 -0.0155  0.1023  0.2222
 3460W        W18929  15.001   8.384   4.045 -0.0083 -0.0112  0.1573
 3461W        W18930   2.682  13.708  15.197  0.0039 -0.0190  0.0146
 3462W        W18931  16.883   0.234  15.069  0.5322  0.0338  0.0924
 3463W        W18932   4.847  12.876   3.613 -0.0861 -0.1756 -0.1391
 3464W        W18933   3.072  12.359  14.451  0.1423  0.1707  0.2838
 3465W        W18934  15.504  10.095  13.248  0.1470  0.0028 -0.0533
 3466W        W18935  11.608  16.361   4.661  0.0117  0.2075  0.1710
 3467W        W18936   6.347  15.690  14.211 -0.1874  0.1839  0.1695
 3468W        W18937   8.368  17.804   4.051  0.0764  0.2153  0.0978
 3469W        W18938   3.632   1.273  16.055 -0.0187 -0.0480 -0.6152
 3470W        W18939  15.041   7.996   4.810 -0.2900 -0.1887 -0.0018
 3471W        W18940  17.364  10.656   3.553  0.0958  0.0929  0.0822
 3472W        W18941   6.468  17.576   0.251 -0.0448  0.0558 -0.1277
 3473W        W18942   0.904   8.371  14.373 -0.2817  0.0038 -0.1972
 3474W        W18943   2.118  14.113   3.256  0.1135  0.1257  0.0215
 3475W        W18944  10.373   3.758  12.341  0.2504  0.2109 -0.0752
 3476W        W18945  12.956   4.361   1.373 -0.0019  0.1196  0.1342
 3477W        W18946   6.116  12.625   4.187 -0.0082 -0.2097  0.2736
 3478W        W18947   8.702   9.216  15.337 -0.5203  0.0525 -0.2318
 3479W        W18948   9.617   3.108   5.284  0.0323  0.2196 -0.0358
 3480W        W18949   9.418   2.880   6.065 -0.1491  0.2373  0.1480
 3481W        W18950  12.063  11.106   2.571  0.1999 -0.2896 -0.0545
 3482W        W18951   5.253  13.977  13.299  0.2203  0.1258 -0.0312
 3483W        W18952   7.896  13.661  15.407 -0.3303  0.0365  0.1752
 3484W        W18953   0.201  12.769  13.628  0.2191  0.1187 -0.1122
 3485W        W18954   3.211   3.402  14.793 -0.2332 -0.1370 -0.0375
 3486W        W18955  15.226  15.968  12.709 -0.1076 -0.0958 -0.0979
 3487W        W18956  10.658  17.084   3.691 -0.3109 -0.3675  0.1264
 3488W        W18957   3.108   6.412  13.648  0.2130  0.0826  0.0069
 3489W        W18958   2.907   1.007  13.972  0.0621  0.2062 -0.0025
 3490W        W18959   6.232   6.535  11.673  0.2891  0.2121 -0.1908
 3491W        W18960   1.584  15.300   0.954 -0.1012  0.0617 -0.1785
 3492W        W18961  12.311  15.796   5.373 -0.2656 -0.0122 -0.3721
 3493W        W18962   8.647  17.363  14.500  0.1903  0.1032  0.0818
 3494W        W18963   3.743   1.045  13.943  0.1347  0.2489  0.1334
 3495W        W18964   2.390  14.125  12.789 -0.1639  0.1110 -0.0859
 3496W        W18965   8.370  15.533  15.570 -0.3097  0.0565  0.0643
 3497W        W18966   5.474   7.943   0.360  0.0964  0.0807 -0.0007
 3498W        W18967  15.603  16.362   3.263 -0.0209 -0.0237  0.1443
 3499W        W18968   6.058   0.649   0.113  0.0706  0.1196  0.0688
 3500W        W18969  12.868  12.458  14.740  0.0090 -0.1346  0.0690
 3501W        W18970   7.508   9.768   0.313  0.0089  0.1342 -0.0213
 3502W        W18971  13.752  16.578   2.989 -0.1781  0.0687 -0.2787
 3503W        W18972  15.721   6.563  14.341  0.2666 -0.3078  0.0849
 3504W        W18973   5.232  14.801  14.948  0.0056  0.0751  0.0562
 3505W        W18974   5.720  14.243  13.224  0.0809  0.2442  0.0433
 3506W        W18975   2.170  10.132   0.252 -0.0741 -0.0455 -0.1477
 3507W        W18976  11.677  13.410  16.243 -0.0170 -0.1983 -0.0594
 3508W        W18977   2.173   4.155  15.795 -0.2873  0.2933 -0.1118
 3509W        W18978   5.155   1.445   0.431 -0.2600  0.0135  0.0394
 3510W        W18979   8.122  12.876  13.578  0.0599  0.0221  0.0856
 3511W        W18980  13.459  13.874  12.907  0.0860  0.2207  0.1565
 3512W        W18981  14.669  10.452  11.830 -0.0836  0.0105 -0.1116
 3513W        W18982  16.859  16.228   5.512  0.3217  0.0502  0.2669
 3514W        W18983   9.658   6.865   5.179  0.0656 -0.2237 -0.1094
 3515W        W18984  11.323   1.882  13.988 -0.1092 -0.1644  0.1292
 3516W        W18985  13.732   3.870   4.521  0.0868  0.0762 -0.0242
 3517W        W18986   1.168   5.153   9.800  0.1595  0.1305 -0.1130
 3518W        W18987  14.343  10.270   0.452  0.0455  0.4961  0.1726
 3519W        W18988   4.342   5.896   6.096  0.1460 -0.1976 -0.1264
 3520W        W18989   0.453   0.742   0.855  0.2824 -0.1181  0.2045
 3521W        W18990  12.383   1.498   5.034 -0.2325 -0.0553  0.2730
 3522W        W18991  15.997  10.111   2.179  0.4437 -0.0783  0.1356
 3523W        W18992  15.237   4.403   3.158  0.2768 -0.0873 -0.2665
 3524W        W18993   3.468   9.944   5.192  0.2737  0.2655  0.0995
 3525W        W18994  14.744   6.365  11.282 -0.4194  0.1421  0.1733
 3526W        W18995   6.486   0.933  12.582 -0.3375 -0.1141  0.2595
 3527W        W18996  14.153   5.442  13.305 -0.0313  0.0397 -0.2783
 3528W        W18997   9.633   0.317   3.064 -0.0193  0.2738  0.2544
 3529W        W18998  17.927  16.431  15.787 -0.2369  0.1498  0.0522
 3530W        W18999  15.606   2.967   0.432 -0.2360  0.0177 -0.0176
 3531W        W19000   4.194   5.813  10.478  0.3059  0.1266  0.0005
 3532W        W19001  17.018   0.134  13.525 -0.4023  0.0257  0.0093
 3533W        W19002   6.520  13.671   3.271  0.2034 -0.0580 -0.2312
 3534W        W19003   3.050   3.171  12.336  0.2448  0.1152  0.2852
 3535W        W19004  14.283  10.607   0.811 -0.0180  0.5700  0.1182
 3536W        W19005  17.029  17.525   1.329  0.0557  0.2594  0.3926
 3537W        W19006  12.506   1.184  12.282 -0.3017 -0.1070 -0.0037
 3538W        W19007  10.256   0.901   1.687 -0.1242 -0.0501  0.6797
 3539W        W19008  17.002  11.941   3.709 -0.0046 -0.1925  0.3514
 3540W        W19009   2.168  12.206   0.835  0.0045 -0.2401 -0.0546
 3541W        W19010   7.644  15.251  15.939 -0.0208 -0.0493 -0.4344
 3542W        W19011   6.044  12.138   2.645  0.1315 -0.1702 -0.1678
 3543W        W19012  17.193   5.440   0.479  0.0851 -0.0380 -0.0659
 3544W        W19013  13.977   9.356   0.562 -0.0102  0.1804  0.0910
 3545W        W19014  17.254   2.957   0.072  0.1373 -0.0518  0.3261
 3546W        W19015  14.629   8.136   5.305  0.0108 -0.3446 -0.4493
 3547W        W19016   6.333   0.309   2.528 -0.0147  0.0363  0.0341
 3548W        W19017   6.835   0.949   0.202 -0.1431  0.1407 -0.0256
 3549W        W19018   5.928  11.789   4.362 -0.1533  0.0432  0.2061
 3550W        W19019  15.766  11.048  10.276  0.1168 -0.1117 -0.1190
 3551W        W19020   7.632  15.131   3.085 -0.0165 -0.1023  0.1161
 3552W        W19021   0.160  14.699  15.332 -0.0070 -0.2552  0.0944
 3553W        W19022  16.628  17.269   4.161  0.1266 -0.0488 -0.0637
 3554W        W19023   1.990  14.449   5.305 -0.0126 -0.0931 -0.1061
 3555W        W19024   1.516  10.034   2.964  0.3935 -0.2477  0.1872
 3556W        W19025  12.897  17.636  12.639 -0.1621  0.1282 -0.1794
 3557W        W19026   0.792   7.112  14.348 -0.0322 -0.0156 -0.1215
 3558W        W19027   4.401  11.301   4.593  0.1660  0.0027  0.0726
 3559W        W19028  11.888   1.808  13.195 -0.2137  0.0672  0.1868
 3560W        W19029   7.786   5.681   3.352  0.0204 -0.0809 -0.1655
 3561W        W19030   3.542   8.271  12.549 -0.2038 -0.0153  0.4216
 3562W        W19031   3.507   4.733  15.948 -0.1486 -0.3129 -0.0842
 3563W        W19032  15.836   8.981  14.591 -0.0567 -0.2361 -0.0406
 3564W        W19033   2.768   7.017   0.481  0.0689 -0.2689 -0.0704
 3565W        W19034   0.066  16.999  14.232  0.0270  0.0120 -0.1763
 3566W        W19035   0.371   6.336  11.579  0.0752  0.0433 -0.1405
 3567W        W19036  15.882   4.686   2.790  0.1261 -0.0377  0.3546
 3568W        W19037   5.029  10.956   3.907  0.3243  0.4505 -0.1355
 3569W        W19038  11.148   1.387   4.226 -0.2025 -0.0981 -0.2546
 3570W        W19039   8.311   1.433   3.126  0.3618  0.3294  0.1066
 3571W        W19040   9.652   6.377  15.481 -0.1893 -0.0691  0.0163
 3572W        W19041  10.059   3.826   5.885 -0.1737 -0.1153 -0.1149
 3573W        W19042  11.812  12.670   3.536 -0.0132  0.0500  0.0335
 3574W        W19043   4.805   7.675  14.325 -0.1048  0.1339  0.2234
 3575W        W19044   9.145   7.407   1.745 -0.0188 -0.0261 -0.2364
 3576W        W19045   7.061  16.727  13.539  0.1928  0.1616 -0.0570
 3577W        W19046  10.861   0.600   3.679 -0.2170  0.0926 -0.1261
 3578W        W19047  16.708  16.089   4.404 -0.1613 -0.1865 -0.3947
 3579W        W19048   9.203  13.359   0.630 -0.0573 -0.0804 -0.2672
 3580W        W19049  14.975  12.694  15.468  0.0941  0.3014 -0.2165
 3581W        W19050   6.703   2.701   4.650 -0.0495 -0.2913  0.0911
 3582W        W19051   7.341   7.852  13.013  0.0452 -0.1064  0.1018
 3583W        W19052   3.075   9.121   4.939  0.0352 -0.0441 -0.0235
 3584W        W19053   8.278   7.458  13.326 -0.0144  0.0316  0.0443
 3585W        W19054   7.880   0.169   1.925  0.0471  0.0124 -0.1142
 3586W        W19055  11.817   9.107   5.934  0.1340 -0.1102 -0.1582
 3587W        W19056   2.964   0.995  12.768  0.0405 -0.1435  0.0244
 3588W        W19057  14.546   1.235  12.935 -0.1303 -0.2826  0.1346
 3589W        W19058   2.580   6.396   2.299  0.1112  0.1111  0.0248
 3590W        W19059   7.026   0.297  10.256 -0.0054  0.0941 -0.0065
 3591W        W19060   9.512  15.833   0.411 -0.2720  0.1004 -0.0072
 3592W        W19061   3.227  10.353   5.228  0.0568  0.0686 -0.0137
 3593W        W19062   3.942  11.271  13.623 -0.0406 -0.0624 -0.3183
 3594W        W19063   0.552  12.070   1.896 -0.0294 -0.2166  0.3083
 3595W        W19064   8.557  12.277   2.150 -0.0459  0.0648  0.0812
 3596W        W19065   7.930  10.250  12.148 -0.2776  0.0521  0.2309
 3597W        W19066   9.446  16.375   3.736 -0.0363 -0.1910 -0.3504
 3598W        W19067  11.986  17.224   5.351  0.3256  0.0932 -0.4786
 3599W        W19068  16.623  16.416   3.446 -0.1036  0.1950  0.1103
 3600W        W19069   0.746   5.267   0.238 -0.0090 -0.3522 -0.1483
 3601W        W19070   7.755   1.484   3.288 -0.2647  0.0012 -0.1453
 3602W        W19071   2.888   7.093  16.237 -0.0471 -0.2109  0.1751
 3603W        W19072   1.128  15.438  14.365 -0.0330  0.1303  0.2027
 3604W        W19073  18.030  10.719   9.991 -0.2248  0.0999 -0.0266
 3605W        W19074   3.875  16.387  15.995  0.2605  0.1473  0.2047
 3606W        W19075  17.381   4.730   1.745  0.1904  0.1577  0.2152
 3607W        W19076   0.251  14.289  11.864  0.0910 -0.0717 -0.0485
 3608W        W19077  15.166   2.312  15.173 -0.2711 -0.2539  0.1251
 3609W        W19078   1.131   7.113   0.418  0.0807 -0.0928 -0.1986
 3610W        W19079  16.873   6.345   1.317 -0.0428 -0.0353  0.0936
 3611W        W19080   1.285   0.527   4.327  0.0081  0.0498  0.1342
 3612W        W19081   4.018   2.090  14.285 -0.2269 -0.0508  0.4630
 3613W        W19082   5.566  12.491  14.029 -0.0560  0.0454  0.1643
 3614W        W19083   3.836   8.727  13.730 -0.2528 -0.0717  0.1486
 3615W        W19084  15.388  12.399   3.965  0.2529  0.0816 -0.1116
 3616W        W19085  16.147  15.805  16.164 -0.1441  0.2027  0.3639
 3617W        W19086   1.249  15.738  12.970  0.1736 -0.0733 -0.1872
 3618W        W19087   6.864  14.950   4.379  0.2589  0.3826  0.1212
 3619W        W19088  16.042   1.118  13.946  0.1176  0.0269  0.0175
 3620W        W19089   9.954   8.052   2.616  0.0614  0.0736 -0.0504
 3621W        W19090  13.507  16.063   5.014 -0.1982  0.0426  0.0753
 3622W        W19091  13.430  10.067   0.708 -0.0613  0.2288  0.2776
 3623W        W19092  14.534   5.754   5.943  0.3144 -0.1755  0.1270
 3624W        W19093  17.342   8.460   3.052 -0.3208 -0.1743 -0.1270
 3625W        W19094   0.428  15.528  12.144  0.2434 -0.0243  0.0310
 3626W        W19095   6.772   7.890  14.655 -0.1829  0.1165 -0.0393
 3627W        W19096  17.707  11.066  13.521  0.1555  0.0299 -0.0637
 3628W        W19097  14.548   5.389  13.021 -0.0111 -0.2912 -0.0864
 3629W        W19098   3.166  12.858  15.232  0.2974  0.1975 -0.2803
 3630W        W19099   9.206  15.597  16.196  0.3200 -0.1416 -0.0347
 3631W        W19100   4.354   3.474  13.398 -0.0325 -0.0352 -0.0664
 3632W        W19101   4.868  17.616   4.603 -0.0342  0.1277 -0.0636
 3633W        W19102  16.605   1.055   0.309  0.0377 -0.1768  0.2935
 3634W        W19103   7.804  11.645   2.122  0.0033  0.2659 -0.2494
 3635W        W19104  10.159   4.810   3.966  0.0770 -0.0485  0.0720
 3636W        W19105   0.442  15.096   4.222 -0.1560 -0.1911  0.1437
 3637W        W19106   9.665  12.078  12.489  0.1327 -0.0345 -0.0991
 3638W        W19107  14.672   5.264   1.041  0.0453  0.1597  0.0549
 3639W        W19108   9.205   3.936  14.716 -0.3517  0.1538 -0.2998
 3640W        W19109   4.866  10.139  15.062  0.0787  0.1217 -0.1488
 3641W        W19110   5.286   2.370  10.749 -0.1729 -0.0946  0.0075
 3642W        W19111   2.727  11.187   6.097 -0.2481  0.0816 -0.1144
 3643W        W19112  12.118   2.443  11.836 -0.1606 -0.0066  0.0639
 3644W        W19113   8.120   3.321   5.436  0.0039 -0.0017  0.0290
 3645W        W19114  10.119   5.118  14.037  0.0786 -0.0308 -0.0391
 3646W        W19115   6.307  13.661  13.465  0.2051  0.0737 -0.1928
 3647W        W19116   5.734   1.274  11.552 -0.3715 -0.1531 -0.1247
 3648W        W19117   9.162  11.440   1.337  0.1921  0.0117 -0.0736
 3649W        W19118  12.194  10.487   3.938  0.2334 -0.4910  0.1936
 3650W        W19119   2.150  16.113   0.154  0.2323  0.1969  0.0346
 3651W        W19120  11.202   8.646  15.839 -0.2085 -0.0316  0.2065
 3652W        W19121   5.133   6.248   0.330  0.2003 -0.0832 -0.1385
 3653W        W19122   1.352   3.882  12.660  0.1110 -0.3123 -0.0686
 3654W        W19123   7.997   8.806  10.829  0.1480 -0.1119  0.2640
 3655W        W19124  11.623   4.767   5.795 -0.2895  0.0428 -0.0149
 3656W        W19125  14.730  16.489   2.999 -0.3989 -0.1295 -0.1562
 3657W        W19126  11.745   2.710   3.760  0.0161 -0.0056 -0.0389
 3658W        W19127  17.525   5.979  14.281  0.0554  0.0747  0.0713
 3659W        W19128   3.071  11.420   5.201  0.2983  0.1236 -0.2802
 3660W        W19129  12.840   6.819   2.854 -0.2049 -0.1459  0.1317
 3661W        W19130   9.056  15.626   0.372 -0.5316 -0.1011 -0.2153
 3662W        W19131  12.967   7.182   5.158  0.1017 -0.0000 -0.0489
 3663W        W19132   5.051  17.695  15.242 -0.1612  0.2440  0.0541
 3664W        W19133   3.156  16.993  11.417  0.0880 -0.1970  0.0883
 3665W        W19134  10.521  16.212   0.399  0.1721  0.2969 -0.2094
 3666W        W19135   2.161  14.786   4.516 -0.0409 -0.0599  0.2724
 3667W        W19136   9.543   3.073  13.895  0.1923  0.0593  0.0850
 3668W        W19137   7.322   0.657  13.226 -0.1596 -0.1338 -0.0023
 3669W        W19138   3.312  14.380   0.525 -0.1880  0.0196  0.3092
 3670W        W19139   0.963  10.400   1.815  0.1095 -0.1602 -0.0375
 3671W        W19140   0.752  11.595  13.664  0.2279 -0.1420  0.1680
 3672W        W19141   5.280  16.303   0.281 -0.1064 -0.0529 -0.1561
 3673W        W19142  10.513  10.789   1.774  0.0162  0.0335 -0.0254
 3674W        W19143   4.705   6.586   1.449  0.3657 -0.1180 -0.0375
 3675W        W19144   6.268   7.017   3.116  0.0628 -0.3985 -0.1973
 3676W        W19145  11.204   2.207  15.623 -0.0548  0.2548  0.1551
 3677W        W19146   2.697   5.310  10.270 -0.1006 -0.0475 -0.1351
 3678W        W19147   6.076  12.162   3.872  0.0024  0.2903  0.2037
 3679W        W19148   8.900  13.558  13.193 -0.2394  0.1719  0.2656
 3680W        W19149   1.555  11.598   5.748 -0.1547  0.0691 -0.1196
 3681W        W19150   6.070   5.202   0.590 -0.0326 -0.0298  0.1111
 3682W        W19151   4.585   4.416  13.555 -0.0843 -0.1990  0.0849
 3683W        W19152  12.109   7.520  14.361  0.1128  0.1285  0.3870
 3684W        W19153   0.188   9.285   4.223  0.4894 -0.0431 -0.0923
 3685W        W19154   3.122   3.837  15.789  0.1270  0.0596 -0.0830
 3686W        W19155  17.036   7.068  13.805  0.1431 -0.1352  0.0023
 3687W        W19156  14.471   5.572   3.249 -0.0035  0.0614  0.1921
 3688W        W19157  12.358   5.662  13.756  0.1975 -0.3629  0.0153
 3689W        W19158   1.721  16.144  12.115 -0.3139 -0.1467 -0.0828
 3690W        W19159   9.061   0.302   0.851  0.2008  0.2956 -0.5178
 3691W        W19160  17.551  13.371   4.663  0.0800  0.0540  0.0310
 3692W        W19161  17.328  15.420  14.365 -0.0474 -0.1462 -0.0185
 3693W        W19162   4.231  10.452   1.007 -0.0109 -0.0499  0.0015
 3694W        W19163  10.554   9.760   2.360 -0.2437  0.1349  0.0640
 3695W        W19164   0.906   9.413  15.785  0.3573 -0.0039 -0.0949
 3696W        W19165   6.159   7.749   0.553  0.1476  0.0388 -0.0090
 3697W        W19166  12.104  17.783  13.496 -0.0883  0.0376 -0.2474
 3698W        W19167  16.554   9.285  15.005  0.0929  0.1850 -0.0982
 3699W        W19168  10.103   2.121   6.007  0.1321  0.1629 -0.1804
 3700W        W19169  16.040   8.477  14.539 -0.0658 -0.3522  0.2795
 3701W        W19170   9.638   4.734   5.350 -0.1278  0.0032  0.0863
 3702W        W19171   6.651   6.870   1.304 -0.0535 -0.1013  0.0661
 3703W        W19172   9.128  14.333  12.239  0.1902 -0.3027  0.1609
 3704W        W19173  12.589   9.589   5.626 -0.1306 -0.2736  0.2606
 3705W        W19174   4.589   0.864   3.594 -0.1892 -0.0560  0.0514
 3706W        W19175  13.935   9.375  14.732  0.0950 -0.1261  0.0061
 3707W        W19176  11.098  11.763  13.609 -0.1611 -0.5135 -0.4121
 3708W        W19177   0.593   8.546  15.146  0.2499 -0.1491 -0.0278
 3709W        W19178   2.213   9.955  15.241  0.0832  0.1450  0.1342
 3710W        W19179   7.799   2.896   1.046 -0.0130 -0.0460 -0.0691
 3711W        W19180   3.793  11.050   0.545 -0.1752 -0.1242  0.0095
 3712W        W19181   7.533  14.983  15.096  0.1661 -0.3830  0.3495
 3713W        W19182   5.581   6.450   0.196  0.0596  0.0683  0.0029
 3714W        W19183  13.620  16.722   0.749 -0.1407 -0.0184  0.0725
 3715W        W19184  12.559   6.359   2.931 -0.2278  0.0351  0.1125
 3716W        W19185   6.754  10.126   1.961 -0.0473  0.1435 -0.2211
 3717W        W19186   0.816   5.563  12.415  0.1355  0.0239  0.0679
 3718W        W19187   5.288  10.903   0.472  0.2871 -0.0676 -0.1230
 3719W        W19188  14.533   5.153  14.881 -0.0658  0.0826  0.2492
 3720W        W19189  12.758   1.890   1.197  0.3714  0.3020 -0.1915
 3721W        W19190  10.333   7.959   0.270  0.0591  0.1192  0.1601
 3722W        W19191  11.718   1.188  15.180  0.1949  0.0482 -0.3408
 3723W        W19192   7.336   8.936   1.839 -0.3787 -0.1387  0.0556
 3724W        W19193  12.658  17.161  15.505  0.0472  0.0791  0.3141
 3725W        W19194  17.150  12.994   2.235 -0.0604 -0.4246  0.1610
 3726W        W19195   3.684  17.116  16.199  0.0010 -0.3122 -0.0972
 3727W        W19196   3.397   8.567  15.568  0.0522 -0.3280 -0.2035
 3728W        W19197   7.304  13.903  11.774  0.1235 -0.0395  0.0768
 3729W        W19198   2.952   9.925   2.965 -0.2053  0.1123 -0.2335
 3730W        W19199   3.995  17.185   2.324  0.1199 -0.0823  0.0186
 3731W        W19200   8.416   4.477   3.829 -0.2528  0.1212 -0.2177
 3732W        W19201  13.918  11.389   2.384  0.1188  0.2673  0.2055
 3733W        W19202   1.707   8.042   3.516  0.1897 -0.3360 -0.0279
 3734W        W19203  17.011   3.972  11.226  0.1327  0.2286 -0.0042
 3735W        W19204   1.836  16.603  13.123 -0.0961 -0.1789  0.0718
 3736W        W19205  15.515   1.610   4.992  0.1005 -0.0031  0.0527
 3737W        W19206   1.256   2.412   1.223  0.0103 -0.0944  0.2790
 3738W        W19207  13.848   2.028   5.028 -0.3047  0.1535 -0.0582
 3739W        W19208   6.302  12.705   0.905  0.0241 -0.0288 -0.0492
 3740W        W19209  11.999  13.973  15.083 -0.0092 -0.0931 -0.1768
 3741W        W19210   2.094  10.446  12.107  0.1175  0.1413  0.1826
 3742W        W19211   6.413  12.225   4.319 -0.1446 -0.1459 -0.1290
 3743W        W19212   2.916  12.731  12.674  0.0639 -0.2411  0.0861
 3744W        W19213   4.604   1.954  11.731 -0.1389 -0.0211 -0.2016
 3745W        W19214   2.696  17.827   5.702  0.1086 -0.0867 -0.2300
 3746W        W19215   8.059   6.877  10.922 -0.0549 -0.1440 -0.1024
 3747W        W19216   2.356  10.964   4.262  0.3585 -0.0724  0.0489
 3748W        W19217   4.288   7.091  13.552  0.1023  0.0576  0.1694
 3749W        W19218   1.944   5.808  15.446 -0.1728  0.3155 -0.0007
 3750W        W19219  17.642   6.316  13.229  0.3895  0.2011 -0.0541
 3751W        W19220   7.254  11.362   0.346 -0.0031  0.1376  0.1065
 3752W        W19221   8.897   4.579  14.563 -0.0089 -0.1025  0.2603
 3753W        W19222  10.042   4.995  11.381  0.0830  0.3964 -0.1576
 3754W        W19223  13.903   5.833  15.728 -0.0869 -0.1657  0.1161
 3755W        W19224  14.453   9.603   1.576  0.4290 -0.0217 -0.1401
 3756W        W19225   1.579  10.154  13.598  0.0024 -0.2071 -0.2306
 3757W        W19226  16.041  11.957   1.989 -0.3774 -0.2506  0.5009
 3758W        W19227  16.427  17.614  13.006 -0.0933 -0.4830  0.3332
 3759W        W19228   7.291   2.130  12.750 -0.0716 -0.3811  0.0049
 3760W        W19229   0.685   0.229   4.090  0.0806 -0.0422 -0.0305
 3761W        W19230   6.740   2.970  14.755  0.2352  0.0224 -0.0515
 3762W        W19231  11.824  18.073   5.230  0.1174 -0.0086  0.1458
 3763W        W19232  10.709  11.132   2.743 -0.0771  0.0766 -0.0872
 3764W        W19233  14.990   0.147  12.329 -0.1657  0.0115  0.0485
 3765W        W19234   2.652  12.569   3.930  0.2563  0.0235  0.0846
 3766W        W19235  16.905   6.596  13.609  0.2054  0.0362 -0.2988
 3767W        W19236   6.001   3.282   0.881  0.4048  0.2110 -0.0633
 3768W        W19237   3.507  14.085  13.779  0.2353  0.2719 -0.0280
 3769W        W19238   4.174  14.277  15.507  0.1697  0.1102 -0.0665
 3770W        W19239  13.548   2.185  15.124 -0.2015 -0.1196 -0.1183
 3771W        W19240   4.435  13.409   2.000  0.1727  0.2316  0.0458
 3772W        W19241  12.227  17.847   3.493  0.0064 -0.3502  0.1075
 3773W        W19242   7.007  11.296   4.343 -0.2739 -0.0711  0.2458
 3774W        W19243  11.833   1.469   0.159  0.0297  0.0273 -0.1867
 3775W        W19244   5.210   4.293   0.325 -0.0045  0.0369  0.1061
 3776W        W19245  15.376   7.656   4.809  0.0075  0.3876  0.0750
 3777W        W19246   6.272   3.060   2.425 -0.2660  0.1839  0.2479
 3778W        W19247  11.318   1.803  12.107  0.2390 -0.0732 -0.0948
 3779W        W19248   9.859  16.100  15.245 -0.1341 -0.3335  0.1223
 3780W        W19249  15.254   6.532  12.181 -0.0395  0.0353 -0.1596
 3781W        W19250  14.522   2.125   1.197  0.0212 -0.0064 -0.1497
 3782W        W19251   4.780  10.652  14.329  0.1457 -0.0798 -0.0637
 3783W        W19252  15.760   6.566  11.332  0.0145  0.0741  0.1914
 3784W        W19253  14.442   2.691  11.286  0.0303 -0.2128  0.1322
 3785W        W19254   0.609  10.356   1.270 -0.0861 -0.0514 -0.0728
 3786W        W19255  10.351   5.727  11.973 -0.2004 -0.1962  0.0483
 3787W        W19256   4.650   6.726   3.468 -0.0113 -0.2501  0.1418
 3788W        W19257   1.999   0.132   5.307 -0.1823  0.2468 -0.1292
 3789W        W19258   5.336  16.914  11.367  0.0699 -0.1566  0.1654
 3790W        W19259   3.786   0.465   3.726  0.0118 -0.0451  0.0803
 3791W        W19260   2.407   2.548   5.600  0.2808  0.1728 -0.0948
 3792W        W19261   9.157   6.218  13.568  0.0779 -0.2833 -0.0684
 3793W        W19262   3.345   8.410  13.935 -0.0171 -0.3721 -0.0700
 3794W        W19263   8.421   1.661   2.636  0.1634 -0.0019 -0.2756
 3795W        W19264   1.749   5.263  11.617  0.2259 -0.0876 -0.0328
 3796W        W19265   8.719   3.779  14.774  0.1084  0.1267  0.1824
 3797W        W19266   2.241  17.613   2.307  0.2181 -0.0116  0.0738
 3798W        W19267  10.926  11.718  12.676  0.1882 -0.5345 -0.1846
 3799W        W19268  14.895   1.609   9.959 -0.3561  0.2032  0.0581
 3800W        W19269   8.038  14.482   3.999  0.1838 -0.0456 -0.0643
 3801W        W19270   7.771   9.342  15.036  0.0019  0.1510 -0.2157
 3802W        W19271  13.036  13.781   4.873  0.0185  0.1118 -0.1343
 3803W        W19272  15.746  12.100   3.603 -0.1237 -0.1742  0.1599
 3804W        W19273   1.752   6.719   5.457  0.2208  0.0423  0.2483
 3805W        W19274  10.573   4.961  11.584  0.3093  0.0609 -0.2364
 3806W        W19275   7.608   5.248  11.223  0.0314  0.3146 -0.1099
 3807W        W19276  11.520  14.555   6.089  0.2267  0.0472 -0.2293
 3808W        W19277   6.312   1.701  14.069 -0.1175 -0.0744 -0.0365
 3809W        W19278  11.264   7.149   4.014  0.0487  0.0685  0.1750
 3810W        W19279   2.026  10.675  11.412  0.4309  0.0044 -0.0563
 3811W        W19280   0.250  12.452  12.053  0.2265  0.2506 -0.1983
 3812W        W19281   6.420   4.928  13.152 -0.2635 -0.1424  0.0499
 3813W        W19282  14.927  11.507  15.040  0.3354 -0.3707  0.0140
 3814W        W19283  12.991   8.297   1.545 -0.1723  0.4120 -0.0225
 3815W        W19284  16.863   3.223  13.678 -0.3510 -0.1405  0.2664
 3816W        W19285   3.133   1.395   1.176 -0.1523  0.1344  0.0937
 3817W        W19286  12.642  11.673   0.034  0.1478  0.1572  0.1148
 3818W        W19287  10.023   6.849  12.999  0.0909 -0.2762  0.0030
 3819W        W19288   1.271  11.425  13.011  0.2553 -0.1383 -0.1095
 3820W        W19289   3.875  12.982  15.866 -0.0210 -0.2473 -0.0599
 3821W        W19290   9.510   4.128   0.466 -0.1969 -0.0184  0.0394
 3822W        W19291   6.579   3.867   3.705  0.1094 -0.2476 -0.0654
 3823W        W19292   9.562   8.695   2.649 -0.1548 -0.1905  0.1657
 3824W        W19293   0.791   6.961  11.189 -0.0601 -0.1686 -0.6620
 3825W        W19294  11.693   5.550   3.075 -0.0403  0.1592 -0.1832
 3826W        W19295  11.995  16.413   5.024 -0.1340  0.0818 -0.1341
 3827W        W19296   2.673  13.274   3.137 -0.0705 -0.1029  0.0536
 3828W        W19297   4.775  16.816   4.096 -0.4290 -0.1791 -0.0199
 3829W        W19298   7.494  12.892   1.346  0.1705  0.1319 -0.1991
 3830W        W19299   7.786   0.522  15.878  0.0591  0.0362 -0.1406
 3831W        W19300   6.687   9.829   3.303  0.0043  0.1156  0.0036
 3832W        W19301  11.109  10.359   0.420 -0.0440 -0.0504 -0.1027
 3833W        W19302   8.155  13.661   4.392 -0.1567  0.1454 -0.1742
 3834W        W19303   1.651   8.263  12.212  0.2017 -0.0804 -0.0730
 3835W        W19304  10.454  15.370  15.208 -0.0839 -0.1152 -0.4776
 3836W        W19305  11.008  15.844  15.928  0.1743 -0.1311  0.0147
 3837W        W19306   6.392   0.032  11.159 -0.0852 -0.0087  0.0222
 3838W        W19307  16.658  13.157  12.711  0.0395 -0.0220  0.0480
 3839W        W19308  15.694  16.636  13.727  0.0451 -0.0791  0.2311
 3840W        W19309  12.664   5.024  15.479  0.2482 -0.3062  0.2643
 3841W        W19310  14.873  11.066  11.779 -0.0106 -0.0687  0.2976
 3842W        W19311   1.476  14.332  15.508  0.1719 -0.0821 -0.5049
 3843W        W19312  17.031   0.546   2.680 -0.3852 -0.0235  0.0208
 3844W        W19313   3.546  13.703  15.763 -0.0104 -0.0234 -0.3718
 3845W        W19314  10.869   7.356  15.743 -0.0966  0.1354 -0.2382
 3846W        W19315  11.354   5.486   1.293  0.0355 -0.0543 -0.2269
 3847W        W19316   2.166   7.745   2.271  0.1574  0.0620  0.0637
 3848W        W19317  13.296  17.772  13.915 -0.0860  0.1275  0.1883
 3849W        W19318   1.360  11.019   2.708 -0.4392  0.0463  0.0557
 3850W        W19319   2.800   5.775   2.469  0.2955  0.0909 -0.0948
 3851W        W19320  14.304   5.967   5.107 -0.0092 -0.1878  0.1476
 3852W        W19321   2.960   8.402  11.264 -0.2360 -0.3621 -0.1664
 3853W        W19322  13.095   6.903  11.582  0.1136  0.2201  0.0138
 3854W        W19323   2.166  16.061  11.918  0.1002 -0.1176  0.2793
 3855W        W19324  12.100   5.122   5.813 -0.0573  0.1164 -0.0857
 3856W        W19325   9.637  11.708  12.213 -0.0030  0.1428 -0.1165
 3857W        W19326   7.666   6.900   4.318  0.0951 -0.0151  0.1480
 3858W        W19327  16.893  16.091  13.923  0.1943 -0.0416 -0.1819
 3859W        W19328  14.695  11.413   4.791  0.0263 -0.1283  0.2655
 3860W        W19329  11.829  12.807  10.848  0.0253 -0.1689  0.4888
 3861W        W19330   4.055   8.930  11.484 -0.1655 -0.0454 -0.0191
 3862W        W19331  15.695   5.232  14.390 -0.1445  0.3384 -0.0471
 3863W        W19332   2.184  10.514   5.047  0.0142  0.0952  0.2740
 3864W        W19333  15.846   6.056   1.732 -0.3556  0.2033  0.1145
 3865W        W19334   8.848   8.147  10.468  0.2564  0.0125  0.2101
 3866W        W19335  12.036   5.702   4.996  0.0595 -0.3029  0.2046
 3867W        W19336   7.906  16.629   4.746 -0.1542 -0.1777 -0.0690
 3868W        W19337  15.604  15.585   3.673 -0.0965 -0.1282 -0.0763
 3869W        W19338  10.138  11.005  13.588  0.1490  0.0525 -0.0412
 3870W        W19339   9.237  12.389  11.800  0.0118 -0.3328 -0.1574
 3871W        W19340   7.378   6.725  14.675  0.0485 -0.0958 -0.0337
 3872W        W19341   8.475  12.916  15.733 -0.4521  0.2959 -0.3376
 3873W        W19342   1.773  12.215   0.555 -0.0672 -0.0799 -0.0252
 3874W        W19343   1.680   6.731  13.277  0.3342 -0.2175  0.1409
 3875W        W19344   7.573   4.259   5.658 -0.3082  0.0958  0.0388
 3876W        W19345   6.102   9.290   0.973 -0.1907 -0.3941  0.1120
 3877W        W19346  13.436  13.808  14.753 -0.1157  0.0253  0.0053
 3878W        W19347   1.103   0.391  16.161  0.1781 -0.2444  0.1030
 3879W        W19348   0.372  12.470   1.010 -0.1443  0.2528  0.1596
 3880W        W19349   3.753  13.251   0.490  0.2688 -0.0235 -0.1733
 3881W        W19350   7.755   6.011  13.166  0.2177  0.0757  0.5099
 3882W        W19351   8.197   7.991   4.699  0.4958  0.2719 -0.0820
 3883W        W19352  13.656  17.980   4.733  0.2283 -0.2377 -0.2651
 3884W        W19353   3.882   9.779  12.191  0.0051 -0.1266 -0.3510
 3885W        W19354  10.649   4.964  12.593  0.1475  0.1673 -0.0256
 3886W        W19355   9.488  10.372   2.642  0.0237  0.1057  0.4385
 3887W        W19356   5.651   5.841  14.284 -0.1687  0.0053  0.0240
 3888W        W19357  16.521  13.326   2.680  0.0085 -0.1907 -0.1448
 3889W        W19358   3.993  13.383   2.152  0.0817  0.3711 -0.1714
 3890W        W19359  10.908  16.998  13.822 -0.1215 -0.1524  0.1243
 3891W        W19360   3.423  11.039   2.845 -0.0573 -0.1835 -0.2578
 3892W        W19361   0.658   2.211  14.247 -0.2764  0.1070  0.2109
 3893W        W19362  11.976   4.053  13.531  0.0174  0.0530  0.0660
 3894W        W19363   5.910  11.726  11.558  0.0339  0.0987 -0.1353
 3895W        W19364   6.543   0.855  15.712 -0.0374 -0.2859  0.2561
 3896W        W19365   1.956  13.548  14.745  0.3129 -0.0319  0.0164
 3897W        W19366   4.683   3.569  12.126 -0.0510  0.1193  0.2029
 3898W        W19367   2.258   4.750  13.736  0.1399  0.2591 -0.0524
 3899W        W19368  10.827  12.757  12.467  0.2495 -0.0580  0.1700
 3900W        W19369  17.078  17.056   1.495 -0.1528  0.1004 -0.3296
 3901W        W19370   9.343   3.169   5.684 -0.2451  0.0959 -0.0700
 3902W        W19371   4.182   3.595  10.713 -0.1695 -0.1568  0.2970
 3903W        W19372  15.468   2.331   3.234  0.0850 -0.1681 -0.2597
 3904W        W19373  17.982   2.979  14.931  0.2024  0.2657  0.3676
 3905W        W19374  17.685   8.114   5.172 -0.1127  0.2450  0.2688
 3906W        W19375   6.159   2.315  14.129  0.0909  0.1357  0.1765
 3907W        W19376  16.091   6.831  12.843  0.0834  0.1497 -0.1637
 3908W        W19377   7.948  17.702  14.009  0.1065 -0.0693  0.1307
 3909W        W19378   4.207   9.066  12.860  0.0633 -0.0634  0.0957
 3910W        W19379   9.065   7.136   0.655 -0.0477 -0.0058  0.0951
 3911W        W19380   7.558   2.133   4.869 -0.3606  0.3029  0.3486
 3912W        W19381   2.152  11.504  11.663 -0.2224  0.0855  0.0103
 3913W        W19382  10.575  17.078  12.850  0.0714  0.0945  0.0445
 3914W        W19383   7.598  15.188   3.552 -0.0733  0.1950 -0.2703
 3915W        W19384  14.478   0.034  16.030 -0.1114 -0.3659  0.2562
 3916W        W19385   5.505  12.528  11.762  0.0367  0.0334  0.1771
 3917W        W19386   0.771  16.906   5.293  0.2393  0.1626  0.0445
 3918W        W19387  14.696   8.998   5.528 -0.0355  0.2644  0.0432
 3919W        W19388  14.400   3.090   2.691  0.1926  0.1536  0.1044
 3920W        W19389   7.254   8.460  13.064 -0.0578  0.1518 -0.1645
 3921W        W19390  11.784  13.983  11.046  0.3791 -0.1991 -0.1323
 3922W        W19391  12.974   8.106   5.152 -0.0862  0.0209 -0.0122
 3923W        W19392   6.900   6.378  13.524 -0.0241 -0.0853  0.0968
 3924W        W19393  16.521   5.461   5.853  0.0878  0.0953 -0.3500
 3925W        W19394  12.922   6.474   1.284  0.0758 -0.2836  0.1786
 3926W        W19395  11.056   8.678  11.626 -0.0642 -0.1292 -0.0729
 3927W        W19396   0.479  16.929  16.148 -0.0778 -0.0046  0.0559
 3928W        W19397  10.125   3.011  15.486  0.0606  0.0541  0.0055
 3929W        W19398   6.723  14.241   0.794  0.0529  0.3180 -0.1565
 3930W        W19399  17.134   8.224   1.969  0.0184 -0.4814 -0.0968
 3931W        W19400   6.400   6.572   4.224 -0.3029 -0.0409 -0.2155
 3932W        W19401   0.750   2.443  11.874  0.0107  0.0231  0.2009
 3933W        W19402  16.479   7.178   2.210 -0.0158  0.2252  0.0057
 3934W        W19403  13.071   3.570  14.792  0.1380 -0.0246 -0.1137
 3935W        W19404   5.436   8.750  12.137  0.1863  0.2462 -0.0884
 3936W        W19405   2.624   3.239  15.535  0.1256  0.2739  0.0688
 3937W        W19406   4.728  11.765  15.517 -0.0461 -0.2448 -0.0039
 3938W        W19407   0.646   2.230  10.513 -0.2821  0.1280 -0.2916
 3939W        W19408   2.161   2.693  14.755 -0.2280 -0.0460  0.1344
 3940W        W19409   0.423  12.362   4.853  0.0587 -0.0946 -0.1040
 3941W        W19410   8.400   1.348   4.027  0.3185 -0.2953 -0.2643
 3942W        W19411   4.301  12.776   3.845 -0.1409  0.2189 -0.0516
 3943W        W19412  15.374  17.445   3.585  0.2147  0.0333 -0.0130
 3944W        W19413  13.185   2.861  14.614  0.1262 -0.8213  0.1324
 3945W        W19414  11.883  11.090   4.970 -0.4398  0.0851  0.1670
 3946W        W19415   6.122  13.798  11.512  0.1970  0.0854 -0.0049
 3947W        W19416   2.129   8.456  14.098 -0.3121 -0.0357 -0.0090
 3948W        W19417  14.771   0.346   4.886 -0.2672 -0.0652 -0.0261
 3949W        W19418  14.788   3.707   2.879  0.0269  0.2880  0.0905
 3950W        W19419  17.719  14.799   3.503 -0.1015 -0.1875  0.0494
 3951W        W19420  11.077  18.044  11.953  0.0099  0.0349  0.1328
 3952W        W19421   9.004  17.072   4.967  0.2079 -0.0978 -0.3259
 3953W        W19422  13.008  11.982  11.552  0.0392 -0.0285 -0.1535
 3954W        W19423   0.368  15.434  11.275  0.2067  0.0151  0.2769
 3955W        W19424   9.289   1.123   4.214 -0.0713  0.2996  0.2517
 3956W        W19425  13.677   6.359  16.015 -0.0697 -0.0339 -0.2267
 3957W        W19426   6.715   1.991  13.393  0.1147  0.2311  0.2602
 3958W        W19427   6.172  14.417   1.536 -0.0697 -0.4725 -0.3030
 3959W        W19428   7.721  16.206  13.243 -0.0528 -0.1836  0.0933
 3960W        W19429   1.193  14.919   3.298  0.1711 -0.0005  0.3574
 3961W        W19430   7.167  12.763   3.284 -0.1852  0.2496 -0.0614
 3962W        W19431   4.451  11.688   3.259  0.1195 -0.0972 -0.2385
 3963W        W19432  16.030   0.120  10.351  0.2264 -0.1718  0.4049
 3964W        W19433  12.088  16.668   0.269 -0.1379 -0.1525  0.1010
 3965W        W19434  17.181   5.822  13.813 -0.0347  0.2126 -0.4235
 3966W        W19435  13.651   9.064  12.297  0.4798 -0.1058  0.1355
 3967W        W19436  15.916  15.233   0.884  0.3186 -0.1410 -0.0053
 3968W        W19437   7.885   5.696  12.573  0.0892 -0.0446  0.0522
 3969W        W19438  15.368   4.752   3.526 -0.1676 -0.0032 -0.0300
 3970W        W19439   7.674  11.633   0.472 -0.1307 -0.0743  0.0452
 3971W        W19440   9.602  14.783  14.359  0.0120  0.2240 -0.0462
 3972W        W19441   3.124  10.766  14.761 -0.1945 -0.0657 -0.0745
 3973W        W19442   2.525   2.805  12.956 -0.1212  0.1876 -0.0799
 3974W        W19443   5.430   6.961  11.702  0.0509  0.2979  0.0677
 3975W        W19444   8.062   1.251  12.864  0.1395  0.3135  0.1205
 3976W        W19445   0.911   6.692   1.579  0.1019  0.0301  0.3359
 3977W        W19446  17.349  13.167   4.217 -0.0022 -0.0960  0.3999
 3978W        W19447  16.157   8.453   0.836  0.0257 -0.1203 -0.3820
 3979W        W19448  13.946  11.667  15.978  0.0724  0.2170 -0.0251
 3980W        W19449  13.363   9.699  16.112  0.0077 -0.1736 -0.2131
 3981W        W19450   0.401  13.474   1.331  0.1961  0.2124  0.0646
 3982W        W19451   8.277  13.640   0.192 -0.2075  0.1437 -0.0652
 3983W        W19452  14.437  11.080   9.967  0.4202 -0.0194 -0.1728
 3984W        W19453  13.686   8.904  14.086  0.1874  0.2189  0.1110
 3985W        W19454   2.495   3.497   0.716  0.1630  0.0237  0.0065
 3986W        W19455  17.402  16.780  13.507 -0.1543  0.1245  0.1030
 3987W        W19456   9.104  12.094   2.916  0.0509  0.3020  0.1757
 3988W        W19457  14.512  10.296   2.115 -0.0365 -0.0637 -0.2451
 3989W        W19458   6.781  18.049   1.159 -0.0727 -0.2183  0.0958
 3990W        W19459  14.765   9.302   0.035  0.2070 -0.0433  0.1412
 3991W        W19460  10.571  14.585  10.486 -0.0293 -0.1364 -0.0300
 3992W        W19461  13.263  12.632  12.230  0.1280  0.0385 -0.0450
 3993W        W19462  17.829   0.179   0.109  0.0043 -0.1490 -0.0393
 3994W        W19463  10.430  10.916  10.945  0.3959 -0.2237 -0.2368
 3995W        W19464   1.775   8.397  13.681 -0.1326  0.0751 -0.2149
 3996W        W19465   6.777   2.999   0.183  0.2225 -0.2398 -0.2072
 3997W        W19466   4.454  12.046  12.162 -0.3361 -0.0073 -0.2885
 3998W        W19467  12.684   9.603   1.880 -0.1729 -0.0417  0.0411
 3999W        W19468   9.568  14.910   3.531 -0.0346 -0.2417  0.3680
 4000W        W19469   1.273  10.964   0.585 -0.1662 -0.3894 -0.0549
 4001W        W19470   6.489   2.292  15.432 -0.1820 -0.2375  0.1912
 4002W        W19471  15.130  12.929   5.673  0.0001  0.3593 -0.1450
 4003W        W19472  17.961   6.057   6.381  0.1407  0.0132  0.3168
 4004W        W19473  17.963   3.832  12.279  0.1685 -0.0544  0.1731
 4005W        W19474  10.467   5.533   3.648 -0.2448  0.2011 -0.0211
 4006W        W19475  10.499  17.194  16.037  0.1229  0.1510  0.0598
 4007W        W19476   4.953  16.489  15.405  0.0701 -0.1522 -0.1398
 4008W        W19477  17.714  11.959  11.998 -0.1879 -0.2571 -0.0054
 4009W        W19478   7.171   8.069   1.892  0.2644  0.0413 -0.3915
 4010W        W19479  14.116  15.652  10.729  0.1268 -0.0490  0.1675
 4011W        W19480  12.553  15.929   4.525  0.1705  0.2388  0.1617
 4012W        W19481   0.466   6.573  15.704  0.0533 -0.0612 -0.2589
 4013W        W19482  15.046   1.081   3.895  0.0298 -0.2271 -0.0180
 4014W        W19483  13.719  11.452  11.563  0.1225  0.1811  0.1354
 4015W        W19484   9.321  10.478  11.475  0.1314 -0.0395 -0.0060
 4016W        W19485   5.244   0.172   3.709 -0.3741 -0.3040  0.3078
 4017W        W19486   3.551  11.728  13.041  0.1414  0.0761 -0.0838
 4018W        W19487  11.235  12.420  13.033 -0.0417  0.0696 -0.2432
 4019W        W19488  12.298   6.046   2.680  0.2862 -0.0018  0.2326
 4020W        W19489  14.439   3.948  12.009  0.0910 -0.0787  0.0884
 4021W        W19490   1.392  10.105   1.914 -0.3152 -0.2426 -0.1746
 4022W        W19491  13.171   1.231   0.200  0.1208 -0.1224 -0.0990
 4023W        W19492   9.201  15.198   5.140  0.1792  0.0491 -0.0202
 4024W        W19493  11.424  16.729  12.667  0.2812  0.0308 -0.0874
 4025W        W19494  11.312   7.014  11.763 -0.0025 -0.1281  0.4019
 4026W        W19495  10.551   6.155  12.331 -0.1429 -0.2067  0.3770
 4027W        W19496   6.207  16.834  14.553 -0.3200 -0.2197 -0.0318
 4028W        W19497  10.151   1.502   4.063  0.1018 -0.0261  0.1426
 4029W        W19498  15.510   9.374  14.454  0.2923  0.2060 -0.1014
 4030W        W19499   8.485  11.065  11.924 -0.0847  0.0221 -0.1708
 4031W        W19500  11.164   8.365   0.987 -0.0713 -0.3250  0.2751
 4032W        W19501  14.163   0.049  14.924 -0.0655  0.0804  0.0007
 4033W        W19502   5.547   5.135  11.529  0.1441  0.0678  0.1600
 4034W        W19503   3.101   7.091   3.069  0.0520 -0.0538  0.3666
 4035W        W19504   1.276   2.966  12.003 -0.4043 -0.0101  0.1116
 4036W        W19505   0.500   4.381   4.238  0.0429  0.1008 -0.0317
 4037W        W19506   7.695   6.525  11.719 -0.0029  0.0019  0.0420
 4038W        W19507   5.017  16.602   0.826  0.1360  0.0509 -0.5037
 4039W        W19508   0.745  10.749   3.994 -0.3919  0.1219 -0.1252
 4040W        W19509  12.127   7.487   5.485 -0.1517  0.1100 -0.1168
 4041W        W19510   2.573  12.213   1.806 -0.1354  0.0108 -0.0326
 4042W        W19511  15.340   3.640   4.009  0.0993  0.1514  0.0972
 4043W        W19512  11.065  16.366  12.552  0.2777 -0.0497 -0.1839
 4044W        W19513  13.339  15.192  11.574  0.1457  0.1840 -0.0198
 4045W        W19514   3.787  11.740   1.821  0.0505  0.0460  0.1055
 4046W        W19515   0.471   6.164   4.884 -0.3664  0.3441 -0.0993
 4047W        W19516   7.142   8.982   2.741  0.0747 -0.0134 -0.0392
 4048W        W19517  13.527  14.068  15.273 -0.2723  0.0737  0.3054
 4049W        W19518   8.632   2.995  12.328  0.2927 -0.2785  0.2875
 4050W        W19519   6.474   5.782   3.360  0.0033  0.0653  0.1281
 4051W        W19520   8.784  13.929  12.312  0.0569 -0.2107  0.3318
 4052W        W19521   6.131  10.242   5.682  0.2370  0.0023 -0.1701
 4053W        W19522   0.861   8.492  12.785  0.2307  0.3344  0.1147
 4054W        W19523   4.036  15.552  14.096 -0.0719 -0.0752  0.1536
 4055W        W19524   7.609  16.015   2.559  0.0144  0.2331  0.0046
 4056W        W19525   0.631   5.978   3.924 -0.2933 -0.0204 -0.2157
 4057W        W19526   1.462   3.893   0.157  0.3007 -0.0959  0.0005
 4058W        W19527  14.336   8.493   2.247  0.0159  0.0891 -0.1840
 4059W        W19528  12.338  14.567   3.516 -0.0359 -0.1331 -0.1790
 4060W        W19529   0.862  10.954  14.568 -0.0368 -0.2020  0.0088
 4061W        W19530   4.076  17.597   5.562  0.0882 -0.1644 -0.0397
 4062W        W19531   0.055   0.711  13.261  0.1859  0.0546  0.1152
 4063W        W19532   8.522   3.777  15.230  0.1768 -0.1348 -0.0677
 4064W        W19533   2.817   6.707  15.489 -0.0570 -0.1200  0.0336
 4065W        W19534   8.120   4.430   3.418 -0.1385  0.2453  0.0436
 4066W        W19535  14.812  14.542  11.627 -0.0661 -0.2435 -0.1807
 4067W        W19536   1.202  15.492   1.314  0.1766 -0.0295  0.0220
 4068W        W19537   4.682   4.697  11.809 -0.1545  0.3020 -0.1360
 4069W        W19538   9.747  11.194  10.559  0.0613  0.0102  0.0210
 4070W        W19539   8.942   4.393   3.664  0.1672 -0.0534 -0.1737
 4071W        W19540  15.931   2.933   1.636  0.1328 -0.0413  0.1732
 4072W        W19541   0.492   7.557  11.932  0.0585  0.0564  0.3903
 4073W        W19542   8.886   3.148   2.128 -0.0908  0.1586 -0.0562
 4074W        W19543  11.595   5.150   2.773 -0.4248 -0.1987 -0.0769
 4075W        W19544  12.201   8.011  11.203  0.0370 -0.1601  0.1060
 4076W        W19545   5.891   9.388  13.734  0.0145  0.1746 -0.0225
 4077W        W19546   1.833  12.619   3.051  0.0629 -0.1867  0.3320
 4078W        W19547  10.470  12.898  13.177 -0.0284 -0.3491  0.0959
 4079W        W19548  13.256   7.590   4.166 -0.2284 -0.2248 -0.0646
 4080W        W19549   5.073   0.767  11.646 -0.1189  0.1255  0.1154
 4081W        W19550   3.357  13.133   4.977  0.2257 -0.0787  0.1837
 4082W        W19551   8.040   5.694   2.138 -0.2099 -0.1177  0.2196
 4083W        W19552   3.874  15.290   5.023  0.0804  0.4293 -0.0359
 4084W        W19553   4.208  10.680  14.281 -0.0060 -0.0783  0.0435
 4085W        W19554  10.632   1.125  14.939  0.1501  0.0080  0.0263
 4086W        W19555  14.062  13.819   0.515  0.0599 -0.1500 -0.5323
 4087W        W19556   7.641   4.787   5.469 -0.1004  0.3406 -0.0068
 4088W        W19557   9.301   5.610   4.215 -0.4365  0.0530  0.4960
 4089W        W19558   9.446   2.960  10.409  0.0583 -0.1978  0.0381
 4090W        W19559   7.746   8.773   2.266 -0.2608  0.2929  0.0335
 4091W        W19560   6.753  13.354  16.032  0.2373  0.0438  0.0331
 4092W        W19561   6.841  15.891  13.278 -0.0635 -0.0562  0.0079
 4093W        W19562   1.097  12.362  13.208  0.0568 -0.3483 -0.0110
 4094W        W19563   0.862   6.110   1.489 -0.1780  0.0529  0.1497
 4095W        W19564  10.318  13.648  15.392 -0.0555 -0.1641 -0.1409
 4096W        W19565   4.959   7.376  15.191  0.1649 -0.0265  0.0133
 4097W        W19566  15.890   1.148  15.974 -0.0939  0.0224  0.0200
 4098W        W19567  16.924   3.424   0.114  0.0726 -0.0651 -0.0755
 4099W        W19568  16.900   1.920  15.349  0.0003 -0.1104  0.0695
 4100W        W19569   9.239  14.837   1.908  0.0016 -0.0977  0.3108
 4101W        W19570   0.249   8.294  11.679 -0.1219  0.1644 -0.1770
 4102W        W19571  17.952  13.622   3.160  0.2197  0.1836 -0.1515
 4103W        W19572   0.853  10.203  15.419 -0.4437  0.0370  0.2768
 4104W        W19573   4.349   1.285  11.734 -0.0625  0.1117  0.0267
 4105W        W19574   3.401  10.756   0.533  0.1189 -0.2352 -0.0188
 4106W        W19575   8.020   3.595  13.937  0.1758 -0.2024  0.1343
 4107W        W19576   1.200   3.511   4.625 -0.2325  0.1748  0.2625
 4108W        W19577   6.674   8.798  14.617  0.2144  0.1250 -0.1036
 4109W        W19578   1.732  12.352  15.187 -0.0973 -0.0776 -0.0523
 4110W        W19579  16.892  10.986   0.520 -0.3397  0.1094  0.1772
 4111W        W19580  16.628  17.946  13.308  0.0743  0.0743 -0.3870
 4112W        W19581  11.463   0.268  13.012  0.0499 -0.1166 -0.1160
 4113W        W19582   9.255  16.518  11.735 -0.2386  0.1478 -0.3145
 4114W        W19583   1.540   2.057   1.047  0.0459  0.0289 -0.0190
 4115W        W19584   4.363   5.163   3.498  0.1613 -0.0765  0.1008
 4116W        W19585   9.116   2.067   2.129 -0.1372  0.1182  0.0037
 4117W        W19586   5.656   5.252  10.729  0.0757 -0.0992 -0.1426
 4118W        W19587   7.730  16.184   3.924  0.0601 -0.2702  0.1341
 4119W        W19588   2.056   2.182  15.127 -0.0812  0.1655 -0.0786
 4120W        W19589  13.100   4.093  14.668  0.0079  0.0057  0.0973
 4121W        W19590  10.905   9.640  13.128  0.1242 -0.2105  0.1353
 4122W        W19591  10.238   7.132  12.345 -0.0695  0.0501  0.1019
 4123W        W19592  15.388  15.165   0.742 -0.2664 -0.0283  0.2625
 4124W        W19593   7.227  15.570   4.755  0.2742  0.3523  0.3106
 4125W        W19594   4.166  11.252  12.359  0.1061  0.0434 -0.1134
 4126W        W19595  17.058   0.022  15.506  0.3292  0.1592  0.0642
 4127W        W19596   8.153   3.636   1.665  0.2197  0.1166  0.3034
 4128W        W19597   0.749   2.886  12.088  0.0729 -0.4256  0.1008
 4129W        W19598   9.752   7.192   4.195 -0.0968 -0.1296  0.3961
 4130W        W19599   1.711   3.764  14.534  0.1577  0.6140  0.0765
 4131W        W19600   8.455   5.269   4.294  0.0782 -0.1192 -0.0398
 4132W        W19601  16.953   3.843  15.310 -0.0329 -0.0777  0.2131
 4133W        W19602   8.490   5.223  14.195 -0.0247  0.1676  0.1829
 4134W        W19603  14.078   3.385  14.723  0.0968 -0.2161 -0.0656
 4135W        W19604   5.359  16.336   2.273 -0.0231  0.1565  0.0556
 4136W        W19605   0.668   7.576  14.277  0.0777 -0.0322  0.0487
 4137W        W19606   0.600   9.824  11.461  0.3693  0.1876  0.1527
 4138W        W19607  16.411   0.773  13.349  0.1450 -0.1891 -0.0920
 4139W        W19608  16.728  10.984  12.887  0.1536  0.1029 -0.2881
 4140W        W19609   4.329  10.942   0.648 -0.0381  0.0979  0.0259
 4141W        W19610   2.054  14.596  14.749  0.0104  0.1677  0.0786
 4142W        W19611  14.962  14.168  14.112 -0.1415 -0.1185 -0.0245
 4143W        W19612  18.011   0.392   5.529  0.2837 -0.3139 -0.1989
 4144W        W19613  13.763  15.785   0.499  0.0109 -0.0551  0.3725
 4145W        W19614  17.686   1.423   3.652 -0.1411  0.1637 -0.0501
 4146W        W19615  15.295   4.321  14.038  0.1625 -0.1382 -0.1369
 4147W        W19616   8.410  13.109   4.325  0.3470  0.1234  0.1834
 4148W        W19617  10.047   3.315   0.584  0.2337 -0.1105  0.0729
 4149W        W19618  16.135   6.290  14.501 -0.0364  0.2388 -0.0410
 4150W        W19619   7.410  13.544  16.153 -0.1534  0.1691 -0.3431
 4151W        W19620  16.881   6.837   9.980 -0.1231  0.2874 -0.0060
 4152W        W19621   3.571   8.176   4.544 -0.0223  0.1179 -0.2504
 4153W        W19622   1.412   0.607  11.525  0.2253  0.0163 -0.1438
 4154W        W19623  12.670   1.304  11.188 -0.1028  0.2243 -0.1196
 4155W        W19624  14.892   5.311  13.969  0.1555  0.0952 -0.0493
 4156W        W19625  16.737   4.560   2.283  0.1087 -0.0526 -0.1291
 4157W        W19626  16.899  16.963  11.111 -0.2771 -0.1320 -0.2583
 4158W        W19627   4.129  12.095  15.715  0.3592 -0.0087 -0.2359
 4159W        W19628   0.738  12.856   2.163 -0.0336 -0.1866  0.4677
 4160W        W19629  13.078   4.433  12.059 -0.2218 -0.0862 -0.0016
 4161W        W19630   5.132   1.137  12.023 -0.1347  0.0775  0.1906
 4162W        W19631   4.158  13.787  15.366 -0.1753  0.0799  0.1496
 4163W        W19632  16.831  14.195   4.695  0.0040 -0.0815  0.2715
 4164W        W19633   6.798   2.226   4.352 -0.2785 -0.1658 -0.0974
 4165W        W19634  13.106  10.011   2.162 -0.0224 -0.4867 -0.1191
 4166W        W19635   3.665  10.903   1.502  0.2375 -0.0442 -0.0401
 4167W        W19636   0.132  13.117   3.543 -0.1843 -0.2336 -0.0375
 4168W        W19637  12.752  16.963  13.391 -0.1291 -0.0427  0.0956
 4169W        W19638  16.492  16.559  12.607  0.1608  0.0476 -0.0087
 4170W        W19639  14.573  15.510   4.594  0.2802 -0.3923  0.1338
 4171W        W19640   1.315   2.158  12.473 -0.2264 -0.2068  0.1932
 4172W        W19641   5.718   5.670  12.263  0.1684 -0.1581 -0.2480
 4173W        W19642  15.610  13.866  15.476 -0.2920  0.0260  0.1309
 4174W        W19643   2.995  10.796   2.230 -0.1401  0.2455  0.4335
 4175W        W19644  16.373   8.109  11.038 -0.1475 -0.2724  0.0580
 4176W        W19645  14.336   8.680  13.266  0.0843 -0.1850  0.1279
 4177W        W19646   3.248   9.699   5.665  0.1287 -0.0797  0.1137
 4178W        W19647   2.688   1.425  13.547  0.1177 -0.3870  0.1712
 4179W        W19648   8.669  11.817   0.168  0.0047 -0.2582  0.0483
 4180W        W19649   4.961   3.174  15.817 -0.1891  0.0836 -0.1650
 4181W        W19650   1.342   7.235   0.843  0.0258 -0.1927 -0.0486
 4182W        W19651  14.820   0.181  15.568  0.1068 -0.0355 -0.0920
 4183W        W19652  11.290   2.020   0.389 -0.0983 -0.0504  0.0195
 4184W        W19653  12.150   8.352   2.061  0.1708  0.1524  0.1293
 4185W        W19654   5.473   4.142   1.666 -0.0838 -0.0021 -0.2966
 4186W        W19655   2.976  16.520  14.939 -0.2626 -0.0360  0.2075
 4187W        W19656  10.103   3.248  14.764 -0.1906 -0.0804 -0.0031
 4188W        W19657   4.542  14.401  10.725  0.1076 -0.4079 -0.1828
 4189W        W19658  15.861   1.843  13.280 -0.0142  0.1427 -0.0006
 4190W        W19659  10.613   6.263  14.526  0.1197  0.1888 -0.1432
 4191W        W19660   0.009   7.430  11.413  0.2708  0.3834  0.0778
 4192W        W19661  14.109   5.156  12.904 -0.1378  0.0197  0.0890
 4193W        W19662  11.276  14.973  13.097 -0.3850 -0.2115  0.0619
 4194W        W19663   7.414  11.574   5.155  0.2185 -0.0954  0.4868
 4195W        W19664  15.639   1.386   0.624 -0.0320 -0.1612 -0.1765
 4196W        W19665  10.270  16.337  15.473 -0.0919  0.1697  0.0586
 4197W        W19666   8.824  18.041   3.999 -0.0919  0.0207 -0.0941
 4198W        W19667   4.002   4.300  15.020  0.2703  0.1600 -0.4845
 4199W        W19668  16.206   4.747   1.601  0.2960 -0.3944  0.1912
 4200W        W19669  10.290  15.672   0.625 -0.1711  0.1062  0.1591
 4201W        W19670  17.543  16.987   1.255  0.0721  0.3381 -0.3899
 4202W        W19671   6.090  12.563  13.865 -0.1891  0.0716 -0.1993
 4203W        W19672   1.911  16.382   4.511  0.2444 -0.1490 -0.3543
 4204W        W19673   7.559   3.513  11.298  0.3547 -0.0342  0.2027
 4205W        W19674  16.090   3.109  15.990  0.2205  0.2259  0.4870
 4206W        W19675   9.646  10.958  15.249  0.0174  0.0809  0.0367
 4207W        W19676   0.958   3.524  14.458 -0.0341  0.1605  0.1197
 4208W        W19677  10.837   0.316   4.323 -0.1838 -0.3037  0.0580
 4209W        W19678  12.507  13.835   1.206 -0.1586  0.1688 -0.0665
 4210W        W19679  14.100  15.383  11.662 -0.4038  0.0766 -0.1347
 4211W        W19680   1.950   3.492  14.195  0.0858 -0.0468  0.0824
 4212W        W19681   9.505  10.238  14.036  0.1690  0.1076  0.0388
 4213W        W19682  14.121   1.737  12.946 -0.0565  0.2012  0.1340
 4214W        W19683  14.810   6.729  14.362 -0.0146 -0.3482 -0.1520
 4215W        W19684   8.566  15.164   4.660 -0.1433  0.1591  0.0460
 4216W        W19685  16.627  15.316  15.049  0.0169 -0.1380 -0.0473
 4217W        W19686  11.128  15.913   2.054  0.0294 -0.0639  0.0390
 4218W        W19687   3.518   2.149   3.942 -0.0468  0.2103 -0.2062
 4219W        W19688   1.448  11.217   3.664  0.1160  0.1643 -0.1182
 4220W        W19689  12.109  16.663  11.102 -0.2044 -0.1724  0.2395
 4221W        W19690  15.999   9.523  15.122 -0.1466 -0.3959 -0.3352
 4222W        W19691   3.828  12.768   2.757 -0.1997 -0.3708 -0.3346
 4223W        W19692  17.826  10.838   4.380  0.0344  0.1589  0.0124
 4224W        W19693  10.376  15.628  14.173  0.0175  0.0753  0.0372
 4225W        W19694   1.439  10.849  12.227  0.0128 -0.2129 -0.0274
 4226W        W19695  10.636  17.432   3.237  0.1806  0.2987  0.1926
 4227W        W19696   1.253   8.693  10.994  0.0325  0.2646  0.1817
 4228W        W19697  17.170  17.313   3.665  0.0620 -0.1409 -0.0212
 4229W        W19698   3.918  12.223  13.173  0.1539 -0.1463  0.0595
 4230W        W19699  13.155  16.142   5.383 -0.0466 -0.0671 -0.3015
 4231W        W19700  14.787  11.809   4.274 -0.0630 -0.0129  0.1596
 4232W        W19701  15.311   0.551   4.976  0.1202  0.2057  0.0399
 4233W        W19702   5.405  16.790  15.389 -0.2061 -0.2904 -0.2391
 4234W        W19703   7.787   4.886   2.654  0.0488  0.0956 -0.0249
 4235W        W19704  15.408   3.386  15.947  0.0448 -0.3348 -0.1342
 4236W        W19705   8.107  16.415  14.675  0.0458 -0.0493  0.0461
 4237W        W19706  16.090  11.308  15.919  0.0253 -0.0520 -0.0134
 4238W        W19707   7.770  17.857   1.664  0.1892  0.1831  0.0885
 4239W        W19708   8.778   3.018  15.426  0.0903  0.0281 -0.3029
 4240W        W19709  15.204  15.126  16.104 -0.1093  0.1026  0.4356
 4241W        W19710   9.365  11.950   0.104 -0.1961 -0.1152 -0.1638
 4242W        W19711  15.266  16.741   4.418  0.0010  0.0352 -0.0235
 4243W        W19712   1.505   1.854   0.069  0.3222 -0.2513 -0.0026
 4244W        W19713   4.448   1.899   1.862  0.1126  0.0888  0.1245
 4245W        W19714   4.991   5.274   1.229  0.2374  0.0459  0.0052
 4246W        W19715   1.346   4.596   4.036 -0.1041  0.1222 -0.2917
 4247W        W19716  16.432  10.741  15.860  0.1469 -0.2659  0.0282
 4248W        W19717   2.145   2.964   5.592 -0.3270  0.1962 -0.0854
 4249W        W19718  16.475   1.854   3.095 -0.0986 -0.2101  0.1120
 4250W        W19719   6.820  12.689   2.224 -0.1672  0.0831 -0.0599
 4251W        W19720  12.696  17.758   4.743 -0.0657  0.2038 -0.0020
 4252W        W19721  10.518  10.642  12.138 -0.1862  0.0293  0.0099
 4253W        W19722  11.465  12.553   2.361  0.2062 -0.2781 -0.2370
 4254W        W19723  11.077  10.986  11.525 -0.2546 -0.0042 -0.3639
 4255W        W19724  14.888   0.384   4.069  0.0348  0.1147 -0.0943
 4256W        W19725   0.859   5.152  15.576  0.2264 -0.4924 -0.0469
 4257W        W19726   7.869  12.310  11.437  0.0566 -0.1770  0.0037
 4258W        W19727  15.238   6.846   2.622  0.0920  0.3829 -0.0422
 4259W        W19728   4.328   2.726   2.228  0.0368 -0.0779 -0.0558
 4260W        W19729  12.762  15.351   3.356 -0.1374 -0.0064  0.1956
 4261W        W19730  10.425   6.144   6.073 -0.2345 -0.2603  0.0278
 4262W        W19731  11.850  10.936  15.374  0.4027  0.1703  0.2199
 4263W        W19732   7.110  13.892  10.664  0.2365  0.2125  0.5008
 4264W        W19733  11.560   3.379  14.665  0.0570 -0.2419  0.0650
 4265W        W19734  15.131  15.228  13.443 -0.1709  0.0538 -0.0902
 4266W        W19735   3.685  15.863  13.942  0.0091  0.0177  0.1398
 4267W        W19736   1.861  16.154   2.878  0.1768  0.1574  0.0039
 4268W        W19737  12.458  10.411  13.757  0.1768  0.1258  0.0473
 4269W        W19738  10.276  13.370  13.084  0.0705  0.2172  0.2509
 4270W        W19739   0.345  14.862  11.453 -0.0997  0.2088  0.2927
 4271W        W19740  12.688   6.430  15.966 -0.0172  0.0256 -0.0939
 4272W        W19741   9.918  12.826   1.148  0.1661  0.2008  0.0649
 4273W        W19742  11.267   8.694  12.852 -0.3545  0.2374 -0.0310
 4274W        W19743  13.955  16.612  11.630 -0.0393 -0.2961  0.3506
 4275W        W19744   9.960   3.784  14.696 -0.1046 -0.0052 -0.1782
 4276W        W19745   9.343   3.002  11.946 -0.1758 -0.2114  0.0547
 4277W        W19746   3.615   8.830   1.934 -0.0144  0.0730  0.1413
 4278W        W19747   1.706  14.571  11.204 -0.1767 -0.1246  0.0483
 4279W        W19748   5.681  11.042   5.695 -0.1861  0.0489  0.4422
 4280W        W19749   1.376   0.780   0.749 -0.1788  0.0688  0.3521
 4281W        W19750  17.536   2.689  12.555 -0.4271  0.1645  0.1507
 4282W        W19751   7.924   9.745   0.748  0.1126  0.0142  0.2852
 4283W        W19752   1.497   9.682  11.618 -0.0824  0.1630  0.2311
 4284W        W19753  15.306   2.681  14.758 -0.1930  0.3768 -0.2455
 4285W        W19754  11.738  10.465  15.568 -0.0929  0.1069  0.2585
 4286W        W19755  11.476  12.002  11.776 -0.0008 -0.0759 -0.0006
 4287W        W19756  17.275  15.340  11.918 -0.1145  0.2647  0.3843
 4288W        W19757   4.471   7.189   4.377  0.2963  0.1165 -0.1229
 4289W        W19758  16.800   4.866  14.319  0.0030 -0.3389  0.1876
 4290W        W19759   8.475  17.762   5.194  0.2056  0.0603 -0.0853
 4291W        W19760   6.860  14.423   2.210 -0.0221 -0.0447 -0.1372
 4292W        W19761   4.796  17.142  10.740  0.1566  0.0317  0.0844
 4293W        W19762  11.961   3.997  16.239 -0.1260  0.2232  0.1428
 4294W        W19763   7.806  13.153   0.996  0.0855  0.2600 -0.2056
 4295W        W19764  15.591   9.150   0.224 -0.1760 -0.1069  0.0571
 4296W        W19765   7.198   2.040   2.388  0.2844 -0.0638 -0.1531
 4297W        W19766   4.345   5.460  13.426  0.1185 -0.0036 -0.1812
 4298W        W19767  12.793  10.321  11.815  0.0825  0.0069 -0.3251
 4299W        W19768  10.781  12.425   0.568 -0.2450 -0.1213  0.4103
 4300W        W19769   6.207   0.050   5.280  0.0644 -0.2983  0.0422
 4301W        W19770   2.000   0.487  11.624 -0.1279 -0.0655 -0.1597
 4302W        W19771  14.905   6.254  14.061  0.0770 -0.2124  0.0497
 4303W        W19772   8.669   5.985  13.481  0.0732 -0.1275  0.2607
 4304W        W19773  11.839  13.370   2.865  0.1533  0.0464  0.0924
 4305W        W19774  16.912  14.253   1.139 -0.0413 -0.1516  0.0565
 4306W        W19775   4.852  13.593  12.081 -0.1281  0.2147 -0.0681
 4307W        W19776  13.742   0.435   0.660  0.0167 -0.0072 -0.1437
 4308W        W19777  16.821  11.148  15.093  0.0626 -0.1731 -0.1397
 4309W        W19778   3.016   9.210  11.116 -0.1061  0.0829  0.1832
 4310W        W19779   6.027   5.610   3.733  0.1258  0.0816  0.1520
 4311W        W19780   3.339  17.966  12.138  0.2486  0.2154  0.1995
 4312W        W19781   4.047  13.900   0.881  0.1705  0.3490  0.1041
 4313W        W19782   2.094  12.375  13.308 -0.1561 -0.1374  0.0977
 4314W        W19783  14.175  12.497  15.145  0.0145 -0.0877  0.1283
 4315W        W19784   5.418   5.498   0.158  0.1243  0.1388 -0.1893
 4316W        W19785   5.640   0.531   2.787 -0.1757  0.4200  0.0728
 4317W        W19786  14.827   7.944  15.926 -0.2085 -0.0832  0.0923
 4318W        W19787  15.189  11.767   2.079 -0.0195  0.0431  0.0439
 4319W        W19788  10.510   5.562   4.912  0.3251  0.3735  0.1232
 4320W        W19789  13.041  10.905   2.150 -0.2239 -0.0266  0.1564
 4321W        W19790   8.639   0.738   0.795  0.1846  0.1976 -0.4055
 4322W        W19791   2.338   0.564  14.527 -0.0090  0.4020  0.0137
 4323W        W19792  11.070  15.286  11.453 -0.0830 -0.1143  0.0075
 4324W        W19793   2.770   5.279  14.281  0.0008 -0.0252 -0.3324
 4325W        W19794   6.175  10.062   4.164 -0.0547  0.2871 -0.1904
 4326W        W19795   3.649   8.180  13.108  0.1487 -0.0817  0.0983
 4327W        W19796  11.871  11.799   0.498 -0.2274 -0.0856  0.0099
 4328W        W19797   5.753  16.275  11.493 -0.0625  0.1919  0.0024
 4329W        W19798   1.400   1.094   1.146 -0.1516 -0.2139 -0.1385
 4330W        W19799  15.653  15.555   0.627  0.3321  0.1812 -0.4026
 4331W        W19800   9.072   5.914   1.335 -0.0258 -0.1266 -0.0691
 4332W        W19801   5.646   1.656   2.495  0.1111  0.2298 -0.0159
 4333W        W19802   7.225  11.714  13.980  0.1175 -0.3455 -0.2037
 4334W        W19803   9.362   4.139   3.735 -0.4816  0.0177 -0.0210
 4335W        W19804  18.076   8.345  15.341 -0.0515 -0.3035 -0.3033
 4336W        W19805   7.466  10.579   3.050  0.0818  0.4590  0.0700
 4337W        W19806   2.563   9.866   1.162 -0.1428 -0.0358  0.3490
 4338W        W19807   9.563  12.502   1.853  0.1504  0.1148  0.0528
 4339W        W19808   5.758   8.486  15.661 -0.1087  0.1561 -0.1173
 4340W        W19809  12.468  11.060  12.950 -0.2324 -0.2232  0.1261
 4341W        W19810  10.962   1.339  15.509 -0.0958 -0.0849  0.0683
 4342W        W19811   9.693  10.593   4.550  0.0340  0.1386 -0.1498
 4343W        W19812  10.051  14.531  14.422  0.3031  0.0465  0.2691
 4344W        W19813  11.097  10.126  11.047 -0.1483 -0.1310 -0.0679
 4345W        W19814  10.568   2.621  15.102  0.0774 -0.0365 -0.2428
 4346W        W19815   7.225   9.890  11.872  0.2417  0.3260 -0.0011
 4347W        W19816  12.249   6.932  12.163  0.2072 -0.0296  0.1574
 4348W        W19817  16.364   3.815   3.728  0.0416 -0.0718 -0.0781
 4349W        W19818   7.810  17.964   0.356  0.3182  0.1592  0.1241
 4350W        W19819  11.598  12.324   4.694  0.0879 -0.2716 -0.1186
 4351W        W19820   3.805  15.860   3.260  0.1624  0.1169 -0.0072
 4352W        W19821   0.287   9.137  13.502  0.0441 -0.3231  0.0057
 4353W        W19822   1.409  10.477   1.539  0.1797  0.0112 -0.1351
 4354W        W19823   3.288  10.449  10.156  0.0730 -0.1805  0.2081
 4355W        W19824   7.260   4.687   3.239  0.2836  0.1577  0.1144
 4356W        W19825   2.281   2.168  11.033  0.0572 -0.1568 -0.2173
 4357W        W19826   4.988  17.106   2.517 -0.1797 -0.0042 -0.0355
 4358W        W19827  12.792  11.754   5.148  0.1047  0.0837 -0.0446
 4359W        W19828  12.123  13.382  13.794  0.1117  0.0946  0.0032
 4360W        W19829   2.360  17.924  12.969  0.1012  0.1347  0.0266
 4361W        W19830  11.888   8.866  15.202 -0.0563 -0.2095  0.1524
 4362W        W19831   3.106   7.590   2.272  0.0223  0.2342  0.1007
 4363W        W19832   1.086  15.590  13.427  0.0228  0.0957 -0.1549
 4364W        W19833   9.092   9.628  11.313  0.1536 -0.0263 -0.0446
 4365W        W19834   0.234   0.453  13.627  0.0250 -0.0220 -0.0560
 4366W        W19835  11.280   9.085  14.548 -0.0250 -0.0573  0.0707
 4367W        W19836   7.111   0.168  13.150  0.1365  0.1656  0.0955
 4368W        W19837   4.459   6.128   0.824  0.0875 -0.1040  0.0231
 4369W        W19838   8.147  12.529   1.911 -0.0977 -0.1560  0.2662
 4370W        W19839   2.697  15.129   0.836  0.0895 -0.1913 -0.1345
 4371W        W19840   8.769  14.428   4.489  0.0793 -0.2722  0.0514
 4372W        W19841  12.124   8.451  14.777 -0.4341 -0.0476  0.0709
 4373W        W19842   8.893  16.270   5.668  0.2555 -0.3608 -0.2253
 4374W        W19843   1.908  15.254  12.074 -0.2217  0.2706 -0.0658
 4375W        W19844   2.570  15.696   0.159 -0.1481  0.1726 -0.3309
 4376W        W19845  12.480   1.485   3.922 -0.1773  0.4374  0.1144
 4377W        W19846  13.380   2.054  11.998  0.3022  0.0658  0.0033
 4378W        W19847  13.534  14.202  11.032 -0.0156  0.0846 -0.0817
 4379W        W19848   5.914   7.654   2.713  0.0139  0.0395 -0.0693
 4380W        W19849   4.812  14.354   2.850 -0.1536 -0.1689 -0.2634
 4381W        W19850  17.183  14.804   3.462  0.1511 -0.2102 -0.6043
 4382W        W19851   6.654   7.403  13.699  0.2277  0.1017 -0.0429
 4383W        W19852  13.034   3.752  10.832 -0.0910  0.0109  0.0549
 4384W        W19853  15.698   3.705   2.717 -0.0116 -0.0364  0.2193
 4385W        W19854   4.814  17.189  13.528 -0.0675 -0.0352 -0.0323
 4386W        W19855   8.548   6.485  10.905 -0.0422  0.2161  0.1585
 4387W        W19856  16.072   9.860   4.911 -0.0404 -0.1871  0.1421
 4388W        W19857  16.579   7.081  11.077  0.1117 -0.0768  0.1402
 4389W        W19858   2.793   3.874   2.302  0.1508  0.2681  0.0659
 4390W        W19859   8.061  12.007   1.075 -0.0935  0.0610 -0.1280
 4391W        W19860   8.514   3.212   0.826  0.1825  0.1104 -0.2150
 4392W        W19861   5.854   2.662   0.906  0.2300  0.0928  0.1761
 4393W        W19862   8.900   3.568  14.154 -0.0517  0.2728  0.1564
 4394W        W19863   0.032  10.513  14.755  0.1670 -0.1321  0.0498
 4395W        W19864  16.502  12.070  12.904  0.0525  0.2336 -0.1272
 4396W        W19865   6.269   5.105   1.128  0.3502 -0.1392 -0.3958
 4397W        W19866   2.742  15.000  15.800  0.0363 -0.1688 -0.1636
 4398W        W19867   7.423   9.041   5.188  0.0979 -0.0373  0.0878
 4399W        W19868   8.979  10.623   1.182  0.2143 -0.2273 -0.0853
 4400W        W19869  12.364   9.752  14.333  0.0581  0.1550  0.2993
 4401W        W19870  11.139  13.957  14.018  0.0183 -0.0390  0.1794
 4402W        W19871  13.400  13.871  11.863  0.1532  0.1250  0.1028
 4403W        W19872   8.671   4.222  11.597 -0.2171 -0.0071 -0.3574
 4404W        W19873  17.898  14.234  11.445 -0.1777 -0.0758  0.1743
 4405W        W19874   5.861   5.955   4.600  0.0659  0.2254 -0.2381
 4406W        W19875   1.162   4.783   0.777  0.1798  0.0136 -0.0828
 4407W        W19876  16.424  14.067   0.016 -0.0922  0.0028  0.1080
 4408W        W19877   0.012   0.690   4.230  0.2914 -0.0122 -0.0008
 4409W        W19878  14.155   6.154   3.765 -0.2401  0.4689  0.1195
 4410W        W19879  10.622   2.298   1.407 -0.2062 -0.1558  0.1139
 4411W        W19880   7.798   5.480   4.763 -0.1818 -0.1844 -0.1557
 4412W        W19881   3.082  11.574   4.701 -0.1654 -0.4233 -0.2493
 4413W        W19882  15.393   5.722   5.265  0.2432  0.0007  0.1160
 4414W        W19883  17.882   9.224   2.731 -0.0894  0.0963  0.0299
 4415W        W19884  13.136  10.204   1.188 -0.0522  0.0362 -0.3426
 4416W        W19885   6.845   4.369   1.448 -0.0409 -0.0004  0.0826
 4417W        W19886  14.653   0.979   2.516  0.1207 -0.2284  0.0208
 4418W        W19887   7.669  10.054  13.101  0.2720  0.0526 -0.0159
 4419W        W19888  12.511  15.652  15.902 -0.1536 -0.1597 -0.1534
 4420W        W19889  11.931  17.717  15.176 -0.2751  0.0302  0.0916
 4421W        W19890   8.298   8.628  14.212  0.0274  0.2531 -0.0755
 4422W        W19891  15.433   2.641   2.230 -0.0463  0.1207  0.0256
 4423W        W19892   1.951   0.126  15.189  0.0116  0.3469  0.0287
 4424W        W19893  14.793   7.786   5.684 -0.4773  0.2637 -0.0617
 4425W        W19894   3.003   6.525  11.903  0.2193  0.0597 -0.2922
 4426W        W19895  16.139   5.779  14.340  0.0579  0.1327 -0.3519
 4427W        W19896   4.467   5.850  12.762  0.1152 -0.0722  0.2073
 4428W        W19897   3.470   0.564  13.146  0.0878  0.3929 -0.0830
 4429W        W19898   6.654  14.252   4.024 -0.0667 -0.1454 -0.1604
 4430W        W19899   8.188  12.573  12.682  0.0363 -0.2928  0.0571
 4431W        W19900   7.567   6.029  14.860  0.0104  0.0653 -0.1353
 4432W        W19901  17.043  17.758   3.459 -0.0091 -0.1898  0.0017
 4433W        W19902   0.480   6.877  13.756  0.1794 -0.3096  0.3220
 4434W        W19903   2.190  12.007  15.494 -0.1320  0.2860  0.0502
 4435W        W19904   0.943   8.510  16.063  0.0518  0.0588  0.1363
 4436W        W19905  11.242   6.765   4.509 -0.1487  0.0297  0.1286
 4437W        W19906  10.421  13.743   3.323  0.0680  0.0328 -0.1445
 4438W        W19907   3.673   1.381   3.638 -0.1183  0.3412  0.0905
 4439W        W19908   8.113  12.858   5.911  0.0229 -0.4048 -0.4722
 4440W        W19909   1.404   4.460  12.088  0.3406  0.2425 -0.0185
 4441W        W19910  16.881   1.819   2.731 -0.2468 -0.0978 -0.2891
 4442W        W19911   9.382   2.162  12.167  0.1945 -0.1079  0.0890
 4443W        W19912  12.300   8.697   2.945 -0.0837  0.1031 -0.1295
 4444W        W19913  11.369  10.711  10.183  0.1396 -0.1374  0.0198
 4445W        W19914  13.930  15.382   2.737  0.1692  0.1516 -0.0041
 4446W        W19915  16.434   3.367  16.194 -0.0820  0.3115 -0.1408
 4447W        W19916   4.808   8.657   2.468 -0.0045  0.0090  0.1852
 4448W        W19917  14.089   6.915   3.297  0.1261 -0.2773  0.1119
 4449W        W19918  17.875   8.848   2.308 -0.1142 -0.1375 -0.0841
 4450W        W19919  12.061  13.932  11.809 -0.3509  0.1924 -0.2524
 4451W        W19920  14.292   8.391   4.962 -0.0841  0.1286 -0.0592
 4452W        W19921  13.863   2.792  11.457  0.0533  0.1403  0.0058
 4453W        W19922  12.240   9.643  15.901  0.0317 -0.0654  0.2628
 4454W        W19923   2.222  12.985   3.334  0.0233 -0.0630  0.0854
 4455W        W19924   4.338   0.286   1.583 -0.1207 -0.3036  0.3176
 4456W        W19925   4.006  16.016   5.176  0.0253  0.1070  0.1242
 4457W        W19926   6.576   5.595   5.433  0.3245  0.0748 -0.2476
 4458W        W19927   5.127   1.724   2.531  0.0814 -0.1695 -0.2017
 4459W        W19928   7.483  13.024  14.093 -0.3178 -0.2177 -0.0967
 4460W        W19929  11.641  10.936  13.575  0.4498 -0.2257 -0.1669
 4461W        W19930  15.738   2.062  13.756 -0.0331 -0.1486  0.1233
 4462W        W19931  13.412  13.545   0.006 -0.3048 -0.1691 -0.0873
 4463W        W19932  13.349   5.099   0.471 -0.2307 -0.2294 -0.1589
 4464W        W19933   8.296  14.891  11.545 -0.1568 -0.2924  0.3788
 4465W        W19934   4.376  13.976  10.974 -0.0322  0.0169 -0.0026
 4466W        W19935   3.485  12.606   0.813  0.0082  0.3481 -0.0679
 4467W        W19936   4.404   7.126   3.404 -0.0719 -0.1152 -0.0651
 4468W        W19937   5.038   0.528   0.461 -0.1122  0.1439  0.0546
 4469W        W19938   3.505   7.221   4.084  0.1495  0.0385 -0.0149
 4470W        W19939   5.090   7.700   0.141 -0.2247  0.1944  0.0797
 4471W        W19940   0.182  10.231  13.231  0.1005 -0.0201  0.2378
 4472W        W19941   0.109  16.730  14.719  0.1224 -0.0460 -0.0198
 4473W        W19942  10.424  13.649   1.761 -0.3325 -0.3472 -0.1857
 4474W        W19943  16.518   9.032  11.585  0.0072  0.1825 -0.0588
 4475W        W19944   9.643   4.689  12.171 -0.2560  0.1142 -0.1122
 4476W        W19945  14.335   1.642   1.850 -0.0313 -0.2809  0.3217
 4477W        W19946   5.505  10.765  12.506  0.1914 -0.0213  0.4054
 4478W        W19947   6.274  12.037   4.754 -0.0400  0.1525  0.1266
 4479W        W19948  14.009  16.458  11.064  0.1492 -0.3465  0.1034
 4480W        W19949   7.105  16.960   3.731 -0.0052 -0.0736  0.0026
 4481W        W19950  15.556   4.752   4.092 -0.0955  0.2753  0.1374
 4482W        W19951  11.523   4.905   5.002  0.0703 -0.1163  0.0229
 4483W        W19952  17.276   7.354  12.592  0.2314  0.0929  0.0444
 4484W        W19953   1.180   9.698  15.025 -0.0348  0.3700 -0.0479
 4485W        W19954  16.017   1.277   4.312 -0.0595 -0.0398  0.1071
 4486W        W19955   9.421   5.584  11.132 -0.0400 -0.1644 -0.1621
 4487W        W19956  10.375  13.214  11.229 -0.0906 -0.2289 -0.0728
 4488W        W19957   8.431  12.288   0.291  0.1136  0.0406 -0.0004
 4489W        W19958   1.993   6.516  14.146 -0.0587 -0.0650  0.1242
 4490W        W19959   3.728   5.585   2.064 -0.0917 -0.1201  0.1491
 4491W        W19960  15.603  12.198  15.042  0.0718  0.2127 -0.0350
 4492W        W19961   4.754  15.094   0.589 -0.3248 -0.1059  0.0134
 4493W        W19962  13.015   3.915   4.951 -0.0584 -0.1301 -0.0795
 4494W        W19963   1.681  11.228   0.385 -0.0298  0.2498  0.1327
 4495W        W19964   0.354   7.581  15.771  0.0972  0.1585 -0.1528
 4496W        W19965   9.881  12.139  16.274 -0.0501  0.1930 -0.1381
 4497W        W19966  16.040  11.447   5.383 -0.2058 -0.1649  0.1061
 4498W        W19967   6.489  16.840   0.724  0.0698  0.2251  0.3407
 4499W        W19968   3.096  13.396  11.703 -0.0988 -0.3106 -0.0130
 4500W        W19969   9.777   3.946  15.760  0.0401  0.0109  0.1112
 4501W        W19970  10.489   8.685   2.067  0.1679  0.4221  0.0604
 4502W        W19971  14.438  12.216   3.439 -0.2648  0.3010 -0.2208
 4503W        W19972   3.809  15.873  12.300 -0.2157  0.0891 -0.1215
 4504W        W19973  18.071   4.594   0.379 -0.0343 -0.0646 -0.2772
 4505W        W19974   3.211   6.752  13.213  0.0868  0.0589 -0.0666
 4506W        W19975  15.676  16.407   1.080 -0.1015  0.1521  0.3493
 4507W        W19976   2.568  13.916  10.753 -0.3929 -0.1030 -0.0648
 4508W        W19977   8.795  13.040   1.484  0.2474  0.0666 -0.5475
 4509W        W19978   2.745   4.803   2.811 -0.3254  0.0373 -0.1630
 4510W        W19979  17.362  10.043  11.119 -0.1099  0.0750 -0.0615
 4511W        W19980  11.789   2.342  11.445 -0.1523 -0.0952 -0.0046
 4512W        W19981  10.179   4.222  14.254  0.1123 -0.1786 -0.0565
 4513W        W19982   0.633  16.186   1.583 -0.1819 -0.0483 -0.1244
 4514W        W19983  11.332  13.310   4.362 -0.2005  0.0928 -0.0175
 4515W        W19984  12.980   5.964  15.810 -0.0120 -0.0917  0.0618
 4516W        W19985  10.661  14.348   0.568 -0.2117  0.0038 -0.1190
 4517W        W19986   9.869  14.364  15.617 -0.2431  0.0328 -0.0743
 4518W        W19987  10.815  18.037  16.097  0.3499  0.1947  0.0764
 4519W        W19988  15.509  13.389  13.783  0.0218  0.0300 -0.0214
 4520W        W19989   6.349   6.942   0.865 -0.1120  0.3843 -0.2039
 4521W        W19990   5.274  15.895  14.823 -0.0105  0.1975  0.2165
 4522W        W19991   2.393  13.794  13.188 -0.2391 -0.0146  0.1441
 4523W        W19992   0.398  16.572   0.147  0.1311  0.0528 -0.2075
 4524W        W19993   2.155  13.516   5.286  0.0582 -0.1429 -0.0249
 4525W        W19994  17.025   7.562   0.298 -0.1144 -0.3841  0.2684
 4526W        W19995   8.456  17.594   1.000 -0.0603  0.0479 -0.0737
 4527W        W19996  11.519  10.885  14.113  0.0910 -0.1735  0.0439
 4528W        W19997  14.480   9.252   0.534 -0.1643 -0.0402 -0.0724
 4529W        W19998  15.736  10.811  12.060  0.0633  0.1479 -0.3609
 4530W        W19999   2.862  12.594   1.824 -0.1480 -0.2099 -0.0140
 4531W        W20000  16.590  14.358   2.524  0.0420  0.7469 -0.0989
 4532W        W20001  10.357  18.052  14.166 -0.2036  0.2319 -0.2350
 4533W        W20002   1.076  12.822   3.742  0.1861  0.1574  0.1262
 4534W        W20003   2.406   6.026   2.643 -0.3213 -0.0878 -0.2185
 4535W        W20004  11.883   7.175  13.998  0.3687 -0.1534  0.0700
 4536W        W20005   7.514   2.595  12.947  0.0125  0.1230 -0.2828
 4537W        W20006  13.157  15.866   3.257 -0.0576  0.3059  0.5268
 4538W        W20007   5.937  13.051  14.758 -0.0907 -0.0238  0.1314
 4539W        W20008   0.760  17.239   2.846 -0.1893 -0.1326  0.0732
 4540W        W20009  12.581   7.922  12.008 -0.2236 -0.0849  0.1913
 4541W        W20010  11.222  10.523   3.682 -0.2587  0.1626  0.0769
 4542W        W20011  16.180   9.123  14.159  0.0731  0.1123  0.0123
 4543W        W20012   7.737  15.654  13.344  0.1456  0.0948 -0.0418
 4544W        W20013   5.161  14.097  14.060  0.0066  0.0043 -0.3046
 4545W        W20014   0.872  17.526   3.619  0.1389 -0.0045 -0.1793
 4546W        W20015   7.725   6.757  13.544 -0.0263 -0.0051  0.0589
 4547W        W20016  15.305  15.439  12.986 -0.1687 -0.1893  0.0646
 4548W        W20017   2.651  16.450   4.112  0.0433 -0.1103 -0.1116
 4549W        W20018   3.238  11.186  13.099 -0.1381  0.2339 -0.3081
 4550W        W20019   4.949  12.564  11.875  0.0339 -0.0931  0.3887
 4551W        W20020   6.222   8.280  15.822  0.1368 -0.0650  0.0057
 4552W        W20021  13.901  13.623  13.209  0.0774 -0.1375 -0.0634
 4553W        W20022   5.515  16.390   3.925  0.2145 -0.0582  0.1659
 4554W        W20023  15.852  15.727   4.877 -0.0751  0.1478  0.1938
 4555W        W20024  15.546   5.720   5.750 -0.0148  0.3349 -0.0524
 4556W        W20025   5.133   9.682   3.877  0.0550 -0.1229  0.0288
 4557W        W20026   0.109   0.046  10.529 -0.1506  0.0478 -0.2602
 4558W        W20027  16.443  18.037   2.815  0.0208 -0.0516  0.4104
 4559W        W20028   3.766   1.947  13.785  0.1201 -0.0213 -0.0580
 4560W        W20029  13.884  10.435  11.572  0.2078  0.0642 -0.1318
 4561W        W20030   1.696   5.097   1.937  0.1634 -0.1243  0.0460
 4562W        W20031  11.267  12.225  14.947  0.0581  0.2094 -0.1575
 4563W        W20032   9.496  12.739   5.723  0.1332 -0.0225 -0.0808
 4564W        W20033  12.688  11.061  15.458  0.1168 -0.0421  0.2375
 4565W        W20034  10.252  13.605  11.640  0.0480 -0.0724 -0.2900
 4566W        W20035  12.864   3.764  14.286  0.0953  0.2713  0.0389
 4567W        W20036  11.204  12.764  12.147  0.0445 -0.1161  0.2955
 4568W        W20037  13.702   9.289   1.098 -0.2039 -0.2679 -0.0345
 4569W        W20038   9.411   6.094  10.907  0.1022  0.0767 -0.4275
 4570W        W20039  16.678   9.830  13.378 -0.0232  0.2653 -0.1162
 4571W        W20040   1.118   7.943   5.409  0.0966  0.2100  0.1652
 4572W        W20041  15.798   9.246  13.394  0.0315 -0.0559 -0.2799
 4573W        W20042   2.512   0.203  13.719  0.5130  0.0376 -0.1586
 4574W        W20043  15.758  16.271   2.780 -0.2338 -0.1741  0.0037
 4575W        W20044   3.699  14.553  13.954 -0.0978 -0.0452  0.0658
 4576W        W20045  12.780  11.420   4.295 -0.0311 -0.2891 -0.1771
 4577W        W20046   5.143   9.142  13.096  0.0177 -0.0724 -0.2123
 4578W        W20047   9.879   3.818   3.211 -0.1433  0.1445 -0.1867
 4579W        W20048   2.610  16.412  12.545  0.3582 -0.3933  0.2749
 4580W        W20049  16.282   1.204   1.350 -0.3893 -0.1115  0.0452
 4581W        W20050  10.857  11.635  16.019  0.2737 -0.0167 -0.0284
 4582W        W20051   9.248  16.532   5.071 -0.0612 -0.0688 -0.2400
 4583W        W20052  14.820   4.079   1.272 -0.2414 -0.2321  0.3640
 4584W        W20053   1.102   9.993  11.726  0.1004 -0.2429 -0.0309
 4585W        W20054  11.254   2.293  16.101 -0.0340 -0.4446 -0.0283
 4586W        W20055   1.731  11.647  11.446  0.0755 -0.0501 -0.0116
 4587W        W20056   9.905   8.031   5.577 -0.1188 -0.0896 -0.1452
 4588W        W20057  18.037  11.840   4.080  0.1670  0.1541  0.4989
 4589W        W20058  17.247  10.434  15.254 -0.0901 -0.0013 -0.2483
 4590W        W20059   4.502  12.161   4.288  0.3811 -0.1856 -0.1905
 4591W        W20060  11.505   6.921  15.539  0.1698  0.0155  0.3075
 4592W        W20061  15.438  12.760  14.616  0.1126  0.0138 -0.2043
 4593W        W20062   9.111   0.027   0.148 -0.0964  0.2353  0.0143
 4594W        W20063   3.643  16.850   1.159 -0.0480 -0.3343  0.1609
 4595W        W20064   6.883   4.408  15.169 -0.4179 -0.0560 -0.1883
 4596W        W20065  13.199   4.186   0.542  0.2692 -0.2834 -0.0454
 4597W        W20066   6.389  14.087   3.661 -0.1554  0.1641 -0.1867
 4598W        W20067   1.007  16.044   0.124 -0.0190 -0.2771  0.2829
 4599W        W20068   8.486  15.992  11.585  0.0698 -0.0234  0.1603
 4600W        W20069   8.242   1.578  14.517 -0.3318  0.1365 -0.2124
 4601W        W20070  15.501  12.565   5.675  0.2244 -0.0734 -0.1985
 4602W        W20071  13.549  13.087   0.843 -0.0628  0.0896  0.1783
 4603W        W20072  16.419   5.072  11.362 -0.4114 -0.0531  0.0244
 4604W        W20073  15.954  16.340  14.145  0.1952 -0.1942  0.0823
 4605W        W20074  12.418   8.863   4.142 -0.1235  0.3440 -0.0119
 4606W        W20075   7.205   5.097  15.782  0.2694  0.0674  0.0419
 4607W        W20076  11.374   7.146   2.571 -0.1887 -0.1355  0.0501
 4608W        W20077  10.322   4.797   5.572  0.0198 -0.2002  0.1206
 4609W        W20078  15.568   3.498   1.800 -0.2740  0.0368 -0.0471
 4610W        W20079   2.864  10.376  16.316  0.1412 -0.0410 -0.2959
 4611W        W20080   4.970  13.525  13.442  0.0560 -0.2216  0.2811
 4612W        W20081   8.766   0.323   3.600  0.1769  0.1479  0.1882
 4613W        W20082  11.159   1.159   0.747 -0.0412 -0.3937  0.0914
 4614W        W20083  17.821   3.759  11.273  0.2213  0.1172 -0.0813
 4615W        W20084  13.583  16.149   0.912  0.0503  0.0171  0.1180
 4616W        W20085  11.400  17.944  15.173 -0.0939 -0.2794  0.1653
 4617W        W20086  15.327  14.356   2.049 -0.1569 -0.1001 -0.1869
 4618W        W20087   6.073  17.814  13.730  0.2457 -0.0810  0.1327
 4619W        W20088  12.510   6.030  15.547 -0.1289  0.1984  0.1468
 4620W        W20089  14.357   1.723   0.921 -0.1407 -0.0693  0.1920
 4621W        W20090   2.479  13.481  14.783 -0.0660  0.2308 -0.2337
 4622W        W20091  10.644  11.170   6.024  0.0140 -0.0576  0.3529
 4623W        W20092   2.527  12.920  10.753 -0.0289  0.2016  0.1037
 4624W        W20093  12.262   2.353   3.676 -0.1872 -0.0555  0.0887
 4625W        W20094  12.844  10.895   4.499 -0.3862  0.4934 -0.0927
 4626W        W20095  11.272   5.225   1.770  0.1785  0.2130  0.1136
 4627W        W20096   3.446   4.297   3.073 -0.0105 -0.0626 -0.1548
 4628W        W20097  13.536   7.599   4.586  0.2460 -0.2036 -0.2530
 4629W        W20098   6.770  10.953   3.444 -0.1584 -0.0412 -0.2212
 4630W        W20099   4.396   1.301  16.069  0.0176  0.1680  0.0606
 4631W        W20100  16.240  14.404  15.337  0.2381  0.0357 -0.0942
 4632W        W20101  15.905   1.683   4.492 -0.0566  0.0339 -0.3107
 4633W        W20102   9.511   7.125   0.987 -0.0421 -0.1695 -0.1270
 4634W        W20103   9.628   2.094  14.917 -0.0662 -0.2451 -0.2089
 4635W        W20104   0.818   1.974  11.301 -0.2024  0.2517 -0.1548
 4636W        W20105   8.022   6.816  12.635  0.2581 -0.1696  0.1345
 4637W        W20106   5.991  15.140  13.556  0.1680  0.0214  0.0589
 4638W        W20107   9.158   4.783  15.786  0.3568  0.1092  0.2191
 4639W        W20108   5.559   8.620  13.783 -0.4566 -0.0949 -0.1100
 4640W        W20109  10.357   2.702  13.039  0.1801 -0.2932 -0.1464
 4641W        W20110   3.604  13.488  12.466 -0.1993  0.0974 -0.0947
 4642W        W20111   3.361  13.871   1.466  0.0979 -0.0188  0.0928
 4643W        W20112  11.859  16.371   4.093  0.2707  0.0409 -0.0434
 4644W        W20113   5.724  13.171   5.276  0.0547 -0.0397 -0.0825
 4645W        W20114  13.659   7.433  15.817 -0.1893 -0.0216 -0.3640
 4646W        W20115   7.245   6.330   3.795  0.1604 -0.0911  0.0005
 4647W        W20116  10.524   6.510  15.850 -0.0638 -0.4214 -0.3428
 4648W        W20117   2.753   8.326   3.456 -0.0071  0.0185  0.0931
 4649W        W20118   9.597  12.466   2.323  0.2314 -0.0207 -0.1829
 4650W        W20119  16.027  11.025  10.641  0.1187  0.0655  0.0812
 4651W        W20120  10.609  10.532  13.179 -0.0794  0.1771  0.2824
 4652W        W20121   0.703   0.423   2.566 -0.0648  0.1653 -0.2808
 4653W        W20122   1.972   8.064  11.456 -0.0154  0.2684  0.2086
 4654W        W20123  14.007   2.096   1.028 -0.1761  0.4729  0.0288
 4655W        W20124   8.827  11.465  13.954  0.2408  0.3398 -0.1521
 4656W        W20125  16.172   6.939  15.886  0.1680 -0.1514  0.1018
 4657W        W20126   7.016   9.553   0.568  0.2327  0.0368  0.1883
 4658W        W20127   2.094  15.850  13.920 -0.1225  0.1825  0.0445
 4659W        W20128   0.915   8.857   3.357 -0.1031  0.0226  0.1895
 4660W        W20129   2.352  16.652  16.280  0.1116 -0.1137  0.0505
 4661W        W20130  14.975  17.880  14.803  0.1990 -0.1696 -0.2182
 4662W        W20131  16.669  12.204   3.479 -0.0718  0.0584 -0.0998
 4663W        W20132   7.813  12.537   2.364 -0.0693  0.0752  0.1132
 4664W        W20133  16.590   8.052  11.568 -0.1931 -0.2005  0.2621
 4665W        W20134  11.830   7.076  10.877  0.1298  0.1917 -0.0321
 4666W        W20135  17.510  12.679   3.281 -0.0944 -0.2695 -0.1526
 4667W        W20136  10.151  17.997   4.702  0.0866  0.0585 -0.0083
 4668W        W20137   9.030   0.004  14.821  0.0783  0.1980 -0.0801
 4669W        W20138   5.738   3.823  15.246  0.1591  0.2790  0.0866
 4670W        W20139   6.800   8.247   6.054 -0.1092 -0.3380 -0.3264
 4671W        W20140  10.118   6.265  15.569  0.1502  0.0292  0.0474
 4672W        W20141   5.518  15.865   2.194 -0.0264 -0.1755 -0.2174
 4673W        W20142   0.723  13.096   2.657  0.1702 -0.1190 -0.0305
 4674W        W20143  17.673   6.313  15.607 -0.1283  0.0322 -0.0587
 4675W        W20144   8.271   2.740   2.798  0.1849  0.0628  0.0058
 4676W        W20145  10.018   9.006   4.591 -0.1671  0.1044 -0.2469
 4677W        W20146   5.242   7.101   3.065  0.3971 -0.1344 -0.1176
 4678W        W20147   0.991  12.608  14.697  0.1577  0.2605 -0.2471
 4679W        W20148   3.773   2.003   4.409  0.1048 -0.0307  0.2394
 4680W        W20149   8.388   0.817  12.571 -0.1104 -0.0054  0.4199
 4681W        W20150  11.011   9.212  13.985  0.1629 -0.0026 -0.4035
 4682W        W20151  14.537   7.007   3.414 -0.1620  0.0118  0.1773
 4683W        W20152   4.697   4.749   4.708 -0.0723 -0.2591  0.2722
 4684W        W20153   7.651  14.370  15.154  0.1957  0.1419  0.2371
 4685W        W20154   9.287  17.873  12.285 -0.1603 -0.0198 -0.0801
 4686W        W20155  12.087   1.700  10.393  0.0941 -0.0996 -0.1849
 4687W        W20156  12.443   7.412   4.566  0.2667 -0.1831 -0.3206
 4688W        W20157  10.902   9.653  16.216  0.1560  0.1188 -0.3821
 4689W        W20158   9.245  10.235  14.544 -0.1770 -0.1743  0.0166
 4690W        W20159   9.295  12.966   1.725 -0.1870  0.0592 -0.0553
 4691W        W20160   6.971  14.168  15.476  0.0852 -0.0294  0.1501
 4692W        W20161  16.523   7.492  14.505 -0.2919 -0.0707  0.3598
 4693W        W20162  15.520  14.713   4.751 -0.0002 -0.0747  0.1478
 4694W        W20163   8.818  15.963   0.084  0.1648 -0.0144  0.3436
 4695W        W20164   2.597  17.390  12.962  0.1715  0.0835 -0.0047
 4696W        W20165   9.422   2.230   1.338 -0.0277  0.2183  0.2532
 4697W        W20166  13.010   3.813  15.619 -0.0637  0.0507  0.1101
 4698W        W20167  10.870  15.212   3.119 -0.0981  0.1776  0.0557
 4699W        W20168  13.985   4.749  15.430  0.0878 -0.1074  0.1265
 4700W        W20169  11.944   9.304  16.122  0.3210  0.1653 -0.0112
 4701W        W20170  12.855   9.176   3.490 -0.2121  0.0798 -0.1320
 4702W        W20171   2.972   0.454   4.940  0.3475  0.1292 -0.1208
 4703W        W20172   5.436  14.815  15.737 -0.0739  0.1302 -0.1924
 4704W        W20173   7.928  16.301  14.140  0.0216 -0.1570  0.0922
 4705W        W20174  15.103   4.310  11.933 -0.1967  0.0965 -0.1577
 4706W        W20175   4.745   6.428   2.335  0.1971 -0.1670  0.0897
 4707W        W20176  17.098  16.767  12.067 -0.1153 -0.0611  0.1472
 4708W        W20177  16.234   0.279   2.340 -0.1351  0.0214  0.1406
 4709W        W20178   3.278  10.118   3.330  0.0659 -0.2628 -0.0233
 4710W        W20179  12.276  13.565  13.351  0.1930  0.0538  0.0344
 4711W        W20180   9.189  16.885  12.526 -0.1282  0.0349 -0.0142
 4712W        W20181  16.152  16.930   1.266 -0.1427 -0.1041  0.1789
 4713W        W20182  16.682  12.746  12.923 -0.1364  0.0894  0.1175
 4714W        W20183   6.808   1.967  12.890 -0.1503 -0.0061 -0.1032
 4715W        W20184   0.543  13.576   0.478 -0.0932  0.4965 -0.0714
 4716W        W20185   1.330   5.861   4.056  0.2260 -0.0298 -0.0367
 4717W        W20186   1.760   0.580   4.425 -0.2188  0.0588  0.2084
 4718W        W20187  15.158   8.611  13.851  0.1393  0.5292  0.0946
 4719W        W20188  16.640  14.457  16.117  0.3847 -0.2819  0.0419
 4720W        W20189  15.061  11.768  11.676  0.1155 -0.2938  0.1089
 4721W        W20190  12.146   4.827  16.296 -0.3326  0.1547 -0.5372
 4722W        W20191  15.897   7.276   0.950  0.0638 -0.0940 -0.1426
 4723W        W20192  16.232   9.942  15.509 -0.0699 -0.0464  0.0121
 4724W        W20193   5.242   3.459   0.433  0.0563 -0.2735 -0.2732
 4725W        W20194   2.787   0.289  14.889  0.2723  0.1589 -0.1183
 4726W        W20195  15.858  16.324  11.065  0.1397 -0.1117  0.2623
 4727W        W20196   0.748  13.553  11.349 -0.1900  0.0309  0.0869
 4728W        W20197  10.426   5.884   6.510  0.0536 -0.0161  0.0810
 4729W        W20198  11.394  17.231   4.473 -0.2096  0.1733 -0.1488
 4730W        W20199  16.137   4.058   5.535 -0.2203 -0.0194 -0.1823
 4731W        W20200   0.558  11.018   6.199 -0.1761 -0.0180 -0.2345
 4732W        W20201   1.446  14.848   0.273  0.2616  0.0178  0.2072
 4733W        W20202  13.860  14.321  13.731  0.1189  0.0020  0.1549
 4734W        W20203   6.480  10.582  14.774 -0.1474 -0.2400 -0.0018
 4735W        W20204   5.171   4.503   1.417  0.3006 -0.0178 -0.0109
 4736W        W20205  14.418  11.238   4.413 -0.0085 -0.0433  0.2220
 4737W        W20206  16.020  10.415  15.837 -0.1246  0.2116  0.1754
 4738W        W20207   4.701  12.933   4.768 -0.1365  0.3015 -0.2036
 4739W        W20208   4.725   3.820   1.577 -0.0171  0.3008 -0.1900
 4740W        W20209  10.108  16.840  15.493 -0.0002  0.0779  0.1846
 4741W        W20210  11.587   5.312   5.772 -0.1859 -0.0132  0.1635
 4742W        W20211   6.649  12.424  13.753 -0.1335  0.3505  0.4735
 4743W        W20212   9.242   6.195  14.656 -0.0171 -0.0779 -0.0375
 4744W        W20213  14.514  17.415   3.589  0.0193 -0.1362  0.2443
 4745W        W20214   4.142   5.422   1.816  0.1251  0.0156 -0.1754
 4746W        W20215  16.554  12.136   2.088  0.0340 -0.1398 -0.0618
 4747W        W20216   3.867  16.843  11.981 -0.0059  0.0924  0.1391
 4748W        W20217   7.521  16.463   1.442  0.1471  0.1851 -0.1435
 4749W        W20218  15.372   1.928  15.531 -0.1913  0.2954  0.3946
 4750W        W20219  13.580   2.061  14.656 -0.2618 -0.0038  0.0752
 4751W        W20220   9.906   9.991   3.392  0.2213  0.0753 -0.2042
 4752W        W20221  15.248   7.522  16.012  0.0047 -0.1319  0.1069
 4753W        W20222   4.539  16.367   2.999  0.0669 -0.4267  0.2133
 4754W        W20223  12.591   5.180  13.576 -0.2707 -0.0328  0.0163
 4755W        W20224  14.848   3.275   5.365  0.0012 -0.1632 -0.1308
 4756W        W20225  17.725   0.498   0.496  0.0367  0.0069  0.0274
 4757W        W20226   7.378   5.382   2.559 -0.0901 -0.0058 -0.3126
 4758W        W20227  10.121  14.128   4.211  0.1491 -0.1116  0.0880
 4759W        W20228  14.880  12.888   3.127  0.3452 -0.0532 -0.1072
 4760W        W20229   5.183   3.013  14.529 -0.1115 -0.1888  0.3365
 4761W        W20230   2.849   7.076  14.357  0.0904 -0.0556  0.0186
 4762W        W20231  14.524   5.000  14.219  0.0983 -0.1791  0.1196
 4763W        W20232  12.873   7.177  12.475  0.0267 -0.1539 -0.0598
 4764W        W20233  11.829  15.929  12.356 -0.0972 -0.0846  0.0857
 4765W        W20234   1.729   0.317   1.676 -0.1733 -0.1077  0.1584
 4766W        W20235   9.555   0.527   5.853  0.0942 -0.0302 -0.4208
 4767W        W20236   9.844   3.769   0.671  0.2392  0.1191 -0.0382
 4768W        W20237  17.311  15.854   2.116  0.0501  0.3270  0.3060
 4769W        W20238   4.325   3.788   4.488 -0.0954 -0.2652  0.2029
 4770W        W20239   3.625  11.320   4.472 -0.0293  0.1616 -0.2043
 4771W        W20240   8.629   9.530   3.544  0.0823 -0.1390 -0.0605
 4772W        W20241  10.512   8.968   5.234  0.2294 -0.1447 -0.0139
 4773W        W20242   7.458  12.096  15.408 -0.0879  0.2088  0.0932
 4774W        W20243   0.476  15.524  15.123  0.1964  0.0509  0.0473
 4775W        W20244   8.492   7.685  14.021  0.0516  0.2243 -0.0655
 4776W        W20245  10.238   2.528   4.562 -0.1007 -0.1989 -0.1139
 4777W        W20246   5.117   6.636   3.339 -0.1700  0.0257  0.1102
 4778W        W20247   3.555   4.165  11.543  0.1268 -0.1329 -0.0058
 4779W        W20248  15.327   9.059  13.237 -0.2522  0.0349  0.1633
 4780W        W20249   6.679   3.340   5.167 -0.2081  0.3747 -0.1013
 4781W        W20250  15.384  10.391   5.037 -0.0973 -0.3861 -0.1607
 4782W        W20251  15.229   9.585  14.077 -0.2199  0.3343  0.0635
 4783W        W20252  16.005  18.050  14.665 -0.0410 -0.1038 -0.0656
 4784W        W20253  11.739  10.431  14.276 -0.0476 -0.1545  0.1911
 4785W        W20254  14.086   4.405  11.912  0.2046  0.2386  0.1494
 4786W        W20255  16.508   1.879  12.614  0.4374 -0.2774  0.3500
 4787W        W20256   1.009   3.968  14.246  0.2007 -0.0871  0.0903
 4788W        W20257   7.684   7.404  11.473 -0.0949 -0.0005 -0.3474
 4789W        W20258  14.271   1.012  14.630  0.0228 -0.4038 -0.0259
 4790W        W20259   0.589   3.385  12.175  0.4167  0.1486 -0.1334
 4791W        W20260  15.017   9.032   1.388  0.0701 -0.0083  0.0526
 4792W        W20261  10.280  12.990  11.677  0.1871 -0.1063  0.0441
 4793W        W20262  13.744   3.242  12.727  0.0122 -0.2028  0.2297
 4794W        W20263  12.606   8.309  10.505  0.2154 -0.0335  0.1846
 4795W        W20264   2.425  11.246  16.052  0.0119  0.1969  0.1935
 4796W        W20265   4.682   2.733   4.143 -0.1493  0.2609  0.2023
 4797W        W20266   6.523  11.733   2.719 -0.1738  0.0252  0.1159
 4798W        W20267  13.717  11.639   1.944  0.0457  0.0951  0.1155
 4799W        W20268  14.824  11.095   2.039  0.4313 -0.0075  0.1443
 4800W        W20269  11.287  16.838  14.804 -0.3347  0.2054 -0.0859
 4801W        W20270  12.519   0.411  15.010  0.0755  0.1037 -0.3134
 4802W        W20271   7.733   1.687  13.570 -0.0692  0.1808 -0.1244
 4803W        W20272   4.477  16.096   3.952  0.1462  0.1151  0.0628
 4804W        W20273   6.940   0.329  16.278 -0.1060 -0.0049  0.0311
 4805W        W20274  15.957  10.801  16.073  0.0984 -0.0925 -0.2018
 4806W        W20275  12.226   1.049  15.228 -0.0859 -0.1308 -0.2454
 4807W        W20276  12.392   3.657  12.319  0.1238  0.1972 -0.2919
 4808W        W20277  13.374   1.998  11.449  0.3653 -0.0997 -0.2402
 4809W        W20278   1.743   0.972   0.408  0.2406  0.1495 -0.2169
 4810W        W20279  11.965  13.800   5.591  0.0889 -0.0137 -0.0235
 4811W        W20280  17.697  17.625  14.909 -0.1628 -0.4735 -0.4813
 4812W        W20281   0.210   6.175  12.182  0.0049 -0.0371 -0.3685
 4813W        W20282  13.502  14.676   1.902  0.1648  0.0038  0.0313
 4814W        W20283   9.830   1.407  12.712  0.0076  0.1702 -0.0487
 4815W        W20284  16.490   5.270  14.343 -0.0039  0.0688 -0.1450
 4816W        W20285  11.916   8.756  16.251  0.1063 -0.1419 -0.1857
 4817W        W20286   5.554   0.287  12.328 -0.0739  0.0749 -0.3116
 4818W        W20287   9.437  11.534   5.657  0.0262 -0.0307  0.0765
 4819W        W20288  16.359  13.610   1.199 -0.0779  0.0446 -0.0469
 4820W        W20289   0.320  12.933  15.811  0.3793 -0.0153  0.1775
 4821W        W20290   8.835  11.699  11.454 -0.3631  0.0285 -0.0491
 4822W        W20291   9.979   0.045   0.122 -0.0434  0.0051  0.1096
 4823W        W20292  13.982  14.291   3.680 -0.1803 -0.0870 -0.1218
 4824W        W20293  13.219   8.062  14.482 -0.0437 -0.2350 -0.2754
 4825W        W20294  10.110  14.335  13.977  0.0386  0.0035  0.0816
 4826W        W20295   2.713  11.305  12.488  0.0409 -0.0145  0.0606
 4827W        W20296  13.877   9.314   4.451 -0.1820  0.1218  0.0067
 4828W        W20297  10.233   9.658  13.846  0.3127  0.3116  0.1238
 4829W        W20298   1.058   6.758  10.660  0.2373 -0.1276 -0.0996
 4830W        W20299  11.485   9.934  12.173 -0.0225 -0.2748 -0.2241
 4831W        W20300   1.571   1.578   4.545 -0.1288 -0.0369  0.1452
 4832W        W20301  16.437   5.294   4.453  0.0196 -0.0025  0.0089
 4833W        W20302  10.536  18.034  11.763  0.0205  0.3969  0.2372
 4834W        W20303  17.406   5.817  15.904  0.2757  0.1309  0.0233
 4835W        W20304  11.646  15.290  15.843 -0.2074  0.0996  0.4584
 4836W        W20305   9.760  12.866  10.602 -0.1535  0.1360 -0.2122
 4837W        W20306   5.381  13.696  10.354  0.3200 -0.2386 -0.0480
 4838W        W20307  13.753   0.728  14.546  0.0019  0.0124 -0.1535
 4839W        W20308   4.430   4.005  15.766 -0.1164 -0.3435  0.2251
 4840W        W20309   0.125   2.185  15.036 -0.0674 -0.0296 -0.0032
 4841W        W20310   9.734  16.269  13.819 -0.0216  0.0761 -0.0915
 4842W        W20311  14.878  15.538   2.731 -0.0650 -0.1437 -0.2470
 4843W        W20312   4.310  13.903  14.460  0.0469  0.1958  0.0611
 4844W        W20313  15.556   5.248   3.932 -0.0560 -0.0735  0.1732
 4845W        W20314   6.883   2.255  12.483  0.1178  0.0350 -0.3696
 4846W        W20315  15.144  12.241  14.056 -0.1889 -0.0392 -0.3189
 4847W        W20316   7.100   2.561   1.904 -0.2153  0.1140  0.0028
 4848W        W20317   6.115  14.220  11.910  0.2817  0.0616  0.2053
 4849W        W20318   2.916   2.393  13.551  0.0958 -0.0022 -0.2555
 4850W        W20319  13.152   6.333  15.066  0.1567  0.1432  0.2568
 4851W        W20320   4.437   1.869   4.534  0.0874 -0.0975  0.1708
 4852W        W20321   3.356   2.317  13.268  0.2893  0.2505  0.0519
 4853W        W20322  12.693  10.800   3.984 -0.0487  0.0778 -0.1232
 4854W        W20323  11.649  14.763   1.127  0.2922  0.1777  0.1770
 4855W        W20324   7.804   4.120   3.196 -0.1395  0.0379  0.2054
 4856W        W20325  16.016   6.175  15.903  0.2418 -0.1115  0.0821
 4857W        W20326   3.601   2.273   1.841  0.1997  0.0019 -0.2219
 4858W        W20327  14.097   0.057  12.604 -0.0611 -0.1665  0.1521
 4859W        W20328  12.534   5.256   2.608  0.1082  0.2194 -0.0032
 4860W        W20329  17.414   7.537  16.223  0.2158  0.3199  0.1646
 4861W        W20330   5.909  15.427  12.721  0.1324 -0.3328 -0.1638
 4862W        W20331  14.103   3.922   0.669 -0.1440 -0.1152 -0.1546
 4863W        W20332  12.393   1.713   2.306 -0.1758 -0.3710 -0.1620
 4864W        W20333  17.190  12.793  15.600  0.1345  0.0123  0.1307
 4865W        W20334   8.590   7.905  11.606  0.2356  0.3610  0.2771
 4866W        W20335  14.995   2.750  11.639  0.0240  0.0106 -0.4048
 4867W        W20336   8.996   3.542  16.120  0.2477 -0.2531 -0.1892
 4868W        W20337  17.220   3.688  12.542 -0.0562 -0.0777  0.0925
 4869W        W20338   2.458   2.642   2.382  0.2644 -0.0092 -0.0427
 4870W        W20339  15.938   2.740  11.527 -0.3109 -0.2865  0.0948
 4871W        W20340   7.211   7.693   5.443 -0.0843 -0.1683 -0.0374
 4872W        W20341   2.306   0.079  14.823  0.2691  0.1610  0.0151
 4873W        W20342   9.660  14.800  16.132 -0.1228 -0.1857  0.0678
 4874W        W20343  11.720  14.288   0.360 -0.0337 -0.2413 -0.2075
 4875W        W20344   9.641   2.384   2.187  0.2620  0.4928 -0.0546
 4876W        W20345   3.650   4.935  10.156 -0.1882  0.2621  0.0523
 4877W        W20346  15.068   0.884  13.903 -0.0949 -0.0023  0.0491
 4878W        W20347   3.168   7.450  16.033 -0.0566 -0.0725 -0.0585
 4879W        W20348  14.153  12.736  16.115  0.1831  0.0854  0.1458
 4880W        W20349   4.942   5.103  15.092 -0.1590 -0.1764  0.2874
 4881W        W20350   3.223   3.977  11.967 -0.1163  0.0701  0.1792
 4882W        W20351  11.417  17.917   6.589  0.0699 -0.0085 -0.1434
 4883W        W20352   6.620   9.620  14.360  0.0383 -0.2481 -0.1161
 4884W        W20353  12.000  12.433   6.042 -0.1118 -0.1555 -0.0870
 4885W        W20354  10.783  17.649   3.721  0.0260  0.1560  0.2063
 4886W        W20355   4.636   9.010   0.230  0.1135 -0.1321  0.3221
 4887W        W20356  17.329  11.278   0.484  0.0493 -0.0609 -0.3037
 4888W        W20357   4.531   3.020   2.674  0.3489 -0.0441 -0.1587
 4889W        W20358  13.381   5.716  13.319  0.1812 -0.0990 -0.1331
 4890W        W20359  16.823  15.772   2.295  0.1212  0.0645 -0.0529
 4891W        W20360  13.719  16.773   5.008 -0.2158 -0.1126 -0.1158
 4892W        W20361   0.261   1.252  11.399  0.0900  0.1945  0.1787
 4893W        W20362   5.497  13.808  12.817  0.1996  0.0304  0.0336
 4894W        W20363   3.431   0.052  15.984 -0.2031  0.0123  0.0713
 4895W        W20364   4.144  17.502   4.131  0.0267  0.1059  0.0531
 4896W        W20365   8.405  18.026   2.711  0.0927 -0.2078 -0.3005
 4897W        W20366  17.818  17.068   5.205  0.1382  0.0487  0.0522
 4898W        W20367   5.129   8.425  13.103  0.1510 -0.2868 -0.2640
 4899W        W20368   0.337   4.703  10.179  0.0991 -0.3116  0.0148
 4900W        W20369  10.715  17.632  15.826 -0.1156  0.1406 -0.0367
 4901W        W20370  12.854   2.517  15.905 -0.1516 -0.0994  0.0157
 4902W        W20371  16.676   1.765  10.149  0.2047  0.2804 -0.3545
 4903W        W20372  18.015   6.907   2.453  0.1110 -0.2111 -0.1246
 4904W        W20373   8.820   0.704   5.521 -0.0097 -0.0096  0.0927
 4905W        W20374  17.577   3.525   2.515  0.0924  0.2581 -0.0028
 4906W        W20375   6.978  13.818   3.114 -0.1319 -0.0869 -0.2955
 4907W        W20376   2.352  14.062   1.308  0.0918  0.0854  0.0400
 4908W        W20377   9.438   9.967  11.532  0.2369  0.0559  0.0008
 4909W        W20378  13.165   4.594  15.940  0.2843  0.0816  0.1178
 4910W        W20379  15.991  14.115  14.024  0.0130 -0.0052 -0.1168
 4911W        W20380   2.406   4.964  11.031  0.1763  0.0190  0.0650
 4912W        W20381  10.080  10.739   1.505 -0.1930 -0.1169  0.1082
 4913W        W20382   8.809  14.294  12.792 -0.0433  0.0163  0.1810
 4914W        W20383  17.950  13.895  15.087  0.0848 -0.0878  0.0469
 4915W        W20384   2.084  10.628   1.064 -0.1429  0.2100 -0.0259
 4916W        W20385   4.919  14.956   3.598 -0.1299 -0.4800 -0.0528
 4917W        W20386   7.211   7.138   0.605  0.3863  0.1791  0.4466
 4918W        W20387  16.547   2.258   3.760 -0.0991 -0.3561  0.0857
 4919W        W20388  13.305   3.932   6.046  0.0159 -0.3624  0.1268
 4920W        W20389  13.362  14.943   0.578 -0.0962 -0.0434 -0.0636
 4921W        W20390   1.083  14.603  15.248 -0.3785  0.2302 -0.0575
 4922W        W20391  10.527  16.601   2.855 -0.1094 -0.3126  0.1905
 4923W        W20392  17.187   4.930   4.247 -0.2463  0.1520 -0.2385
 4924W        W20393   0.828  17.941   1.543  0.1185 -0.2965 -0.1905
 4925W        W20394  13.984   8.908   2.213  0.0042 -0.0115 -0.0785
 4926W        W20395  13.853  12.021   4.499 -0.0030 -0.0480  0.0866
 4927W        W20396   8.976   5.565  13.398  0.2400  0.2121  0.0799
 4928W        W20397   0.672  15.804   0.541 -0.0188 -0.3651  0.0479
 4929W        W20398   7.666   3.922   1.800  0.0446  0.1064 -0.1927
 4930W        W20399   2.820   9.058   3.118 -0.3156 -0.3797  0.3923
 4931W        W20400   3.188   6.934   1.006 -0.0407 -0.2392 -0.3136
 4932W        W20401  18.095   3.516  13.510  0.0035 -0.0813 -0.0298
 4933W        W20402   5.482   9.227  14.050 -0.3432  0.1237 -0.2283
 4934W        W20403  10.882   2.655   2.162 -0.0393  0.1667 -0.2725
 4935W        W20404  11.145   8.251  14.255  0.5397  0.1502  0.2919
 4936W        W20405   4.968   1.749  11.444 -0.0216 -0.1431 -0.3078
 4937W        W20406   8.281   0.129   3.450 -0.0621  0.1758 -0.0332
 4938W        W20407   3.704  16.280  11.287  0.1287  0.0470 -0.3247
 4939W        W20408  15.123   6.637   2.181  0.0129 -0.0656 -0.1901
 4940W        W20409  10.543   3.475   2.321  0.0892 -0.4597  0.0248
 4941W        W20410   5.008   9.113   5.624  0.2527 -0.0417  0.0834
 4942W        W20411   7.462  15.585   2.840  0.1042  0.0982  0.3864
 4943W        W20412   9.766   5.419   4.783 -0.0335  0.1758 -0.2464
 4944W        W20413  12.270   0.959  13.884 -0.1701 -0.3127  0.0038
 4945W        W20414  17.848  14.147  12.074 -0.0137 -0.2559 -0.4195
 4946W        W20415   1.814  10.403   4.718  0.0202 -0.0394 -0.1446
 4947W        W20416  16.096  10.656  14.396  0.1095  0.1549 -0.0169
 4948W        W20417   8.108  11.233  12.791 -0.3240 -0.0321  0.1219
 4949W        W20418  10.697   1.386  13.272  0.1831  0.2896  0.1064
 4950W        W20419  15.812   2.285  15.539  0.2882  0.1109  0.1776
 4951W        W20420  13.430   9.979  10.611  0.1667 -0.0605  0.0520
 4952W        W20421  13.770   6.986  15.189 -0.1240 -0.2038  0.2487
 4953W        W20422  14.166   2.129   1.665 -0.0829 -0.0105 -0.0793
 4954W        W20423  13.009   2.883   2.662 -0.1825  0.0299 -0.0975
 4955W        W20424  16.414   9.648  12.485 -0.0423  0.2894 -0.1218
 4956W        W20425  16.966   1.747  12.497 -0.1003 -0.1486 -0.1011
 4957W        W20426   2.788   1.566  10.490  0.2274  0.2604 -0.0945
 4958W        W20427  17.413  17.465  12.948 -0.0921 -0.2557 -0.0347
 4959W        W20428  16.977   2.839  14.582 -0.0845 -0.2225 -0.1266
 4960W        W20429  11.508   8.462  13.520 -0.1451  0.1336 -0.1008
 4961W        W20430   3.291   1.013  13.136  0.0245 -0.1198  0.0378
 4962W        W20431   2.066  11.867  14.168 -0.2616 -0.0637 -0.1601
 4963W        W20432   1.057   5.873  11.169  0.0184 -0.1384 -0.2271
 4964W        W20433   7.518  12.024  11.345 -0.0224  0.0025  0.0048
 4965W        W20434  13.199  16.378   1.273  0.3639 -0.2054  0.3244
 4966W        W20435  15.644   4.538   0.860  0.0675  0.3565 -0.3211
 4967W        W20436  11.957  17.248  14.347 -0.1564 -0.0497 -0.3538
 4968W        W20437   7.809  16.180   4.445 -0.1576  0.2252 -0.1475
 4969W        W20438   7.960   3.218   0.685  0.0861 -0.1652 -0.0168
 4970W        W20439  16.943   7.043   3.166 -0.1321 -0.0096 -0.0620
 4971W        W20440   0.617  15.824   4.305  0.3610 -0.1445 -0.0196
 4972W        W20441   0.375   0.099   1.412 -0.1511  0.2358 -0.1871
 4973W        W20442  14.667   1.133   3.046 -0.0002 -0.1124  0.0362
 4974W        W20443  16.597  18.045   5.282  0.2034 -0.2955 -0.1916
 4975W        W20444  12.720  14.304  15.244  0.1246  0.3536 -0.0694
 4976W        W20445   6.340  10.927   3.209  0.1823 -0.2940 -0.2893
 4977W        W20446   2.455   4.876  15.471  0.2001 -0.3514 -0.1242
 4978W        W20447  16.907   6.866   2.085 -0.2790  0.2269  0.0314
 4979W        W20448   5.326   2.451   0.412  0.0405  0.2059  0.1525
 4980W        W20449   4.421  13.624   2.478  0.2431  0.0434  0.1967
 4981W        W20450   0.096   0.310   3.430  0.2426 -0.0890 -0.0047
 4982W        W20451   3.464  11.133  14.943 -0.0503 -0.0476 -0.0597
 4983W        W20452   1.973   3.511   1.495 -0.1689 -0.0358 -0.0240
 4984W        W20453   4.592  15.554  12.528 -0.0747  0.0150 -0.1278
 4985W        W20454  13.098  13.306   4.700 -0.1783 -0.1894  0.1952
 4986W        W20455  16.386   6.432  15.057  0.1588  0.2031 -0.0993
 4987W        W20456  14.058   7.943   5.238 -0.2563 -0.0656 -0.0616
 4988W        W20457   1.860  17.172   3.070 -0.1124  0.1675 -0.1165
 4989W        W20458   1.318  15.626   0.429  0.1525 -0.1627 -0.5708
 4990W        W20459   6.647   0.210  13.169 -0.0234 -0.0026 -0.0820
 4991W        W20460   1.307   3.820  13.175  0.1709 -0.0920  0.0240
 4992W        W20461   5.603   9.161   2.972  0.0719  0.1394 -0.0057
 4993W        W20462  17.398  13.862  12.670  0.0446  0.2226  0.0519
 4994W        W20463   0.387  11.784   2.273 -0.1586  0.1163 -0.0284
 4995W        W20464   3.953   7.866   4.372 -0.0014  0.0824  0.3406
 4996W        W20465  12.167  12.606   0.768  0.0579 -0.3642  0.0868
 4997W        W20466  12.161  13.389  11.637 -0.1117 -0.2253 -0.1509
 4998W        W20467  17.805   0.103  15.040  0.1278 -0.3503 -0.2207
 4999W        W20468  17.358  11.715   1.785  0.2013 -0.0973 -0.1144
 5000W        W20469  10.416   6.497   2.618  0.0136  0.1456 -0.0311
 5001W        W20470  13.027   4.854   1.182  0.0776  0.0669 -0.0670
 5002W        W20471   4.502   1.652  11.359  0.1389 -0.0264  0.1637
 5003W        W20472   2.360   3.421  11.247  0.1383 -0.2922 -0.1196
 5004W        W20473  13.453   2.203   3.328  0.0596 -0.1015  0.0957
 5005W        W20474   8.032   5.237  16.161  0.1249 -0.2990 -0.2564
 5006W        W20475  17.044  14.475   2.445  0.0403 -0.1508  0.1153
 5007W        W20476  11.804  13.590   4.230 -0.1234 -0.0723 -0.0520
 5008W        W20477  14.674  15.924  13.989  0.1856  0.0043 -0.4002
 5009W        W20478   0.635  14.678  13.492 -0.0877  0.1851 -0.0161
 5010W        W20479  17.915   2.268   5.103 -0.0424  0.1727 -0.0447
 5011W        W20480   1.187   4.082   1.939  0.2466  0.1488 -0.0370
 5012W        W20481   9.487   2.068  13.400 -0.1592 -0.0899  0.0642
 5013W        W20482  12.444   6.149  13.427  0.0864 -0.0895  0.1264
 5014W        W20483  10.948   6.626   1.789  0.1402 -0.1889 -0.1975
 5015W        W20484   5.791  16.402   0.369  0.0576 -0.0757  0.0603
 5016W        W20485   6.863   6.668   2.719 -0.0303 -0.0752 -0.1659
 5017W        W20486  13.030  14.953  15.901 -0.0280  0.0983  0.0197
 5018W        W20487   0.340   4.284  15.988 -0.3607  0.0004  0.2095
 5019W        W20488   5.476   9.205  16.071  0.0561 -0.2396 -0.0546
 5020W        W20489   8.481  17.253  15.490  0.1123  0.0421 -0.0912
 5021W        W20490  13.778   0.015   1.062  0.2385  0.0968  0.1879
 5022W        W20491  15.415   1.557  13.387 -0.1326 -0.1848 -0.1209
 5023W        W20492   5.986   2.209   3.896 -0.0687  0.3044 -0.1002
 5024W        W20493  17.832  15.942  15.945  0.1700 -0.2674  0.0298
 5025W        W20494   1.174  17.672  14.041 -0.0317  0.2172 -0.1696
 5026W        W20495   7.163   3.298   2.927  0.0676  0.4653  0.0995
 5027W        W20496  17.542   7.200  15.303 -0.1410  0.2573 -0.0513
 5028W        W20497   6.850   8.924   0.128  0.0001  0.0145  0.3416
 5029W        W20498   2.461   3.557  14.201 -0.0804 -0.2709  0.0243
 5030W        W20499   1.233   8.371  15.222 -0.4112  0.3596  0.0843
 5031W        W20500  13.309  16.171   0.162  0.0127 -0.1450 -0.0737
 5032W        W20501   7.968  13.142  14.258 -0.2080 -0.1345  0.0299
 5033W        W20502   8.403  11.620  11.202  0.0466  0.0927  0.2807
 5034W        W20503  15.185   0.489   0.927 -0.1085 -0.3366  0.2484
 5035W        W20504  15.825  14.445  10.334  0.2442 -0.1927  0.0851
 5036W        W20505   5.890  16.304  12.504  0.0137 -0.0597  0.0847
 5037W        W20506   0.142  11.172  11.502 -0.1326  0.1538  0.0602
 5038W        W20507  10.073  14.709   1.703  0.0964 -0.1252  0.0052
 5039W        W20508   2.977   0.581   0.201  0.0529 -0.2626 -0.0581
 5040W        W20509  12.585   9.233  12.593  0.1665  0.1742  0.0995
 5041W        W20510  15.614   4.893  10.305 -0.0624  0.0369  0.1065
 5042W        W20511  11.949   5.562  12.844 -0.0621  0.1219 -0.4236
 5043W        W20512  10.603  15.667   6.094  0.2838 -0.0891  0.2228
 5044W        W20513   9.325  10.739   3.921 -0.2084 -0.0668  0.2836
 5045W        W20514   9.772   5.404   2.482  0.0930 -0.0041  0.1253
 5046W        W20515   2.612  17.487   4.986 -0.0937  0.3013 -0.2310
 5047W        W20516  17.478  13.811  13.716  0.0059  0.2617 -0.1235
 5048W        W20517  13.755   7.171  14.210 -0.2504  0.2223  0.1466
 5049W        W20518  15.361  17.167   3.995  0.1618 -0.3315  0.0712
 5050W        W20519   7.533   5.803   2.286  0.0079  0.0752  0.2765
 5051W        W20520   4.027   8.737  14.693 -0.2165 -0.3011 -0.0455
 5052W        W20521   2.571   5.367  15.271 -0.0521 -0.0382 -0.2221
 5053W        W20522   9.436   2.998   1.094 -0.0057  0.0715  0.0069
 5054W        W20523   6.048   0.255  12.525  0.1566  0.1497 -0.1807
 5055W        W20524  12.807   0.719   5.005  0.1410  0.2090 -0.0120
 5056W        W20525  15.841  13.070  15.486  0.3394  0.0634  0.1822
 5057W        W20526  12.597  13.289   1.116 -0.2633 -0.0737 -0.0858
 5058W        W20527  13.795   4.308   3.711  0.3607 -0.0139 -0.1736
 5059W        W20528   1.220  12.060   4.607  0.0151 -0.2872  0.0421
 5060W        W20529   4.475  13.374  15.425 -0.1078  0.2376  0.0698
 5061W        W20530   4.559   0.950   2.184 -0.1118 -0.0460  0.2116
 5062W        W20531  10.342  16.991  12.457 -0.0872 -0.1299 -0.2206
 5063W        W20532  15.810   9.468  12.007  0.2635 -0.0585  0.1688
 5064W        W20533   1.033   4.203  13.481 -0.2104  0.0486 -0.1726
 5065W        W20534  10.713  17.578   0.053  0.4338  0.0195 -0.3920
 5066W        W20535   3.192  13.540   1.000 -0.1981  0.2398 -0.3887
 5067W        W20536   1.908  14.031  14.820 -0.0574  0.3703  0.1492
 5068W        W20537   2.407  10.343  14.980 -0.2340 -0.0666  0.0986
 5069W        W20538   0.040   2.999  13.351  0.5263  0.1307  0.0608
 5070W        W20539  11.766  15.573  15.456  0.0376 -0.1747  0.1983
 5071W        W20540  10.661  15.667  14.876 -0.4529  0.1208  0.0216
 5072W        W20541   6.434   8.940   4.134 -0.2677 -0.1068 -0.3195
 5073W        W20542   3.524   1.175  15.440  0.2162  0.1021  0.0006
 5074W        W20543  10.974  12.416  11.056 -0.0708  0.0898  0.0073
 5075W        W20544  13.104  15.441  14.179  0.0588  0.0379 -0.0734
 5076W        W20545   5.323   1.026   3.065  0.0523 -0.1217  0.0446
 5077W        W20546   5.586  16.733  13.244  0.0342  0.0251 -0.0426
 5078W        W20547   8.772  15.628   2.330 -0.1722  0.1667  0.1330
 5079W        W20548  13.037  17.760  11.388 -0.0851  0.0669  0.0348
 5080W        W20549  17.258   6.114   5.137  0.0745 -0.2027  0.1205
 5081W        W20550  17.397   0.090  15.825  0.2082  0.0948 -0.0150
 5082W        W20551  12.791   5.535   0.908  0.2813 -0.2283 -0.0137
 5083W        W20552   5.969   8.241  10.791 -0.3219  0.2003 -0.2881
 5084W        W20553  14.284   8.900  14.783  0.1985  0.1754 -0.0747
 5085W        W20554   6.639  11.872  13.931  0.2224 -0.0586  0.3520
 5086W        W20555   7.388   7.989   1.036  0.1091 -0.0747  0.1091
 5087W        W20556   9.263   0.628   4.300  0.1184  0.1932 -0.0621
 5088W        W20557   8.360   7.876  13.548 -0.1611  0.0937  0.3312
 5089W        W20558  13.259   3.380  15.497 -0.0304  0.0158  0.0941
 5090W        W20559   1.320  11.497   5.234  0.1851 -0.0577  0.0437
 5091W        W20560  14.457   9.532   2.807  0.0566 -0.0948  0.0018
 5092W        W20561   5.400  13.021   0.117 -0.1376  0.2828 -0.2125
 5093W        W20562  17.303  16.100  11.375 -0.0871  0.2503  0.1993
 5094W        W20563   1.181  11.314  14.477 -0.2496 -0.1939 -0.0108
 5095W        W20564   2.152   8.162  14.942 -0.1381 -0.5011  0.0154
 5096W        W20565   3.861  16.276   0.233 -0.0554 -0.0804  0.0183
 5097W        W20566  15.099   9.840  11.686  0.0049  0.1334 -0.1248
 5098W        W20567   6.411   8.250  13.951 -0.2894 -0.3025 -0.1603
 5099W        W20568  11.975  10.342   1.519  0.1309 -0.1464 -0.0091
 5100W        W20569   1.838  16.589   3.825 -0.0076  0.4903  0.0752
 5101W        W20570   9.850   5.995  13.797  0.1630  0.1957 -0.4636
 5102W        W20571  16.613  15.676   2.805 -0.3037 -0.1422 -0.1039
 5103W        W20572   8.933   0.471  14.916  0.2131  0.0762  0.0301
 5104W        W20573  17.539   4.514  13.163  0.2297 -0.0405 -0.0413
 5105W        W20574   7.435  17.450  12.568  0.2259  0.1881  0.1744
 5106W        W20575   1.393   0.091  13.761  0.0021  0.0686 -0.1645
 5107W        W20576  12.348  17.530  14.255  0.3860 -0.1406 -0.2027
 5108W        W20577  10.073  13.398   5.883  0.2368  0.1681  0.2362
 5109W        W20578   0.416  12.710  14.810  0.0696  0.3166 -0.1453
 5110W        W20579  13.490   7.213   2.659 -0.0558  0.0721  0.1622
 5111W        W20580   3.531   3.751  14.570 -0.1375  0.3339  0.0450
 5112W        W20581  11.916  10.894   0.112 -0.3036 -0.0257  0.2697
 5113W        W20582  10.316  16.115  12.189  0.0887 -0.4028  0.0081
 5114W        W20583   3.739  11.801  13.914  0.1705  0.2605  0.3023
 5115W        W20584  13.812   4.751  12.666 -0.0066  0.0560 -0.1695
 5116W        W20585  14.538  11.514  14.062  0.2368  0.0993 -0.0494
 5117W        W20586  16.328  10.596   2.175  0.0499 -0.1932  0.0867
 5118W        W20587   3.082  15.849   0.158 -0.1265 -0.0872  0.2666
 5119W        W20588   0.299   1.025  12.306 -0.1552  0.0608 -0.1072
 5120W        W20589   4.050   4.392   1.822 -0.1191  0.0155  0.0578
 5121W        W20590   9.181   6.197   2.608 -0.0049 -0.3315 -0.0048
 5122W        W20591   9.743  14.384   0.579  0.1998 -0.3815  0.1581
 5123W        W20592  12.826  11.948   4.250 -0.1191  0.2263  0.1625
 5124W        W20593  14.803   1.847  12.309  0.1246 -0.1447  0.0336
 5125W        W20594  13.952  12.443  11.803 -0.1337  0.1226 -0.2904
 5126W        W20595   4.080  16.978   4.963 -0.0047 -0.0585  0.2584
 5127W        W20596   4.898   8.490   3.112  0.1559  0.1596 -0.1397
 5128W        W20597  13.826   0.006  15.395 -0.0209 -0.0030  0.0108
 5129W        W20598   2.316   5.774   0.490  0.0593  0.1680  0.1160
 5130W        W20599   9.583  11.369   1.704  0.2431  0.1262 -0.4806
 5131W        W20600  13.508   1.619  14.515 -0.1156  0.1381  0.3104
 5132W        W20601   7.329   7.326   3.769 -0.0139  0.0685 -0.1970
 5133W        W20602   3.561   2.783   3.326 -0.0105 -0.0238  0.0308
 5134W        W20603   5.860  18.038   1.878 -0.4259  0.1964 -0.1399
 5135W        W20604  17.320  11.270  15.425  0.0033 -0.0284  0.2455
 5136W        W20605   2.983  12.776   0.866  0.0706 -0.3943 -0.2617
 5137W        W20606   1.490   1.506  11.332 -0.1243 -0.0401  0.4464
 5138W        W20607  12.009   9.272  11.095 -0.2932 -0.0773 -0.0722
 5139W        W20608  11.672   7.642   5.273  0.1883  0.2732  0.1965
 5140W        W20609  14.925   2.953  14.890  0.1947 -0.0760  0.0438
 5141W        W20610   3.262  13.329  15.004  0.1481  0.2841 -0.1991
 5142W        W20611  13.100  16.864   4.669 -0.0976  0.1830 -0.1214
 5143W        W20612  17.659  13.384  16.105 -0.0760  0.0334 -0.0706
 5144W        W20613  11.295  15.963  14.347  0.0478  0.0907  0.0572
 5145W        W20614   9.065   7.114   4.346  0.1359 -0.1437 -0.1269
 5146W        W20615  10.687   8.622  16.010 -0.1682 -0.0906 -0.0457
 5147W        W20616   8.948   6.697   2.680  0.1517 -0.0774  0.0974
 5148W        W20617  14.012  11.906  13.108 -0.0384  0.0448 -0.0683
 5149W        W20618  11.401   3.262   0.737 -0.2629 -0.0121  0.1530
 5150W        W20619   7.616   2.914   3.640  0.2451  0.2734 -0.0570
 5151W        W20620   2.086   2.217   1.712 -0.0274  0.1713 -0.0095
 5152W        W20621   6.639  15.245   3.999  0.2872 -0.2849  0.2283
 5153W        W20622   0.499  17.552  11.815 -0.2253  0.2047  0.3601
 5154W        W20623  16.502   6.522  12.765 -0.1531 -0.0801 -0.2157
 5155W        W20624  17.880   7.753  13.154  0.0380  0.0533 -0.1479
 5156W        W20625   1.879  13.921   0.345 -0.0721  0.0842 -0.1543
 5157W        W20626  12.700   8.850   4.628  0.0688  0.2211  0.1179
 5158W        W20627   6.333   9.399  11.558 -0.0298 -0.0813 -0.0711
 5159W        W20628  12.203   5.417  13.234 -0.1100  0.0877 -0.1016
 5160W        W20629   6.642   1.271  14.069  0.1697 -0.0132 -0.0800
 5161W        W20630   7.961   0.681   0.107  0.2630  0.4069  0.2849
 5162W        W20631   8.354  15.995  13.856  0.2789 -0.2027 -0.2048
 5163W        W20632  17.900   9.788   0.314 -0.1562  0.0720 -0.0186
 5164W        W20633  17.171  10.759  12.622  0.0482 -0.0429  0.3626
 5165W        W20634  13.370  10.662  11.687 -0.1067  0.0535  0.0036
 5166W        W20635  16.415  15.245  12.170  0.5374 -0.2856 -0.0101
 5167W        W20636   3.216  10.531  14.253  0.1141 -0.3029  0.0670
 5168W        W20637  16.101   6.079   3.525  0.0155 -0.1092  0.2728
 5169W        W20638   7.312   9.488   3.911 -0.1746 -0.0728  0.2702
 5170W        W20639   5.975   7.608  14.648  0.3883 -0.0133 -0.0666
 5171W        W20640   5.850  16.808  10.981  0.0370  0.2666  0.0674
 5172W        W20641  10.140   3.096  11.023  0.0910 -0.0871 -0.4329
 5173W        W20642  13.198   1.487   2.563  0.1694 -0.1686 -0.1015
 5174W        W20643   3.656   1.593   3.061  0.2284  0.0996  0.0545
 5175W        W20644   9.974   1.606  14.307 -0.1916  0.0680  0.1011
 5176W        W20645  12.758  15.559  11.167  0.2349 -0.1820  0.0168
 5177W        W20646   1.041   1.265  14.540  0.0313 -0.2198  0.2142
 5178W        W20647   2.747  17.269   1.550  0.1661  0.1872  0.3311
 5179W        W20648   0.087   2.786   3.857 -0.2130 -0.0860 -0.0091
 5180W        W20649   9.551   0.967   5.519  0.1544 -0.1151  0.1458
 5181W        W20650   1.384  10.217  14.902  0.2002  0.0324 -0.0836
 5182W        W20651   8.087  13.001  15.316 -0.0382  0.0305  0.1491
 5183W        W20652   3.835  10.022  12.603  0.0836  0.2420 -0.1105
 5184W        W20653   6.718   8.278   5.471 -0.2729 -0.1227 -0.0136
 5185W        W20654  17.673   5.069  12.913 -0.3849 -0.1347 -0.1536
 5186W        W20655  14.668   3.638  12.385 -0.3913 -0.1166  0.1402
 5187W        W20656   5.886   9.047   3.916  0.0482 -0.1271 -0.0868
 5188W        W20657  11.732   2.074   1.847  0.1074  0.3656  0.3975
 5189W        W20658   0.133   4.542   3.093 -0.0354 -0.3016 -0.0670
 5190W        W20659   7.973   5.704  16.236 -0.0644 -0.2643  0.2046
 5191W        W20660   1.508  11.983  16.284  0.2335 -0.0442 -0.1972
 5192W        W20661   6.355   2.878   2.956 -0.2317  0.0061 -0.1573
 5193W        W20662   3.761   8.613   0.364  0.0867 -0.0874 -0.0304
 5194W        W20663  16.298   5.634  11.464 -0.2082 -0.1327  0.1582
 5195W        W20664  15.635   1.847   0.830  0.1006  0.2407  0.3150
 5196W        W20665  13.237  13.928   2.985 -0.0765 -0.0288  0.3040
 5197W        W20666   8.102   2.359   3.927 -0.0941  0.2445  0.1581
 5198W        W20667  17.961   9.751  14.046  0.1335  0.0946 -0.0128
 5199W        W20668  11.808  16.782  14.419 -0.0400  0.2957  0.0954
 5200W        W20669   2.803  15.428   4.171  0.1224 -0.1140 -0.0784
 5201W        W20670   1.208   8.959  11.440  0.1679  0.0759  0.0471
 5202W        W20671   7.990   2.278  14.436  0.2985 -0.2457 -0.0969
 5203W        W20672   2.343   5.278   4.662  0.0995 -0.1474  0.0556
 5204W        W20673  11.057   9.306  15.818 -0.1747 -0.0283  0.3057
 5205W        W20674   6.510  14.153  14.183  0.3521 -0.0375 -0.2921
 5206W        W20675   2.939  16.247   1.616  0.1365 -0.2728  0.0464
 5207W        W20676   7.258   6.927   2.995  0.0051  0.0806  0.0553
 5208W        W20677  17.065  16.482  14.305 -0.3249 -0.2813  0.0990
 5209W        W20678   6.735   8.685  11.279  0.1702 -0.0331 -0.3038
 5210W        W20679   4.495   6.921  11.363  0.0663 -0.1961 -0.1126
 5211W        W20680   7.613  11.688  12.274 -0.0740 -0.2619  0.0486
 5212W        W20681   0.859  11.522  15.910 -0.0636 -0.1855 -0.0676
 5213W        W20682   9.334   9.297  12.904  0.0565 -0.1990  0.1635
 5214W        W20683   5.683   1.939  11.949 -0.3060  0.1949 -0.1173
 5215W        W20684  11.713  13.533  11.917  0.3532  0.2589 -0.1243
 5216W        W20685   0.109   2.787   0.768 -0.0736 -0.2377  0.1284
 5217W        W20686   8.249   9.452  14.400  0.1094  0.1540  0.0830
 5218W        W20687   5.740   4.097   2.412 -0.2596 -0.0152  0.2077
 5219W        W20688   1.217   7.699   0.608 -0.2214 -0.5554  0.0334
 5220W        W20689   9.351  11.674  14.038 -0.0906 -0.1028 -0.1235
 5221W        W20690  13.512   5.895  16.147  0.2103  0.5014 -0.0594
 5222W        W20691   4.877  16.149   1.014 -0.0306 -0.0186 -0.0518
 5223W        W20692   6.987   6.864  16.069 -0.1780 -0.2271 -0.2800
 5224W        W20693  14.006   1.574   2.310  0.1402  0.0998 -0.0725
 5225W        W20694  14.845   2.493  10.721 -0.0098  0.5862 -0.0701
 5226W        W20695  13.580   5.772   3.988 -0.1833 -0.1108  0.2356
 5227W        W20696   5.887   9.345   3.378  0.2477  0.0224  0.1510
 5228W        W20697   8.368   3.729  10.837  0.1233 -0.0843  0.2826
 5229W        W20698  17.812  15.391   3.765 -0.1715 -0.3361 -0.1863
 5230W        W20699   3.987  13.856  14.899 -0.0615 -0.0007 -0.1178
 5231W        W20700   3.114   0.193   2.784  0.0273  0.0716  0.1506
 5232W        W20701  11.398   6.416   1.729  0.3026 -0.0518  0.0784
 5233W        W20702   4.022   3.349  11.381  0.1175  0.0174 -0.0260
 5234W        W20703   6.515   1.831   0.357 -0.4045  0.1573 -0.0304
 5235W        W20704   2.297   2.213   2.581 -0.1918  0.1359  0.2349
 5236W        W20705   4.153   9.117   4.246 -0.3876 -0.2200  0.0176
 5237W        W20706  15.445   3.521  11.215 -0.1072  0.0665  0.2488
 5238W        W20707  14.874  11.395   3.377  0.1217 -0.2875 -0.4321
 5239W        W20708  12.457   5.966   4.618  0.1353 -0.0642  0.1743
 5240W        W20709   6.791   7.213   2.936  0.0527  0.0290  0.2352
 5241W        W20710  15.835  10.106  12.268 -0.0769 -0.0654 -0.4241
 5242W        W20711   0.186  10.413   2.372  0.0552 -0.1957  0.4213
 5243W        W20712  15.453  16.230   1.512 -0.3074 -0.3124  0.1009
 5244W        W20713   7.369  15.328   5.199  0.2508  0.1614 -0.0617
 5245W        W20714   7.579  16.675  11.227  0.0874  0.4319 -0.2521
 5246W        W20715  10.392   5.798   5.647  0.1414  0.1862  0.1339
 5247W        W20716  16.587  11.014  14.153 -0.0242  0.0961 -0.1743
 5248W        W20717   1.165   4.723   3.585 -0.0329  0.1343 -0.0279
 5249W        W20718  17.284  12.802  10.493 -0.0950 -0.1254  0.0151
 5250W        W20719  16.971  15.438   1.824 -0.1336 -0.1588 -0.0680
 5251W        W20720  12.018   1.632   1.790  0.0021 -0.1297  0.0544
 5252W        W20721  17.537  15.444  13.944 -0.2728 -0.1744  0.1514
 5253W        W20722   1.887  11.888   2.697  0.1480 -0.1585  0.3604
 5254W        W20723  13.462  15.647   2.985 -0.5998 -0.1386 -0.1649
 5255W        W20724   7.755   4.329  10.773 -0.1736 -0.2645  0.1403
 5256W        W20725   8.882  10.959   2.062 -0.0377  0.2336  0.2521
 5257W        W20726   0.343   9.545  11.963  0.2556  0.0746 -0.1938
 5258W        W20727  17.378  16.429   4.845 -0.1025 -0.4812  0.0347
 5259W        W20728  16.793  10.178   3.162  0.0845 -0.2376 -0.0208
 5260W        W20729  12.498   7.082  13.560  0.2752  0.0106  0.0373
 5261W        W20730   9.873  10.980   1.922  0.0948 -0.2666 -0.0368
 5262W        W20731   0.917   7.085   2.562  0.0623  0.0494 -0.5447
 5263W        W20732  11.871   5.676  11.875  0.1971 -0.1434 -0.0500
 5264W        W20733  14.688  15.444  14.137  0.1896  0.0035 -0.0967
 5265W        W20734   2.051   3.808   0.040  0.0783  0.0622  0.1473
 5266W        W20735   6.334   2.555   5.782 -0.3090 -0.0741  0.0429
 5267W        W20736   7.887   3.436   5.887  0.2191  0.0295  0.0613
 5268W        W20737  16.997  11.117  15.799 -0.2387  0.3650 -0.7135
 5269W        W20738   2.122  13.537  11.616 -0.1900 -0.1496  0.0054
 5270W        W20739   0.716   5.855  15.077  0.0299 -0.1524 -0.0781
 5271W        W20740  17.490  10.473   1.736  0.5231  0.0074 -0.1997
 5272W        W20741   0.571   1.199   2.782 -0.1063  0.4111  0.1588
 5273W        W20742  11.200   2.472   3.002  0.0406 -0.2012  0.1099
 5274W        W20743   7.118   3.776  11.498  0.0741 -0.2367  0.1455
 5275W        W20744  12.574  10.479   2.921  0.3548  0.0222  0.1415
 5276W        W20745  14.094  17.615  14.993  0.0744 -0.0176  0.1485
 5277W        W20746   8.934  16.004   4.807 -0.1777  0.2175 -0.0200
 5278W        W20747  10.706   1.896   3.691  0.0089 -0.2664 -0.0497
 5279W        W20748   1.322   1.074  13.431  0.2904  0.1869  0.0341
 5280W        W20749  11.808  13.460  15.797  0.0290  0.1938  0.1206
 5281W        W20750   8.517   5.756  15.404 -0.0764  0.0319 -0.3186
 5282W        W20751   8.333  17.506   5.558 -0.1676 -0.0242 -0.2240
 5283W        W20752   9.370   7.813  12.293 -0.1340 -0.0409  0.1139
 5284W        W20753  14.867  12.061   0.386 -0.3059 -0.0608 -0.0060
 5285W        W20754   5.805   5.676  12.777 -0.0082 -0.0140  0.0842
 5286W        W20755   9.122  14.136   0.483 -0.0130 -0.1154 -0.0895
 5287W        W20756  16.932  16.413  11.065 -0.1795  0.0655  0.0382
 5288W        W20757   6.684  17.173  10.262  0.2582 -0.0467 -0.0092
 5289W        W20758   7.360  14.335  12.976  0.2296  0.2566 -0.1969
 5290W        W20759   0.455  12.113  13.045 -0.2402 -0.0167  0.0806
 5291W        W20760  17.041  12.136  15.031 -0.2377  0.3377  0.2180
 5292W        W20761   0.330  13.840   2.928  0.0260 -0.1849  0.0530
 5293W        W20762  14.790  13.033   0.176 -0.0961 -0.0171 -0.1871
 5294W        W20763   6.056   2.933   0.527 -0.0749 -0.0148  0.1482
 5295W        W20764   1.936   9.349   0.544 -0.2945 -0.1281  0.2085
 5296W        W20765  13.352   8.897   4.000  0.1528  0.0340 -0.0460
 5297W        W20766   5.971   9.596   0.022 -0.1818  0.2126 -0.2285
 5298W        W20767   4.431   8.633  11.514 -0.2824 -0.0789  0.2869
 5299W        W20768   0.808  14.100   3.842  0.4346 -0.1297  0.3811
 5300W        W20769   6.909   3.840   1.392  0.2282 -0.1272  0.0536
 5301W        W20770  11.501   7.896   0.969  0.0170  0.1921  0.0034
 5302W        W20771   4.224  14.358  11.751  0.0263 -0.0462 -0.3759
 5303W        W20772   3.984  13.085  12.692  0.0081 -0.3037  0.2402
 5304W        W20773  11.273  17.918   2.834  0.0342  0.2317 -0.2214
 5305W        W20774  11.047  17.855   3.392 -0.0381  0.0283  0.1828
 5306W        W20775   8.218  16.446   4.310  0.0593  0.0566  0.0107
 5307W        W20776   8.792   3.147  13.956 -0.0414  0.0838 -0.0901
 5308W        W20777   0.350   1.739  14.909 -0.1527  0.0766  0.0843
 5309W        W20778  11.945   2.316  12.795 -0.0912  0.0832 -0.4092
 5310W        W20779   5.674   6.075   3.765  0.1808  0.3502  0.0925
 5311W        W20780   3.336  12.668   4.189 -0.0157  0.1617 -0.3911
 5312W        W20781  16.125  15.316   0.250 -0.2393 -0.0355 -0.0512
 5313W        W20782   2.286   7.825   2.815  0.3410  0.2204 -0.2080
 5314W        W20783   0.487   1.282  14.636 -0.0360  0.3387  0.1344
 5315W        W20784   8.673   4.641  13.295 -0.1681  0.3416 -0.1454
 5316W        W20785   3.645   4.370   2.664 -0.1760  0.0868  0.2976
 5317W        W20786   7.078  11.729   4.811 -0.0939  0.1186  0.3047
 5318W        W20787  15.646   4.135   4.145  0.0976  0.1780  0.2977
 5319W        W20788  13.426  11.621   2.527 -0.2976 -0.3106 -0.3934
 5320W        W20789   9.076   0.443  13.999 -0.2834  0.1159  0.0459
 5321W        W20790   1.395   8.259   4.466  0.1843 -0.4590  0.0574
 5322W        W20791  16.947  16.868   4.695 -0.0254 -0.2622 -0.0001
 5323W        W20792   6.296   5.818   4.965 -0.2064 -0.1007 -0.1300
 5324W        W20793  17.360  12.923   6.092  0.2787 -0.1209 -0.4521
 5325W        W20794  10.085  12.391  15.546 -0.1290 -0.2143 -0.0499
 5326W        W20795  17.307  12.045  15.921  0.2162  0.3492  0.0398
 5327W        W20796   5.092   7.701  10.505  0.0701 -0.4554 -0.0878
 5328W        W20797   9.607  12.366  15.306 -0.1170 -0.1104 -0.1023
 5329W        W20798  13.961  14.401   1.141  0.0013  0.3161  0.0245
 5330W        W20799   6.679  17.320   6.049  0.1590  0.0005  0.2054
 5331W        W20800  12.168   8.834   3.728 -0.1345 -0.2957 -0.3191
 5332W        W20801  10.857   4.642  13.949 -0.0760 -0.1504 -0.1299
 5333W        W20802   8.200  15.388  14.956 -0.4165  0.1929 -0.3158
 5334W        W20803  11.306  15.986  13.776  0.0485 -0.2436 -0.1821
 5335W        W20804   6.798  17.975  12.618  0.3573  0.1196 -0.1859
 5336W        W20805   9.844  12.739  15.035  0.0632 -0.0399 -0.1858
 5337W        W20806   2.599   7.227   4.549  0.0193  0.1494 -0.1284
 5338W        W20807  12.195   4.335   5.328  0.0607 -0.2236  0.2069
 5339W        W20808   5.523  13.247  15.626 -0.2774 -0.0834 -0.0738
 5340W        W20809   4.405   5.317   0.621  0.0134 -0.0118  0.0224
 5341W        W20810  10.949   4.885   0.760  0.1642  0.2261  0.3341
 5342W        W20811  18.037  15.034  15.746  0.0870 -0.0217 -0.1014
 5343W        W20812   0.526  16.271  13.076 -0.0605 -0.1556  0.0596
 5344W        W20813   7.560   7.161   3.340  0.1492 -0.4421 -0.0521
 5345W        W20814   7.131   7.225   5.103  0.1922  0.3909  0.0657
 5346W        W20815  10.554   7.197   0.281 -0.2060 -0.0528 -0.2018
 5347W        W20816   3.429  14.838   1.185 -0.1129  0.1582  0.1217
 5348W        W20817  11.384   6.964   0.075 -0.0958  0.0865  0.1906
 5349W        W20818   2.016   8.772   2.358 -0.0431 -0.1679  0.1400
 5350W        W20819  14.977   9.332  14.492 -0.1078 -0.0873 -0.0847
 5351W        W20820  14.485  16.337  13.270  0.2071  0.0635  0.0463
 5352W        W20821   1.994  11.081   2.329 -0.0446  0.0117 -0.5488
 5353W        W20822   4.432  16.651  14.724 -0.0573 -0.1639 -0.1641
 5354W        W20823  16.903   1.850  11.691  0.3051  0.0031 -0.1835
 5355W        W20824  12.005  11.814  14.040  0.1233  0.0946  0.1629
 5356W        W20825  17.022  10.652   0.810  0.1028  0.2330 -0.0615
 5357W        W20826  16.099   3.625  13.438  0.0276 -0.0059 -0.0160
 5358W        W20827   6.564   8.645  12.878  0.2761 -0.0631 -0.4227
 5359W        W20828  12.912   3.136   5.495 -0.0397 -0.1647 -0.0984
 5360W        W20829  14.922  13.280   6.008  0.1148  0.1493 -0.1095
 5361W        W20830   4.696   4.278  10.286 -0.0511  0.0725 -0.1391
 5362W        W20831   4.643  10.349  12.218 -0.1850  0.0549 -0.1318
 5363W        W20832   4.173  13.417   1.161  0.1393  0.0479 -0.1006
 5364W        W20833   3.981   7.631   2.873 -0.0253  0.1511  0.2255
 5365W        W20834  15.107  13.929   3.059  0.0346 -0.1967 -0.0066
 5366W        W20835   8.956   9.629  16.020  0.0760 -0.1205 -0.1897
 5367W        W20836  14.272   0.983   3.377 -0.0102  0.0007 -0.2602
 5368W        W20837   5.851  17.901  12.275  0.0330  0.1436 -0.0150
 5369W        W20838   5.267  14.682   1.225  0.1035 -0.0580  0.1221
 5370W        W20839  15.243  10.000   0.427 -0.0508 -0.1329 -0.1178
 5371W        W20840  17.775  17.251  10.900  0.0841 -0.2633  0.0707
 5372W        W20841  13.076   8.512   3.670 -0.1771 -0.3966 -0.1548
 5373W        W20842   8.818  15.627   0.870  0.0011  0.3059  0.1888
 5374W        W20843   1.252  17.203   5.394  0.0558 -0.1946  0.0120
 5375W        W20844  11.394  12.446   3.355  0.0077  0.0695 -0.0226
 5376W        W20845  11.149  17.630  12.459  0.1117 -0.1074 -0.2732
 5377W        W20846  17.874  10.396  13.471 -0.3061  0.0208  0.2084
 5378W        W20847  16.501  15.188   1.363  0.2384  0.2246 -0.1365
 5379W        W20848  14.582   9.026   3.846 -0.0936 -0.0774  0.3336
 5380W        W20849  16.443   5.969  16.271  0.0037 -0.0503 -0.1240
 5381W        W20850   6.964  11.008   3.875 -0.1691  0.1726  0.2253
 5382W        W20851   8.129   2.429  10.553 -0.1692  0.0777  0.2282
 5383W        W20852  11.137  15.593  14.744  0.0893 -0.2826  0.0092
 5384W        W20853   4.487   4.391   3.084 -0.1327 -0.2145  0.2489
 5385W        W20854  11.451  10.980   1.547 -0.0041 -0.0574  0.1870
 5386W        W20855   5.977   1.122   0.076  0.2082  0.0157  0.0014
 5387W        W20856  14.108  10.473  12.808  0.0145 -0.0021  0.0879
 5388W        W20857  12.734  14.997   4.415 -0.2700  0.0794 -0.2460
 5389W        W20858  10.976   1.785   3.278  0.0588  0.0305  0.3917
 5390W        W20859  10.353  13.971   3.770 -0.0621 -0.2049 -0.0733
 5391W        W20860   3.509  10.217  12.180 -0.2727 -0.3441 -0.1675
 5392W        W20861   8.115  13.842  13.413 -0.0730 -0.1804 -0.0653
 5393W        W20862   8.501   7.503   2.723 -0.1291  0.0109 -0.1217
 5394W        W20863  10.166  11.770   4.844 -0.0406  0.2534 -0.2535
 5395W        W20864   6.112   9.856   0.500  0.0709 -0.0244  0.0914
 5396W        W20865  16.338   7.874   9.890 -0.0169 -0.2255 -0.2359
 5397W        W20866  15.715  13.463   0.357 -0.3934  0.1427 -0.3625
 5398W        W20867   7.453  14.566   5.803  0.0138 -0.1999 -0.2020
 5399W        W20868   7.129  12.579  12.804 -0.0860  0.1260 -0.0321
 5400W        W20869   3.766   0.450  12.691  0.1328  0.0524 -0.2632
 5401W        W20870  12.011   3.496   3.215  0.1440  0.1732  0.1516
 5402W        W20871   3.402  15.308   4.894 -0.0109 -0.0090 -0.1873
 5403W        W20872   0.497  17.414   1.914 -0.1419  0.3148  0.1566
 5404W        W20873  10.516  14.808   0.498  0.2965  0.1317  0.1447
 5405W        W20874   0.626   9.292  12.272 -0.1047 -0.1871 -0.0507
 5406W        W20875   9.732   7.794  14.296 -0.0234 -0.1196 -0.0144
 5407W        W20876   3.680   2.537   5.378 -0.0929 -0.1005  0.0717
 5408W        W20877  16.906   1.535  14.533  0.2678  0.0210  0.3287
 5409W        W20878   5.458   4.788   2.822  0.3594  0.1615 -0.0372
 5410W        W20879  16.979  13.805   3.857 -0.0397  0.2365  0.0499
 5411W        W20880  16.380  14.452  13.480 -0.1827  0.0898  0.4129
 5412W        W20881  16.966   4.601  12.631 -0.1119  0.0808  0.2708
 5413W        W20882   2.269   5.247  16.303  0.2906 -0.1760 -0.0004
 5414W        W20883  10.379   5.824  13.545 -0.2795 -0.0339  0.2424
 5415W        W20884   0.487  10.917   0.627  0.0855  0.3498 -0.3278
 5416W        W20885  17.847   4.396   0.880 -0.0047  0.0602 -0.1316
 5417W        W20886  11.675  15.857   2.772 -0.0888 -0.0795 -0.2447
 5418W        W20887  10.545   5.060   5.003 -0.0284 -0.0020  0.2774
 5419W        W20888   0.357   7.668   4.720  0.1201  0.0599  0.0655
 5420W        W20889   8.959  17.611   3.140 -0.1372  0.0944 -0.0296
 5421W        W20890  10.921   8.544   0.113  0.0406  0.1042 -0.2363
 5422W        W20891  11.123   6.831  14.517  0.1613  0.0428  0.0837
 5423W        W20892   5.396   1.845  14.691 -0.1409  0.1799 -0.1709
 5424W        W20893   2.389   4.876   3.156  0.0700  0.2652  0.1592
 5425W        W20894  15.503   6.127  11.149 -0.0208  0.2126 -0.1266
 5426W        W20895   6.759  13.887   2.695 -0.1226 -0.4024  0.1134
 5427W        W20896  13.039  15.360   2.897 -0.2168  0.0011  0.0424
 5428W        W20897   6.389   3.043   4.912 -0.1759  0.0746 -0.0019
 5429W        W20898   4.516   9.839  14.099  0.0346  0.1550  0.2306
 5430W        W20899  10.708  10.069  13.432 -0.0063  0.0865  0.1739
 5431W        W20900   5.082   7.250  14.609  0.2060  0.0624 -0.3091
 5432W        W20901  12.418   5.750  10.620  0.1106 -0.0619  0.1906
 5433W        W20902   1.351   5.480  13.518 -0.3377 -0.5727  0.3110
 5434W        W20903   9.605  16.416  12.162 -0.1276 -0.1961  0.0283
 5435W        W20904   5.465   8.442  14.654 -0.2797 -0.0791 -0.0699
 5436W        W20905  11.887   6.243  10.235 -0.3686  0.0947  0.0478
 5437W        W20906  16.557   2.874  11.699  0.1469  0.1008 -0.1852
 5438W        W20907  18.040   0.203   2.947  0.0307 -0.0265 -0.0017
 5439W        W20908  16.098   4.316  10.937  0.2177  0.3379 -0.0026
 5440W        W20909  12.580   4.299   1.729  0.3421 -0.0973  0.3331
 5441W        W20910   0.012   0.907  13.745  0.0103 -0.3119  0.0912
 5442W        W20911  12.700  17.348  13.030 -0.2381  0.0774  0.0997
 5443W        W20912  11.733  12.525  15.099  0.2658 -0.0569  0.1477
 5444W        W20913   1.915   1.862  15.864  0.0321  0.1048  0.0277
 5445W        W20914   6.234  16.924  11.290 -0.0186 -0.0875  0.0980
 5446W        W20915   5.059   5.653   2.361  0.0856 -0.1410  0.1679
 5447W        W20916   0.386  14.526  15.836  0.1728  0.2612 -0.0686
 5448W        W20917   9.787  17.164   1.958  0.0781  0.1498  0.1562
 5449W        W20918   2.662   3.821   5.648  0.0151 -0.1732  0.1312
 5450W        W20919  14.919  17.641   3.764 -0.0164 -0.1810 -0.0117
 5451W        W20920  11.830   4.504  15.617 -0.1770 -0.1797  0.1326
 5452W        W20921  11.618   5.056   1.400 -0.1730  0.2325 -0.2123
 5453W        W20922   9.104   6.825   5.285 -0.0208  0.2327 -0.1787
 5454W        W20923  14.526   8.571   4.115 -0.3498  0.5459 -0.1258
 5455W        W20924  10.363  12.017   0.684  0.1237  0.1508 -0.1673
 5456W        W20925   7.636   7.892   5.291  0.1005  0.0454  0.0462
 5457W        W20926  11.894   3.741  12.298 -0.1102  0.2437  0.4129
 5458W        W20927   0.333   7.246   3.391  0.1013 -0.0969 -0.1149
 5459W        W20928   5.591  17.580   1.805 -0.0781 -0.3984 -0.1749
 5460W        W20929  15.366   2.081  14.660 -0.2273 -0.2401 -0.0154
 5461W        W20930   9.794  11.318   4.835  0.0510  0.0963 -0.0398
 5462W        W20931  12.694   4.042   2.131 -0.1256 -0.1434 -0.0766
 5463W        W20932   4.484   4.532   4.237 -0.1334  0.2851  0.0641
 5464W        W20933  14.714   0.538  13.286  0.0986 -0.2147  0.2676
 5465W        W20934   1.782   9.790   0.354  0.1092  0.0642  0.0389
 5466W        W20935  15.852  11.828  15.258 -0.1332  0.1100 -0.0465
 5467W        W20936  14.312   5.433  14.484  0.3640 -0.4320 -0.0028
 5468W        W20937  12.100   2.262   4.582 -0.1288 -0.0348 -0.2239
 5469W        W20938  16.907  13.034   3.750  0.2059  0.0118  0.0002
 5470W        W20939  10.369  17.136   2.007 -0.2060 -0.1876 -0.4432
 5471W        W20940   4.560   4.833  13.952 -0.4205  0.1271  0.1346
 5472W        W20941   7.187   4.228  11.947 -0.1790  0.0802 -0.0524
 5473W        W20942   4.480   7.352  14.331 -0.0072  0.0229 -0.3650
 5474W        W20943   7.434  13.461   0.658  0.0380 -0.1205 -0.1760
 5475W        W20944   2.559  13.292  11.436  0.0610 -0.2604 -0.0679
 5476W        W20945   2.980  13.556   1.427  0.0184  0.0950  0.0920
 5477W        W20946   9.353   2.520  14.478  0.0789  0.2682 -0.0695
 5478W        W20947   5.818   1.438   4.286 -0.0227  0.1976  0.0617
 5479W        W20948   6.635   4.806  13.681  0.0948  0.2623  0.2985
 5480W        W20949  15.912  11.204   1.422  0.0633 -0.1127  0.1929
 5481W        W20950   8.437   5.807  12.472 -0.1992 -0.3569 -0.1741
 5482W        W20951  17.518   7.562  15.655  0.1117  0.0064  0.1428
 5483W        W20952   3.585  12.144   5.213 -0.4154  0.0182 -0.1757
 5484W        W20953  15.119   8.573  14.342 -0.0513  0.2161  0.3465
 5485W        W20954  14.510   1.133  10.991 -0.1784  0.1322 -0.2067
 5486W        W20955   3.251  16.050   4.179 -0.2336 -0.0830  0.0160
 5487W        W20956  17.868  12.180   0.390 -0.1938  0.3255  0.1094
 5488W        W20957  14.035  16.166   4.280  0.3025 -0.0550 -0.1668
 5489W        W20958  11.462  15.919  15.735  0.1307 -0.3960 -0.2174
 5490W        W20959   7.961   0.148   3.009  0.0070  0.1116 -0.0808
 5491W        W20960   3.373   5.226   2.105 -0.1421 -0.2851  0.2012
 5492W        W20961   5.359  16.717  11.842 -0.2086  0.0729 -0.3928
 5493W        W20962   2.326  11.814  15.941 -0.0782 -0.0927  0.0244
 5494W        W20963   5.334  14.470   2.959  0.1879 -0.0437  0.0390
 5495W        W20964  16.569   7.881   1.080  0.4626  0.2031  0.1231
 5496W        W20965  13.575   6.189  13.376  0.2207  0.1115 -0.2063
 5497W        W20966   5.654  11.085  14.569 -0.0655  0.3830  0.1976
 5498W        W20967  14.266   2.046   4.227  0.1834 -0.3905 -0.2311
 5499W        W20968   6.874   5.940  14.840 -0.1145 -0.0203  0.0340
 5500W        W20969  10.776  15.039  14.933 -0.3266 -0.6380  0.3533
 5501W        W20970  15.846  12.174   4.558 -0.1826 -0.1251 -0.1506
 5502W        W20971  10.985   9.058   5.658  0.0913  0.1716 -0.2930
 5503W        W20972   0.968   5.154   3.397  0.0659 -0.0254  0.0774
 5504W        W20973  16.122  12.057  13.220  0.0938 -0.4155 -0.2984
 5505W        W20974  15.708   3.300  14.652 -0.1767  0.1175  0.3412
 5506W        W20975   3.421   6.585  14.178 -0.0349  0.1431  0.1224
 5507W        W20976  17.520  17.907  11.289  0.3793  0.0760  0.2277
 5508W        W20977   1.187   2.088  13.543 -0.1054 -0.0201 -0.2025
 5509W        W20978   2.100  16.506   0.529  0.1526  0.0224  0.1037
 5510W        W20979  16.518   7.227   2.769  0.0424  0.0339 -0.1703
 5511W        W20980   3.690   5.848  13.632 -0.2293  0.1243  0.2258
 5512W        W20981  15.831   2.582   2.594  0.2335 -0.0581 -0.0044
 5513W        W20982   1.680  13.176   4.543 -0.1685  0.1938 -0.1054
 5514W        W20983   0.343   1.802  11.325 -0.0951  0.0808 -0.2459
 5515W        W20984   0.185   8.999  15.878 -0.1611  0.0540 -0.1067
 5516W        W20985   5.813  16.758  11.523  0.2424  0.1631 -0.0460
 5517W        W20986  12.311   2.340  15.028 -0.1224  0.1954  0.0413
 5518W        W20987   1.370  12.607   0.607  0.1720  0.1786 -0.0610
 5519W        W20988  10.477   0.335   2.433  0.0692  0.2308  0.4021
 5520W        W20989  14.680  15.068   5.581 -0.3417 -0.1226  0.2214
 5521W        W20990  15.601  10.292   2.970 -0.0225  0.0613 -0.1123
 5522W        W20991   3.151  11.380  11.536  0.1796 -0.3560 -0.1446
 5523W        W20992   7.346  14.810   4.491 -0.1165  0.1853 -0.3345
 5524W        W20993   3.272   4.261   1.282 -0.1224 -0.0537 -0.0435
 5525W        W20994   0.578   7.316   3.867 -0.1697 -0.0426 -0.0423
 5526W        W20995  11.314   7.222  15.961  0.1120 -0.1152  0.2374
 5527W        W20996  13.452   8.009  15.422  0.0566 -0.0935 -0.1354
 5528W        W20997  12.032  14.517   2.351  0.0702 -0.0032  0.2349
 5529W        W20998   2.169   8.961   0.908  0.2714  0.1157 -0.0205
 5530W        W20999  17.342   0.182  14.802 -0.1908 -0.2189 -0.0503
 5531W        W21000  16.571   9.070   6.126  0.2424  0.1316  0.2101
 5532W        W21001   3.766  10.599  11.924 -0.1833  0.1608  0.0709
 5533W        W21002   0.465  18.047  15.022 -0.0915  0.1874 -0.0766
 5534W        W21003  14.085   6.414   3.129 -0.0485 -0.1637  0.2758
 5535W        W21004  15.553  12.586  15.378 -0.0159  0.0303  0.2193
 5536W        W21005   1.987   5.390   3.766 -0.0302  0.1799 -0.3168
 5537W        W21006   7.538   6.100  12.189  0.1269 -0.1183  0.3094
 5538W        W21007   6.246  12.366  13.359  0.1797  0.2335 -0.0058
 5539W        W21008   7.877   8.357   4.563  0.0748  0.2661 -0.2745
 5540W        W21009   4.536  12.996  15.081 -0.0892 -0.1003 -0.3343
 5541W        W21010   1.073   7.837   0.008 -0.0723  0.0304  0.0592
 5542W        W21011   5.990   4.289  15.005 -0.0688 -0.0669 -0.3233
 5543W        W21012  14.781   1.071  10.088 -0.1300  0.4024  0.0216
 5544W        W21013  14.252   6.327   2.042  0.0107 -0.0270 -0.0839
 5545W        W21014   0.107  13.851  11.590  0.4925  0.0433 -0.2523
 5546W        W21015   1.650   0.224  11.295 -0.1477 -0.1923 -0.2143
 5547W        W21016   6.252   6.063   2.477 -0.2105  0.0033 -0.2932
 5548W        W21017  14.766   0.678  14.736 -0.2013  0.2391 -0.0746
 5549W        W21018   6.689   6.706  11.176 -0.0418  0.0690  0.0680
 5550W        W21019   4.901  11.400   3.111 -0.3017 -0.2363 -0.0485
 5551W        W21020   1.506  13.127  13.296 -0.0172  0.0483 -0.2568
 5552W        W21021   0.647  11.547  14.554 -0.0017  0.0466 -0.3524
 5553W        W21022   3.806   4.887  11.685 -0.2903 -0.1193 -0.0203
 5554W        W21023   7.973   6.529  15.371  0.0065 -0.4125  0.2145
 5555W        W21024  14.681  14.933   6.098  0.2836  0.1070  0.3495
 5556W        W21025  14.311   2.042  14.055 -0.1676  0.0624 -0.1348
 5557W        W21026   5.588  11.911  11.964 -0.1592 -0.0973  0.1255
 5558W        W21027   7.961   5.743  14.591  0.0067 -0.0697 -0.0108
 5559W        W21028  17.032   9.936   4.804 -0.0619  0.0540  0.0174
 5560W        W21029   6.339  17.027   0.262 -0.2749  0.0460  0.1180
 5561W        W21030   9.487   1.328   1.165  0.2233 -0.0810  0.1551
 5562W        W21031  10.657  15.249  11.950 -0.1833  0.1457 -0.0699
 5563W        W21032  13.731  14.168   5.318 -0.1444 -0.2670 -0.2267
 5564W        W21033  17.874   3.899   5.473  0.0005 -0.1575 -0.2538
 5565W        W21034  11.816   0.346   0.426 -0.0401  0.0349  0.2600
 5566W        W21035  12.533   6.695   3.284 -0.6118 -0.0947  0.0601
 5567W        W21036  11.427  11.312   4.774 -0.1486  0.0787  0.0324
 5568W        W21037   9.868  12.959   3.702 -0.1804  0.1937  0.2195
 5569W        W21038  18.052   6.645   0.772  0.1019  0.1382 -0.0081
 5570W        W21039  17.361  17.192  15.777 -0.0086  0.0724 -0.0422
 5571W        W21040  16.789   4.297  15.123  0.0634 -0.0044 -0.3319
 5572W        W21041  10.171  15.199   0.494  0.1030  0.0110 -0.2166
 5573W        W21042   5.140   0.743   1.657  0.1036 -0.1078 -0.0875
 5574W        W21043   4.877  11.640   3.981 -0.2505  0.4250 -0.0362
 5575W        W21044  11.604   8.424  16.060  0.0146  0.4491  0.1417
 5576W        W21045  11.521   0.128  11.400 -0.0409  0.1171 -0.2180
 5577W        W21046   6.822   1.503  13.180  0.1583  0.0985  0.0264
 5578W        W21047   7.490   2.921  14.233 -0.0276 -0.1808 -0.0298
 5579W        W21048   0.296   8.130   1.668 -0.0224  0.0410 -0.0293
 5580W        W21049   8.173   2.636  12.136  0.2665  0.2609  0.0784
 5581W        W21050  13.309  11.105   5.899  0.3161 -0.1573  0.2010
 5582W        W21051   0.293  16.738  11.510 -0.1951  0.0150 -0.0088
 5583W        W21052  15.344   6.561  13.398 -0.3562  0.0308 -0.2436
 5584W        W21053  10.665   5.022   0.360  0.0827 -0.2345 -0.0964
 5585W        W21054  11.115   9.900   1.584 -0.1966  0.0610 -0.1311
 5586W        W21055   7.881  17.415   0.465  0.0676 -0.4343  0.0850
 5587W        W21056   3.555   9.322  15.077  0.0928  0.1014  0.1107
 5588W        W21057   2.290  15.394  12.565 -0.2565  0.1523  0.0164
 5589W        W21058   6.937  14.441   5.725  0.0532  0.3832  0.2078
 5590W        W21059   4.584  15.841  13.975  0.0268 -0.2657  0.3671
 5591W        W21060   5.268   5.758   0.599 -0.0417  0.0207  0.1586
 5592W        W21061   4.758  12.199  13.640 -0.0802 -0.1080  0.1707
 5593W        W21062  16.892   5.258  15.283  0.0546  0.1538  0.2410
 5594W        W21063   5.044  10.231   4.771  0.0063  0.0012 -0.1368
 5595W        W21064  17.439  15.523   1.758 -0.0877  0.1206  0.0191
 5596W        W21065  10.043   4.532   5.196 -0.3837  0.0629  0.2324
 5597W        W21066   2.708   2.728  15.421  0.0478 -0.0150  0.0113
 5598W        W21067   0.843   6.368   0.541 -0.0539  0.3211 -0.2560
 5599W        W21068  14.617  15.303   3.729 -0.1102 -0.0886 -0.0496
 5600W        W21069  16.708  15.695  13.568  0.1230 -0.1424 -0.0996
 5601W        W21070  12.544   6.074  11.013  0.1644  0.0644 -0.1033
 5602W        W21071  15.526  13.749   4.651 -0.0384  0.0275 -0.1467
 5603W        W21072   1.737   7.390  11.070  0.0528  0.4076 -0.0268
 5604W        W21073   5.802   4.401   1.985  0.1357 -0.0630 -0.1355
 5605W        W21074   4.327   7.839  15.249 -0.3679  0.0302 -0.1567
 5606W        W21075   1.196  15.155  13.056  0.0411 -0.2099 -0.0465
 5607W        W21076   8.185  13.831  12.078 -0.1085  0.4104  0.0754
 5608W        W21077  13.972  11.546   3.290 -0.2161 -0.0108 -0.2467
 5609W        W21078  11.140  17.201   0.991  0.1545  0.0849  0.1094
 5610W        W21079   2.389  10.829   4.723  0.0926  0.0874  0.0446
 5611W        W21080  13.462   9.097   1.541  0.0091  0.0387 -0.0195
 5612W        W21081  12.086  13.461  15.269 -0.2038  0.0907 -0.2363
 5613W        W21082   8.723   7.200   0.029  0.1084 -0.1358 -0.0735
 5614W        W21083  13.056  12.623   3.085  0.0106  0.3876  0.2866
 5615W        W21084  10.250  13.186  10.683  0.1391 -0.0772  0.0717
 5616W        W21085  16.830   7.700  16.115  0.0246  0.1723 -0.0299
 5617W        W21086  13.669   6.327  14.831  0.0086  0.1015  0.2629
 5618W        W21087   5.965  14.692   2.899  0.2574 -0.1493 -0.0845
 5619W        W21088   6.241  14.780  15.268  0.0338 -0.0597  0.2698
 5620W        W21089  13.941  15.763  11.930 -0.0598 -0.1059  0.0478
 5621W        W21090  14.827   5.739   4.387  0.2835 -0.1064 -0.4323
 5622W        W21091   2.341   9.196  14.093 -0.0631  0.1866  0.0686
 5623W        W21092  13.140   5.612  12.924 -0.0889  0.1644  0.0985
 5624W        W21093   1.813   0.329   1.083 -0.3310  0.0085 -0.0281
 5625W        W21094  11.344  14.551  12.234 -0.0625  0.2770 -0.0990
 5626W        W21095  13.784  15.804   4.066  0.1093  0.0244 -0.0399
 5627W        W21096  11.165   8.447   3.753 -0.2116  0.1285 -0.2591
 5628W        W21097   4.620  16.611  13.378  0.1427  0.0729 -0.0724
 5629W        W21098   9.180  12.183  15.150 -0.1859  0.0305 -0.0242
 5630W        W21099   0.723   0.609   0.083  0.0693  0.1990 -0.2987
 5631W        W21100   4.502  16.306   2.378 -0.0882 -0.0206  0.0737
 5632W        W21101   0.357   5.610   4.902  0.0623 -0.2348 -0.4824
 5633W        W21102   1.096   3.460  12.932  0.1358  0.1111  0.2552
 5634W        W21103   4.999   1.735   0.852 -0.0809  0.1447 -0.0440
 5635W        W21104   1.184  10.728   3.742 -0.0429  0.2564  0.1499
 5636W        W21105  11.590  13.466  11.388 -0.0654 -0.0526  0.1626
 5637W        W21106   7.644   7.871   1.843  0.4232 -0.1788 -0.0082
 5638W        W21107  14.007  12.960  13.150  0.1395 -0.3274  0.0920
 5639W        W21108   7.852  11.018  10.894  0.1014 -0.0698  0.1615
 5640W        W21109   2.910  12.550   4.485  0.0260 -0.1549 -0.0343
 5641W        W21110  12.412   2.042  12.746  0.1613 -0.1048  0.0670
 5642W        W21111  12.242  13.177  10.830  0.0301  0.4138  0.1504
 5643W        W21112   6.741  17.778   5.278 -0.0619 -0.0324 -0.0201
 5644W        W21113   6.191   3.146  12.654  0.0472 -0.1728 -0.2482
 5645W        W21114  15.470   9.489  15.432  0.2579 -0.0422  0.1285
 5646W        W21115  11.467  15.366   2.854 -0.1961 -0.0560  0.0330
 5647W        W21116   6.997  14.396  10.666  0.0900 -0.0697  0.0062
 5648W        W21117   0.758   9.691  14.179  0.4290  0.2814  0.0679
 5649W        W21118   3.971   6.132  14.017 -0.2750  0.0500  0.1360
 5650W        W21119  15.599   6.480   2.011 -0.0070  0.1396  0.1688
 5651W        W21120  17.331   1.775  12.787 -0.1207 -0.0108 -0.0228
 5652W        W21121   7.910   4.065   2.694 -0.1832 -0.0484  0.0860
 5653W        W21122  11.248  13.875  13.331  0.0550 -0.2834  0.0028
 5654W        W21123   8.638   0.376  15.331  0.1963  0.0897  0.0617
 5655W        W21124  17.052   6.560   5.381 -0.4574 -0.1989  0.0987
 5656W        W21125  17.021   2.135  15.754  0.0547  0.2686 -0.1242
 5657W        W21126  17.498  15.840   0.381 -0.4682  0.0760 -0.1063
 5658W        W21127   7.888   4.490   3.937 -0.1872  0.2486 -0.1698
 5659W        W21128  16.883   4.510   4.027 -0.0699  0.1011 -0.1047
 5660W        W21129   1.185   3.537   3.648  0.0267 -0.0202 -0.0155
 5661W        W21130   7.089  13.576  12.769  0.1910  0.1282  0.0085
 5662W        W21131   8.249   6.832   2.107  0.0836  0.0922 -0.2112
 5663W        W21132   4.622  12.989   4.243 -0.1638 -0.1150 -0.0939
 5664W        W21133  17.677  15.527  11.598  0.0826 -0.0646 -0.1382
 5665W        W21134   0.549  11.369  14.988  0.1061 -0.1242 -0.2716
 5666W        W21135   6.030   4.057  15.556 -0.0123  0.0342  0.3724
 5667W        W21136   7.984   3.693  16.187  0.2070 -0.0136  0.2171
 5668W        W21137  13.139   8.957   4.894  0.1176 -0.2776 -0.1223
 5669W        W21138  17.283  12.714  14.407  0.1200 -0.1588  0.1427
 5670W        W21139  14.376   8.573   0.617 -0.0996 -0.2203  0.0015
 5671W        W21140  15.515   8.236   3.949 -0.0332 -0.2629  0.2105
 5672W        W21141  17.376   6.993   3.953  0.0755 -0.1097  0.0363
 5673W        W21142  17.298  13.056   1.261  0.1174  0.1974 -0.3655
 5674W        W21143   9.752  16.798   4.756  0.1033  0.1028 -0.3626
 5675W        W21144   9.979  14.861  14.005 -0.2424  0.1201  0.1030
 5676W        W21145   7.224  10.814   0.218  0.1012  0.1703  0.3228
 5677W        W21146   0.233   9.391  11.377  0.1315  0.0860  0.0598
 5678W        W21147   0.007  17.782  11.395 -0.1000  0.1131  0.0705
 5679W        W21148   6.015  12.474   1.245 -0.2347  0.1408  0.0933
 5680W        W21149   8.988  15.978  11.534 -0.0509 -0.2913  0.0736
 5681W        W21150   0.206   7.261  13.686 -0.0108 -0.2140 -0.0664
 5682W        W21151  11.016  16.006   1.124  0.0878  0.0259 -0.0603
 5683W        W21152   1.928   7.145  13.015 -0.0740  0.1622 -0.3590
 5684W        W21153   5.360   2.809  14.104 -0.1677  0.1529  0.1486
 5685W        W21154   6.729   5.560  12.479 -0.1778  0.0213 -0.0885
 5686W        W21155  17.939   2.493  13.109 -0.1878  0.0648  0.1378
 5687W        W21156   9.959  16.227   2.253 -0.2451  0.0293  0.0280
 5688W        W21157  15.554  14.517  15.332 -0.1734 -0.0505  0.0321
 5689W        W21158  10.250  10.417   4.816  0.1163  0.0939 -0.1142
 5690W        W21159  13.827   4.724   5.905  0.0266 -0.2561 -0.2043
 5691W        W21160   7.325  11.408   3.949 -0.1783 -0.2077 -0.0391
 5692W        W21161   6.257  10.624   4.228 -0.0575 -0.0278 -0.1364
 5693W        W21162   0.543  13.139  12.121  0.0435 -0.1795 -0.1433
 5694W        W21163   6.797  12.435   1.707 -0.1495  0.0843 -0.1514
 5695W        W21164  10.086   6.304   2.897  0.1386 -0.0338 -0.1200
 5696W        W21165  15.279  11.316   0.134 -0.1044 -0.2653  0.1155
 5697W        W21166  14.951  16.405  12.561  0.2787  0.0582  0.2491
 5698W        W21167  11.531  18.056  12.227 -0.1915 -0.3087 -0.3016
 5699W        W21168   2.450   9.194   0.642  0.0489  0.2926  0.0743
 5700W        W21169   6.427   7.527  11.426 -0.1719  0.2977 -0.1046
 5701W        W21170   9.659  10.750  13.261  0.1116 -0.1748  0.0769
 5702W        W21171   5.485  16.329  15.528  0.0727 -0.1160 -0.3191
 5703W        W21172  17.381   4.869  11.431  0.1754  0.0291  0.1874
 5704W        W21173  14.842  10.650   2.813 -0.2272 -0.1997 -0.2118
 5705W        W21174   9.699   2.852  14.308 -0.0423 -0.1848 -0.1876
 5706W        W21175   6.059  10.655   3.765  0.0433 -0.0323  0.1201
 5707W        W21176   6.073   5.252   6.044  0.1202 -0.0542 -0.2016
 5708W        W21177  16.405  17.225   3.321  0.1355 -0.0118  0.0776
 5709W        W21178  15.615   9.928  14.287 -0.3119  0.0657 -0.2328
 5710W        W21179   8.380  15.385  11.137  0.0226  0.0717  0.0220
 5711W        W21180   7.176  13.231  10.066 -0.0886 -0.3690  0.2359
 5712W        W21181  12.755   2.594  15.379  0.1508  0.1204  0.1409
 5713W        W21182   5.258   0.219   4.469  0.2429  0.2342  0.0259
 5714W        W21183   3.651   5.907  11.778  0.0238 -0.0983 -0.2179
 5715W        W21184   1.587  10.754  13.695  0.0134  0.1648  0.1577
 5716W        W21185  14.039   1.197   5.131 -0.2173 -0.0455 -0.0391
 5717W        W21186  14.079  17.207  15.862 -0.2764 -0.0532 -0.0372
 5718W        W21187   1.431  10.621   5.240 -0.1107 -0.2111 -0.0391
 5719W        W21188  15.242   2.435  15.644 -0.1294 -0.5863 -0.0670
 5720W        W21189   5.009  12.300   3.539  0.0813  0.1302  0.1141
 5721W        W21190   1.279   0.118  10.978  0.1077 -0.0153  0.3092
 5722W        W21191  16.852  17.377  15.721 -0.1935 -0.4022  0.0382
 5723W        W21192  13.617  16.236  14.617 -0.2410  0.2165  0.0512
 5724W        W21193   6.633  13.523  15.019  0.2248 -0.1524  0.3664
 5725W        W21194   4.024  17.222   3.475  0.0835  0.2958 -0.1377
 5726W        W21195  11.593   5.213  12.854 -0.0485 -0.0323  0.2675
 5727W        W21196   7.103  12.795  13.676 -0.2969  0.0691  0.0309
 5728W        W21197   6.248  14.776   2.055 -0.0683  0.0440  0.1144
 5729W        W21198   0.759   1.086   4.721  0.1619 -0.1033  0.0903
 5730W        W21199  15.345   9.402  11.907 -0.3078  0.2230 -0.0071
 5731W        W21200  10.718  15.425   3.559  0.0428  0.0344 -0.0977
 5732W        W21201  15.416   6.439  13.984  0.0158  0.0675 -0.2834
 5733W        W21202  16.315   0.880   5.281  0.2913  0.1037 -0.1213
 5734W        W21203   3.801   0.040  13.882  0.2600  0.1093  0.6296
 5735W        W21204  11.161   4.272  15.643 -0.4831 -0.0555 -0.0530
 5736W        W21205  15.672   1.254   2.613  0.1775 -0.0038  0.2948
 5737W        W21206   6.238  17.957   0.541 -0.1527 -0.1890 -0.2499
 5738W        W21207  14.244  14.004  13.961  0.0432 -0.1195 -0.1502
 5739W        W21208   7.394   7.602  14.721 -0.2889 -0.0345  0.1364
 5740W        W21209   6.500   1.090  10.601 -0.1920 -0.2429  0.0911
 5741W        W21210  11.828  14.737  14.177  0.0624  0.1355 -0.3503
 5742W        W21211  11.002  11.832   2.315  0.0218 -0.1649  0.3198
 5743W        W21212  15.879   5.574   3.664  0.0787  0.3038 -0.1035
 5744W        W21213  16.860  10.323   2.349 -0.0238 -0.2024  0.2158
 5745W        W21214  15.254   7.459   4.264  0.3511 -0.1116 -0.2061
 5746W        W21215   1.596  16.347   1.602 -0.2863 -0.0355 -0.3007
 5747W        W21216  11.847   5.378  15.685 -0.4385 -0.0543  0.1016
 5748W        W21217   0.359  16.762  13.800 -0.1948  0.1389 -0.1561
 5749W        W21218  17.545   6.455   2.684 -0.0894  0.0120  0.1569
 5750W        W21219  15.452   8.965   3.057  0.1080  0.1329 -0.0345
 5751W        W21220   7.556   5.216   5.613  0.0613  0.2048  0.1793
 5752W        W21221  14.289  12.583   0.809  0.1027 -0.0536 -0.2092
 5753W        W21222   2.816   3.606  11.001  0.0667  0.1957 -0.3476
 5754W        W21223  16.309  12.750  15.443 -0.1010  0.0759 -0.1262
 5755W        W21224   9.676  15.020  12.536  0.0801  0.1221 -0.2023
 5756W        W21225   9.448   4.248   1.945 -0.0208  0.1880  0.2712
 5757W        W21226   1.660  16.839  15.403 -0.1834  0.1085 -0.1822
 5758W        W21227  15.142  17.114   0.884 -0.1049  0.2068 -0.2028
 5759W        W21228   6.790   7.107   3.814 -0.2786  0.3231  0.1475
 5760W        W21229  13.808  17.098  11.566 -0.0645  0.2831  0.2268
 5761W        W21230   2.673   1.386  12.695  0.1992  0.1283 -0.0087
 5762W        W21231  16.745   4.462   5.014  0.0466  0.1073  0.1556
 5763W        W21232   1.632   5.435   5.760  0.2251  0.1532  0.1753
 5764W        W21233   0.124  15.336  12.958 -0.2631  0.3048  0.2366
 5765W        W21234  12.321   3.293  15.105  0.0573  0.0049  0.4293
 5766W        W21235  16.403  14.153   1.156  0.1085  0.0907  0.1262
 5767W        W21236  15.855  14.587   2.280  0.5086  0.2902 -0.1141
 5768W        W21237   9.607  16.536   2.765  0.1400 -0.4072 -0.2364
 5769W        W21238   2.170  10.133   2.378 -0.0165  0.0033 -0.2175
 5770W        W21239  10.189  13.103  13.518  0.0454  0.3303  0.0968
 5771W        W21240  15.650  11.621   0.272 -0.0865  0.1322  0.0515
 5772W        W21241  15.456   2.112   2.718  0.3410 -0.0217 -0.0041
 5773W        W21242  16.562   5.062  14.769  0.3904 -0.3772  0.1551
 5774W        W21243  11.589   1.530  12.922 -0.0347  0.0762  0.2011
 5775W        W21244   2.533  15.463   2.484  0.0818  0.0046 -0.3105
 5776W        W21245   6.249   9.698   3.564 -0.1161 -0.3930 -0.1386
 5777W        W21246   3.304  15.118   2.940  0.1247  0.3472 -0.1297
 5778W        W21247  15.707  14.001   3.595  0.1542 -0.2743 -0.3403
 5779W        W21248  17.358  11.717  11.031  0.0920 -0.2092  0.0492
 5780W        W21249   7.180   7.729  14.290  0.0347  0.0067  0.1246
 5781W        W21250   0.762   9.735   3.834 -0.0960  0.2781  0.2384
 5782W        W21251   5.253  16.662   4.217  0.0274 -0.0577  0.1071
 5783W        W21252   4.381   9.745   2.641  0.0184  0.0657  0.2781
 5784W        W21253   7.215   1.705   5.132  0.2411  0.2548 -0.1153
 5785W        W21254   8.643  11.432   0.575  0.0520 -0.2020  0.1091
 5786W        W21255  14.136  16.576   2.511 -0.3541  0.1549 -0.2351
 5787W        W21256   4.418  13.498  14.871  0.3695 -0.0129 -0.3351
 5788W        W21257   0.584   0.897   2.384 -0.2901  0.2350  0.3076
 5789W        W21258  17.257  11.159   1.959  0.0096 -0.0680 -0.0138
 5790W        W21259  10.717   5.777  11.449 -0.0314 -0.0360 -0.0376
 5791W        W21260  16.431   9.144  12.578 -0.2170  0.0069 -0.0258
 5792W        W21261  11.327  14.617   1.500  0.0531  0.0328  0.0875
 5793W        W21262   2.063  15.349   4.764  0.2124 -0.1045  0.2320
 5794W        W21263   1.610  16.014  13.840  0.2889  0.0464  0.0710
 5795W        W21264   8.580  18.084   1.936 -0.0898 -0.5283  0.0865
 5796W        W21265   7.879  17.638  11.270 -0.1171 -0.1369 -0.3850
 5797W        W21266   5.621  17.379   3.763  0.2805  0.1130 -0.0757
 5798W        W21267  13.051  13.639   2.534  0.0633  0.1403  0.1098
 5799W        W21268   0.396   7.326  10.389  0.2079  0.0613  0.3348
 5800W        W21269   9.013  12.779  11.329 -0.0316  0.0728 -0.2980
 5801W        W21270   8.050   5.833   5.002 -0.0855  0.1156 -0.4324
 5802W        W21271  15.387   3.141  14.972 -0.4682 -0.2005 -0.0713
 5803W        W21272   4.307   4.361   5.722  0.0283  0.1105  0.1720
 5804W        W21273   8.155   8.257  11.988 -0.1484 -0.0852  0.1885
 5805W        W21274   5.829  13.945  13.560 -0.0012 -0.4372 -0.2469
 5806W        W21275   3.502   9.993   1.199  0.0024 -0.1567  0.1435
 5807W        W21276   8.488   0.306   4.021 -0.1398 -0.2550  0.0413
 5808W        W21277  16.124  13.846  11.851  0.2133 -0.2261 -0.0385
 5809W        W21278   6.504   5.445   0.261 -0.1079  0.0573 -0.1860
 5810W        W21279   9.676  14.058   5.410 -0.1119  0.1211 -0.1116
 5811W        W21280  14.481   7.836  16.235 -0.2337 -0.0923  0.0456
 5812W        W21281  14.104   2.362  14.415  0.0613  0.0921  0.1398
 5813W        W21282   7.825  17.241  13.734 -0.2394  0.1483 -0.0426
 5814W        W21283  16.553   3.063   3.302 -0.1448 -0.1169 -0.1217
 5815W        W21284  16.951   2.641  12.947  0.0915  0.0045  0.1688
 5816W        W21285  15.156  16.798  12.925  0.4434  0.0449  0.0585
 5817W        W21286  10.598  13.778  16.214 -0.0858 -0.0718 -0.0494
 5818W        W21287  11.452   8.598  15.436  0.0735  0.1271  0.2167
 5819W        W21288  13.263   0.694   1.526 -0.3647 -0.0101  0.1558
 5820W        W21289  11.933   1.806  12.710  0.2363 -0.1608 -0.3876
 5821W        W21290   5.218   3.107   5.411  0.0102  0.1903 -0.1306
 5822W        W21291   5.263   3.213   5.965  0.0892 -0.0683 -0.2505
 5823W        W21292  12.593   7.766   4.886  0.0311  0.1642 -0.1455
 5824W        W21293   7.815  17.741  10.751  0.5033  0.0276 -0.2435
 5825W        W21294   3.852  17.055  13.243  0.4165 -0.0470  0.4719
 5826W        W21295   6.839   4.784  12.868  0.1931 -0.1315  0.1176
 5827W        W21296  17.708  12.521  10.595  0.0385 -0.0499  0.0567
 5828W        W21297  17.546   4.533  12.632  0.0667  0.1184  0.1343
 5829W        W21298   6.558   4.058   3.054  0.0945 -0.1540  0.4979
 5830W        W21299   0.875   3.755  12.540 -0.1130 -0.0889 -0.0632
 5831W        W21300   5.280  14.487  13.190  0.0445  0.3709 -0.3826
 5832W        W21301  15.541   9.270   0.704 -0.0711 -0.0847 -0.1971
 5833W        W21302   2.698  11.174   1.673  0.3438  0.2773 -0.3087
 5834W        W21303   5.534  10.782  15.640  0.1592  0.0096  0.1133
 5835W        W21304   1.634  13.690   5.299  0.1302  0.1683  0.1197
 5836W        W21305   4.528  13.756   3.690  0.0393 -0.1762 -0.1096
 5837W        W21306   4.661   5.259   4.413 -0.0438 -0.0022 -0.3941
 5838W        W21307  13.138  17.291   2.084 -0.0583  0.2005 -0.0713
 5839W        W21308  12.068   3.224   4.170  0.2456 -0.0666 -0.1320
 5840W        W21309   8.444   7.724   0.020 -0.0585  0.0078 -0.3454
 5841W        W21310  13.551   9.799   3.679 -0.2271  0.2843  0.2437
 5842W        W21311   5.146  15.649   5.176 -0.0710 -0.2916 -0.2725
 5843W        W21312   8.323  16.671  14.251 -0.1559  0.1045  0.0284
 5844W        W21313  17.482   2.806  12.044 -0.1985  0.1653 -0.4753
 5845W        W21314   5.755  10.462  15.181 -0.0946  0.0802  0.3549
 5846W        W21315   6.493   8.462  11.796  0.0295  0.1570 -0.0082
 5847W        W21316   8.329  16.968   1.991  0.1472 -0.3018  0.0130
 5848W        W21317  13.658   8.455   4.422 -0.0617  0.1256 -0.3373
 5849W        W21318  15.859   8.756   3.268 -0.5089  0.2385  0.0980
 5850W        W21319   8.302  17.249   3.908  0.1817  0.1159 -0.1756
 5851W        W21320   0.158  12.391  10.708 -0.1575 -0.4003 -0.1578
 5852W        W21321  13.562   6.311   0.662 -0.2082  0.1056  0.2728
 5853W        W21322   1.048  13.374  13.284 -0.0611  0.0870 -0.1083
 5854W        W21323   3.997   9.974  14.118 -0.1834  0.0482 -0.0462
 5855W        W21324   9.171   6.345   1.565  0.0991  0.1137 -0.0500
 5856W        W21325  13.372   8.753   5.587 -0.0430  0.1244 -0.2957
 5857W        W21326   5.942   3.671  13.926 -0.3223  0.1302 -0.1920
 5858W        W21327   6.974  17.420  12.734  0.2549 -0.1128 -0.2929
 5859W        W21328  14.183   3.609  14.024  0.0328  0.3248 -0.0062
 5860W        W21329  15.056  16.354  15.722  0.1785  0.0463 -0.0079
 5861W        W21330   8.377   0.266  12.359  0.0910  0.4092 -0.0985
 5862W        W21331  15.417   1.390   1.640 -0.2191  0.1082  0.1943
 5863W        W21332  10.678  16.616  15.350  0.0987  0.2399  0.1082
 5864W        W21333  15.313  16.127  16.135  0.1816 -0.1244  0.1549
 5865W        W21334  17.788   4.271   4.063 -0.0779 -0.1409 -0.2982
 5866W        W21335   2.677   0.895  11.948  0.0710 -0.0261  0.1391
 5867W        W21336  10.982   9.840   6.352 -0.0380  0.0418 -0.5349
 5868W        W21337  12.991  10.503  12.637 -0.0621 -0.2359  0.1686
 5869W        W21338  15.945   1.608  10.949 -0.2344 -0.1860  0.0341
 5870W        W21339   3.975  11.806   1.245  0.2594  0.1793  0.3220
 5871W        W21340  18.083   2.442   3.487  0.0733  0.1542  0.1617
 5872W        W21341  12.739   8.919   2.102  0.1648 -0.1153 -0.0567
 5873W        W21342  15.150  11.824   0.058 -0.4260 -0.3501 -0.2321
 5874W        W21343   9.272  13.980  13.988 -0.0430 -0.1080  0.2437
 5875W        W21344  17.266   6.357  15.859 -0.0516  0.0524  0.0677
 5876W        W21345   6.863  13.542  13.269 -0.0772 -0.0594  0.3008
 5877W        W21346  17.523   2.195  15.858  0.1839 -0.1034  0.2612
 5878W        W21347  14.852  15.570  13.280  0.0405 -0.1006  0.3540
 5879W        W21348  13.147  14.500  11.189 -0.0271  0.1433  0.0301
 5880W        W21349  10.280  11.512  15.356  0.1739  0.0009 -0.0290
 5881W        W21350   4.770   4.513   2.066 -0.3079  0.1190 -0.4093
 5882W        W21351  11.776  17.700   2.049 -0.1784  0.0586  0.0702
 5883W        W21352   9.079   4.436   1.618 -0.1144  0.0551  0.4352
 5884W        W21353   5.989   8.436  15.195 -0.0062 -0.1377 -0.0387
 5885W        W21354   6.464   2.343  16.219  0.4536 -0.2346  0.2591
 5886W        W21355   4.022   3.223   5.034 -0.1226 -0.1856 -0.2173
 5887W        W21356   8.816  14.095  15.833 -0.0813  0.1313  0.0391
 5888W        W21357   4.468   6.447  13.786  0.1270  0.1172 -0.1888
 5889W        W21358   8.295   9.293   4.196  0.1586  0.2710 -0.0602
 5890W        W21359   4.474   6.013   2.311  0.0533 -0.1132  0.0874
 5891W        W21360  13.723   4.824   4.068 -0.1473 -0.2440  0.0634
 5892W        W21361   1.869   1.331   2.867  0.2426 -0.2645  0.2100
 5893W        W21362  13.864  14.660   0.315 -0.2031 -0.3413  0.0829
 5894W        W21363  13.120  11.644  12.783  0.0208  0.0568  0.1256
 5895W        W21364  16.108   9.014   1.549  0.1124 -0.0163 -0.2624
 5896W        W21365   8.584   3.894   4.766 -0.1626  0.0423  0.0468
 5897W        W21366   9.276   9.385  10.416  0.0831  0.0652 -0.0204
 5898W        W21367  10.948   3.137  15.419  0.0505  0.3104 -0.1654
 5899W        W21368   5.528  12.382  12.288 -0.0237 -0.1457  0.2564
 5900W        W21369   1.917   0.663   0.094  0.0065  0.1224 -0.0789
 5901W        W21370   6.056   8.589  13.220  0.1571  0.0333 -0.0175
 5902W        W21371  10.906   3.948   4.702  0.0819 -0.3909 -0.0010
 5903W        W21372   9.930  16.745  12.669 -0.1812 -0.0163 -0.0333
 5904W        W21373   5.927  17.732   5.028  0.0125  0.1667 -0.1396
 5905W        W21374   0.279   3.598   1.337  0.1100  0.2135  0.2299
 5906W        W21375   0.982  18.039   3.681 -0.0593  0.0564 -0.3602
 5907W        W21376  10.613  17.757   1.549  0.1602 -0.2116 -0.2479
 5908W        W21377  16.822  15.123   0.056  0.0146 -0.0640  0.1910
 5909W        W21378  14.833  15.968  14.660 -0.0550  0.2336 -0.1783
 5910W        W21379  17.078  12.131   1.529 -0.2990  0.1447 -0.1353
 5911W        W21380  15.504   7.583  14.841 -0.2267 -0.3018 -0.1250
 5912W        W21381  12.862   6.805  14.501  0.1977  0.0154 -0.1076
 5913W        W21382   8.328  17.836   0.556  0.1190 -0.3298 -0.0279
 5914W        W21383   9.597   6.987  16.311 -0.1355  0.1999  0.1390
 5915W        W21384   7.355   3.981  12.796 -0.2528  0.0666  0.0309
 5916W        W21385   6.810   6.878   0.407  0.0297 -0.1351 -0.2176
 5917W        W21386   9.910   9.936  13.006  0.0957 -0.3378  0.0578
 5918W        W21387  14.783   8.114  14.807  0.2089  0.0500  0.0122
 5919W        W21388   5.671  13.954  14.081 -0.3959  0.1057 -0.1025
 5920W        W21389   5.092  11.313   3.565 -0.0062 -0.2368  0.1536
 5921W        W21390  14.160   9.661  15.937 -0.3434  0.0175 -0.0495
 5922W        W21391   4.871  13.686  12.902 -0.2379 -0.2122 -0.3423
 5923W        W21392   3.911   8.444  11.654 -0.1261  0.0445 -0.1422
 5924W        W21393   0.090   5.769   4.524  0.1371  0.4008  0.1677
 5925W        W21394  17.137   2.484   5.055 -0.2766  0.1407 -0.1229
 5926W        W21395   9.175   7.189  13.326  0.0046  0.2006  0.0610
 5927W        W21396   4.839  10.783  15.981 -0.0906  0.0105 -0.0562
 5928W        W21397   4.961   9.353  14.089 -0.2297  0.0251 -0.4373
 5929W        W21398  17.036  10.581  12.030 -0.1057 -0.0454  0.0856
 5930W        W21399   4.087  17.773  14.983  0.1942  0.2306  0.0640
 5931W        W21400  13.159  17.091  14.806  0.1868  0.0639  0.0088
 5932W        W21401  15.682  10.401   4.002 -0.1798  0.1562  0.0535
 5933W        W21402   4.549  16.072  14.434  0.1714 -0.1960 -0.1001
 5934W        W21403  16.058  10.750   3.774 -0.2222  0.1416  0.0275
 5935W        W21404   0.960   4.916  12.094  0.1008  0.2012  0.1627
 5936W        W21405   4.058  13.270  15.113  0.1067  0.1185 -0.1207
 5937W        W21406   5.997  12.706  11.030 -0.1596  0.3474  0.1304
 5938W        W21407  14.249  13.319  11.873  0.0790 -0.2726  0.0058
 5939W        W21408   6.027   1.681   3.894  0.3266  0.2579 -0.1025
 5940W        W21409  15.624   4.638   2.238  0.0855  0.3417 -0.1383
 5941W        W21410  14.590   7.199   0.969 -0.3686 -0.1804  0.0150
 5942W        W21411  13.843  13.310  15.383  0.0797 -0.0724 -0.0280
 5943W        W21412   6.213   7.060   5.819  0.2399 -0.1045 -0.0437
 5944W        W21413   0.686  12.621  13.401 -0.1743 -0.3473 -0.0734
 5945W        W21414   9.009   5.210  13.760  0.4768 -0.0148 -0.0196
 5946W        W21415   7.918  16.003   1.354  0.2052 -0.1719  0.0784
 5947W        W21416  17.616   5.133   5.256  0.1783 -0.0372 -0.1676
 5948W        W21417  10.620   9.253  16.062  0.0463  0.1074  0.2640
 5949W        W21418   6.770  11.450  14.821 -0.0456  0.0660 -0.1797
 5950W        W21419  17.512  13.090  12.615 -0.1178  0.1712 -0.2932
 5951W        W21420  15.158   8.218   1.891  0.0028  0.2032 -0.0161
 5952W        W21421  13.747   6.063  15.260 -0.1984  0.1638 -0.2214
 5953W        W21422  14.452  15.994  10.579 -0.2938  0.1372 -0.1241
 5954W        W21423   8.006   9.782  15.360 -0.0841 -0.4251  0.1007
 5955W        W21424   7.440  13.524  15.361 -0.0474  0.2241  0.1066
 5956W        W21425   9.312   5.082   4.968  0.0396 -0.1000  0.0198
 5957W        W21426   6.860   0.545   5.583 -0.0070 -0.1148  0.4074
 5958W        W21427  13.284   7.603  12.588 -0.0681  0.1455  0.2196
 5959W        W21428   0.330  11.783   5.182  0.1374 -0.0374 -0.0364
 5960W        W21429   1.417  12.936   4.975 -0.0911 -0.2206  0.1123
 5961W        W21430   4.906  15.127   4.057  0.0949  0.0128 -0.1355
 5962W        W21431   3.995   6.814  12.687 -0.3203  0.0740  0.1818
 5963W        W21432   1.289  17.763  13.466 -0.0322  0.1931  0.4115
 5964W        W21433   0.705   7.264  15.346  0.0754 -0.1633  0.1313
 5965W        W21434   2.089   9.252   5.055 -0.0754 -0.0269 -0.0676
 5966W        W21435   5.421  12.778   5.357 -0.0320  0.0193 -0.1819
 5967W        W21436   7.019  17.602  11.807 -0.2126  0.1024 -0.1627
 5968W        W21437   5.249  16.202   3.522  0.1655 -0.2559  0.0529
 5969W        W21438  16.378  11.482  11.795  0.1002 -0.0631  0.2190
 5970W        W21439  10.637   3.129   1.048 -0.1035 -0.2115  0.0523
 5971W        W21440   0.041   8.424  15.863  0.0610  0.1646  0.1550
 5972W        W21441   3.691  14.580   1.556 -0.0376 -0.1561 -0.4393
 5973W        W21442   8.194  16.724   5.962  0.1737 -0.0594  0.0146
 5974W        W21443  11.932   0.392  11.103 -0.0436  0.1259 -0.3165
 5975W        W21444  15.034   0.586  15.164  0.1298  0.2607 -0.3805
 5976W        W21445  17.403  13.405  11.737 -0.0876 -0.1240  0.2439
 5977W        W21446  12.726  15.616  13.735  0.1762 -0.1959  0.0826
 5978W        W21447   2.242  15.009   0.718  0.0118 -0.0098 -0.0492
 5979W        W21448   4.255   3.461  14.987 -0.1713 -0.0374 -0.0237
 5980W        W21449  17.716   3.513  12.555  0.3738  0.0841 -0.2201
 5981W        W21450   4.561  10.856  15.586  0.0831  0.1939 -0.0415
 5982W        W21451   2.859  13.904   5.552  0.2845  0.0999  0.3226
 5983W        W21452  10.186   3.850   0.241  0.0576  0.3063  0.1086
 5984W        W21453   0.085   0.152  12.439  0.0696  0.2488 -0.3689
 5985W        W21454  14.289   5.874  14.291 -0.2453  0.1786 -0.2652
 5986W        W21455  17.810  14.165  12.582 -0.0722 -0.1172  0.2716
 5987W        W21456   5.492  12.959  13.072  0.0685  0.1013 -0.2313
 5988W        W21457  10.072  10.425   2.622 -0.1246 -0.1012  0.0658
 5989W        W21458  14.947  12.378  11.781 -0.1162 -0.2977  0.3015
 5990W        W21459  16.509   0.638   0.647 -0.0979 -0.3130 -0.1833
 5991W        W21460   2.286  17.478   1.427 -0.1543  0.0272 -0.0284
 5992W        W21461  15.954   2.465   1.304  0.1849  0.0011 -0.0068
 5993W        W21462   6.924  17.055  14.601 -0.1217  0.0081 -0.1467
 5994W        W21463  17.350  12.953  13.470 -0.1673 -0.1264  0.1578
 5995W        W21464   1.302   6.948   3.389  0.0987  0.2881 -0.0759
 5996W        W21465   4.975   8.192   3.580 -0.1742  0.1623  0.1249
 5997W        W21466  15.722   0.998   1.560 -0.1748  0.0003 -0.1642
 5998W        W21467   2.338  11.945  11.480  0.1422  0.1315 -0.0550
 5999W        W21468   7.923   3.601   2.208 -0.3942 -0.3782 -0.0285
 6000W        W21469   7.241   7.343  16.037 -0.2293  0.2534  0.2108
 6001W        W21470  14.169   6.921   4.998 -0.0387 -0.1556 -0.2537
 6002W        W21471  14.054  10.702  12.334  0.1768  0.1332 -0.2412
 6003W        W21472  15.307   3.649   0.734 -0.1103  0.1068  0.1145
 6004W        W21473   4.341   7.519   5.570  0.0318 -0.2395  0.0507
 6005W        W21474   4.265  16.368  15.161 -0.3825  0.1020 -0.2598
 6006W        W21475   0.268  12.122  11.205  0.1720 -0.0266  0.2865
 6007W        W21476   5.776   4.274   0.186 -0.1629 -0.1346  0.0046
 6008W        W21477  12.063  11.413  14.637  0.1350 -0.1239 -0.0449
 6009W        W21478   8.744   3.693   5.282  0.3248 -0.0417  0.0003
 6010W        W21479   0.766   8.672  11.837  0.2971  0.1477  0.0393
 6011W        W21480  13.817  16.377  15.011 -0.0533 -0.0771  0.2245
 6012W        W21481   2.560  11.739   1.575  0.0084  0.0708  0.0538
 6013W        W21482  17.542   6.761   0.877  0.1422  0.2736 -0.0020
 6014W        W21483   3.095  10.332   2.436  0.0616  0.3106 -0.0178
 6015W        W21484  10.024   2.826  13.911 -0.0061 -0.0065 -0.0937
 6016W        W21485   0.586   6.044  12.441 -0.0437  0.3630 -0.1299
 6017W        W21486   9.968  17.141   0.737  0.4053  0.0144  0.0328
 6018W        W21487   8.184   8.584   2.024 -0.1248  0.1122  0.1300
 6019W        W21488  11.063   7.775  14.159 -0.0776 -0.0113 -0.1430
 6020W        W21489  15.589  15.451   2.247  0.0191  0.0741  0.2074
 6021W        W21490  15.684   4.611  11.186 -0.2387 -0.0800  0.1917
 6022W        W21491  10.548   2.394   1.927 -0.0848 -0.1782  0.1488
 6023W        W21492  17.960   6.921   5.330 -0.0939 -0.0774  0.0459
 6024W        W21493   2.296   4.125   0.310  0.0702  0.1229  0.0318
 6025W        W21494  11.475   3.933  13.489 -0.1423 -0.0420  0.0321
 6026W        W21495  17.875  15.719   2.910 -0.0317 -0.0879 -0.1710
 6027W        W21496   7.586  13.955   0.655 -0.1907  0.1155 -0.0328
 6028W        W21497  11.038  15.406  15.168 -0.0396  0.0021 -0.0935
 6029W        W21498  14.023   0.902  12.429  0.1246  0.2017  0.0190
 6030W        W21499  17.872  14.437  14.470 -0.0614 -0.3806 -0.1403
 6031W        W21500   2.886  15.475  14.027 -0.1592 -0.1797 -0.2390
 6032W        W21501   3.824  16.542  14.398 -0.0315 -0.0569  0.0836
 6033W        W21502  17.403   1.920  10.950  0.1869  0.2527  0.0284
 6034W        W21503   6.798   6.149   2.644  0.2203  0.1208 -0.0473
 6035W        W21504   7.961  12.246   5.148  0.2557  0.0390 -0.1704
 6036W        W21505  16.645  17.642  10.668 -0.0962 -0.1010 -0.1329
 6037W        W21506   1.145  11.419   1.965 -0.0929  0.1046 -0.1297
 6038W        W21507   8.383   5.073   5.919  0.0070 -0.0251 -0.2680
 6039W        W21508   6.421   5.512  11.677  0.1020  0.0915 -0.0648
 6040W        W21509  13.408   5.876  14.993  0.0141  0.1009  0.4661
 6041W        W21510   2.510  15.189  12.163  0.0922  0.0750 -0.2150
 6042W        W21511  11.621  14.074   4.169 -0.1860  0.0341 -0.0723
 6043W        W21512   6.523   5.516  14.770 -0.1135  0.0632  0.0750
 6044W        W21513   4.003   3.825  13.333 -0.2674 -0.5116 -0.0407
 6045W        W21514   0.624   3.263  12.721 -0.0287  0.5166 -0.1655
 6046W        W21515  11.568  17.107  15.812  0.0700  0.1714  0.1269
 6047W        W21516   2.571   5.643   2.055 -0.1395  0.1705  0.0299
 6048W        W21517  14.799   5.144   3.148  0.0586 -0.2526 -0.0064
 6049W        W21518  13.491  10.705  15.786 -0.0351 -0.0222  0.2916
 6050W        W21519  18.028   1.322  15.035  0.0231  0.0567  0.3292
 6051W        W21520  12.492  15.899  14.758 -0.2538  0.1325  0.2467
 6052W        W21521   2.367   0.851   2.835  0.1978 -0.0811  0.2041
 6053W        W21522  16.608  14.044   4.151 -0.0232 -0.0644  0.0302
 6054W        W21523   2.022  16.583   1.123  0.0524  0.1638  0.0235
 6055W        W21524  11.845   3.962   6.100 -0.0761  0.1030  0.0006
 6056W        W21525   7.068  17.140  15.161  0.1268 -0.1445 -0.0965
 6057W        W21526   4.419  17.992  14.566  0.2980  0.0868 -0.3969
 6058W        W21527   7.490  17.577   4.519 -0.0145  0.0999 -0.0219
 6059W        W21528  13.851   4.926  13.349  0.1594  0.1631 -0.0004
 6060W        W21529   9.594  13.277   3.298  0.1392 -0.2483 -0.0768
 6061W        W21530   6.751  16.962  11.095  0.2279  0.0022  0.0971
 6062W        W21531  15.035   3.323   3.761  0.0389  0.2761  0.1343
 6063W        W21532   6.362  12.822   1.407 -0.2492  0.1589  0.1092
 6064W        W21533   9.638   9.995   3.815  0.1040  0.3375  0.2353
 6065W        W21534   0.188   9.091  14.342  0.0043 -0.1043  0.0111
 6066W        W21535   3.223   4.616   2.767  0.1511  0.4036  0.1969
 6067W        W21536   1.499   9.904   3.541 -0.0369 -0.0442  0.0165
 6068W        W21537   7.771   1.904   1.048 -0.2337 -0.1397 -0.1241
 6069W        W21538   6.600   7.279  13.186  0.0047  0.0906  0.2939
 6070W        W21539   4.106   5.554  11.359  0.1896  0.2081  0.2576
 6071W        W21540   4.300  15.163  12.746  0.0683 -0.1391 -0.0655
 6072W        W21541   6.440   0.505   5.229  0.1193  0.0297  0.0049
 6073W        W21542  10.700  15.645   2.193 -0.2839 -0.2681 -0.2315
 6074W        W21543  13.126   6.831   2.020  0.0044  0.1775  0.0456
 6075W        W21544  17.497   0.613  11.691 -0.1799  0.1447 -0.2218
 6076W        W21545   7.984   8.229   5.099  0.0267 -0.0791 -0.1444
 6077W        W21546  15.019   0.312  13.647  0.0153  0.2738  0.1819
 6078W        W21547   6.779   2.518  15.906  0.0596 -0.0669 -0.2018
 6079W        W21548  11.755   4.267   5.717 -0.0335 -0.0550  0.0247
 6080W        W21549  13.536  15.975   5.957 -0.2120  0.1945  0.0363
 6081W        W21550  12.550   0.666   3.296  0.5469 -0.3225  0.1319
 6082W        W21551   1.700   6.707   3.641 -0.2994  0.0286 -0.3255
 6083W        W21552  14.661   3.431   1.350  0.1477 -0.0307 -0.1177
 6084W        W21553  10.321  11.030  11.903  0.2240 -0.0807  0.0013
 6085W        W21554   1.651   5.417   0.615 -0.1935  0.1049 -0.2857
 6086W        W21555  10.665  11.601   0.656  0.3026  0.2970  0.2266
 6087W        W21556  13.481   1.107   0.861 -0.0225 -0.0992 -0.2544
 6088W        W21557  13.169  10.276  11.422  0.2568 -0.1927 -0.1991
 6089W        W21558  15.994   5.676  10.643  0.1492  0.1365 -0.0735
 6090W        W21559   6.947   9.604  11.496 -0.0501 -0.0523  0.2069
 6091W        W21560  16.024  10.573   2.623 -0.1297  0.0805 -0.0995
 6092W        W21561   6.442  12.797   3.668  0.1777 -0.0596  0.0144
 6093W        W21562  10.750  13.763   1.403 -0.0448 -0.1938  0.0292
 6094W        W21563  13.971   7.821   1.033  0.0310 -0.0240  0.2683
 6095W        W21564  16.748   1.127  14.203 -0.0665  0.2919  0.2685
 6096W        W21565   6.766  16.640  10.076  0.2677 -0.0649  0.2195
 6097W        W21566  15.757   5.147  14.905 -0.0598  0.1924 -0.4918
 6098W        W21567   7.848  12.976   3.896 -0.1645  0.0171 -0.0455
 6099W        W21568  14.983   1.065  11.249 -0.1363  0.0730 -0.0513
 6100W        W21569  14.042  15.821  10.261 -0.1101 -0.3165  0.0628
 6101W        W21570   0.094   1.514  14.373  0.1172  0.1498 -0.0414
 6102W        W21571   7.573   8.537   5.105 -0.0908 -0.2753 -0.1251
 6103W        W21572  11.291   3.249   2.053 -0.0220  0.0645  0.0318
 6104W        W21573  13.607  17.303  11.990 -0.0098 -0.1356  0.0623
 6105W        W21574   2.952   5.346   0.532 -0.1548 -0.0826  0.2195
 6106W        W21575  14.517  17.818  10.742  0.1797 -0.1530  0.2762
 6107W        W21576  10.377  14.919  12.725 -0.1176 -0.1948 -0.2375
 6108W        W21577  11.235   0.758   4.346 -0.1561 -0.3085 -0.2670
 6109W        W21578   5.074   1.651   5.018 -0.1206  0.1458  0.1560
 6110W        W21579   9.519   1.194   2.979 -0.0527 -0.2962 -0.0103
 6111W        W21580  14.548   0.096  11.126 -0.1233 -0.1251  0.0245
 6112W        W21581   5.523  15.404  12.343  0.2580 -0.0499 -0.1464
 6113W        W21582  10.273   5.823  14.633  0.1031 -0.0536  0.0388
 6114W        W21583  14.145   7.204  13.832 -0.0566  0.1422  0.0032
 6115W        W21584  11.524  13.708   2.651 -0.0272 -0.0751 -0.2251
 6116W        W21585  17.571  13.867   0.650  0.1256 -0.0567  0.3383
 6117W        W21586   8.075   6.835  14.509  0.2228  0.1606  0.1389
 6118W        W21587  15.826  13.251  13.375 -0.1316 -0.1237  0.0891
 6119W        W21588   2.475  17.186  16.278  0.3884  0.0005 -0.1145
 6120W        W21589  11.295  15.470  13.615 -0.0987 -0.1409  0.0719
 6121W        W21590   3.407   4.933  12.033  0.1264 -0.0482  0.0799
 6122W        W21591  13.073   1.969   3.032 -0.0195 -0.0733 -0.2298
 6123W        W21592   8.219  17.030   4.732 -0.0167  0.3209 -0.1592
 6124W        W21593  15.157  16.116  11.710  0.2452  0.0760 -0.0649
 6125W        W21594   3.464   6.736   3.871  0.0797  0.0455 -0.0189
 6126W        W21595  14.966  18.008   1.747  0.2304  0.1698  0.0182
 6127W        W21596  12.486   4.160   4.880 -0.2862 -0.1881 -0.0431
 6128W        W21597   0.495   7.082  12.195 -0.1089 -0.1859  0.0564
 6129W        W21598   4.675   6.939  15.234  0.3047 -0.0865 -0.1540
 6130W        W21599  15.325   7.123   3.813 -0.2239  0.0881 -0.0759
 6131W        W21600  13.208   1.174  16.052 -0.1842  0.0046 -0.0836
 6132W        W21601  11.307   6.068   1.024 -0.1229 -0.3061 -0.1480
 6133W        W21602   4.064  14.768  11.414  0.1595 -0.0681 -0.2011
 6134W        W21603  15.905   7.117   3.852  0.1564  0.0643  0.0424
 6135W        W21604   9.169  13.392  14.611  0.2863 -0.0661  0.1673
 6136W        W21605  14.199   3.597   3.531  0.1955 -0.1393 -0.0247
 6137W        W21606   0.681  13.836  12.714 -0.1988  0.2367  0.1142
 6138W        W21607  14.880  12.861  12.941  0.0648  0.1028  0.0061
 6139W        W21608   0.684   3.282  16.285  0.0039 -0.3622  0.0229
 6140W        W21609   8.202   4.050   1.118  0.0049  0.3447 -0.2361
 6141W        W21610   1.546  12.458  14.438  0.1928  0.0739 -0.3309
 6142W        W21611   3.510  14.811  10.181 -0.1134 -0.1077 -0.1151
 6143W        W21612   4.166   8.649  14.108 -0.1910  0.1059  0.2591
 6144W        W21613  10.029  16.227   3.488 -0.0205 -0.0790 -0.3180
 6145W        W21614  13.542  14.359   0.531  0.0480 -0.1180  0.1891
 6146W        W21615   3.165  15.635   4.490 -0.5482 -0.1851 -0.0222
 6147W        W21616   7.514   9.323   0.584 -0.1904  0.1284 -0.1293
 6148W        W21617   5.574   0.944  14.855  0.0966 -0.2413 -0.0028
 6149W        W21618  10.767   3.183   1.988  0.2980  0.0337  0.1885
 6150W        W21619   1.000   4.539   2.239  0.2026 -0.0737  0.0202
 6151W        W21620   9.207   5.365   3.768 -0.2993 -0.2125 -0.3367
 6152W        W21621  16.206   4.426   5.159  0.3871 -0.4607  0.0619
 6153W        W21622   8.726   3.537   1.898  0.0459  0.1663  0.2798
 6154W        W21623   8.786   8.697  15.313  0.3134 -0.0906 -0.0619
 6155W        W21624   2.852   6.068  12.904  0.0741  0.1301 -0.0513
 6156W        W21625   6.640  14.521  16.320 -0.1714  0.0916 -0.1353
 6157W        W21626   1.358  16.007  15.662 -0.1041  0.2113 -0.3343
 6158W        W21627   6.566  11.286   2.410  0.3317  0.0255  0.2081
 6159W        W21628  10.463  12.117   2.690  0.0909 -0.1455 -0.0134
 6160W        W21629   0.787  12.560   3.340  0.0751 -0.1339 -0.2938
 6161W        W21630   5.722  13.995   2.333 -0.0119 -0.0283 -0.2790
 6162W        W21631  16.293   2.267   2.768 -0.0363  0.2100  0.0426
 6163W        W21632  16.811   1.639  13.427  0.0284  0.1205 -0.1087
 6164W        W21633   7.645   7.210  11.014  0.0443  0.1607 -0.0148
 6165W        W21634  11.782   7.393  15.649  0.1062  0.1478 -0.1737
 6166W        W21635  10.345   1.407   0.894  0.0627  0.0002 -0.2599
 6167W        W21636  10.751   3.946   2.779 -0.1031 -0.1268  0.2507
 6168W        W21637  16.093   0.817  16.294  0.0822  0.0810  0.2910
 6169W        W21638  17.540   5.301  16.065  0.0171 -0.3588 -0.0663
 6170W        W21639   3.061  17.016  12.264  0.2362  0.2541  0.0421
 6171W        W21640  10.838  16.288   5.344  0.0133 -0.2535 -0.0254
 6172W        W21641   8.763   9.266   4.990 -0.0104 -0.1067  0.1898
 6173W        W21642   8.516  16.895   3.515  0.1464  0.0309  0.2169
 6174W        W21643   2.526   5.950  11.127  0.4494 -0.2016 -0.0087
 6175W        W21644   9.996  11.744   0.268  0.1059  0.0591 -0.0510
 6176W        W21645   7.716   2.640   0.648 -0.0999  0.0986 -0.2086
 6177W        W21646   7.720   2.285  12.041  0.0429  0.0249 -0.1800
 6178W        W21647  10.177  13.785  13.983 -0.2383 -0.1060 -0.0595
 6179W        W21648   4.086   4.695  12.926 -0.0670 -0.0793  0.1207
 6180W        W21649   6.196  17.425  14.976  0.1903 -0.2105  0.1712
 6181W        W21650  15.216   8.514  13.331  0.0378 -0.0869 -0.1736
 6182W        W21651   9.065  12.057  15.985  0.3449 -0.1518  0.0358
 6183W        W21652   2.710   3.477  13.768  0.3982  0.2242  0.0725
 6184W        W21653   4.965   5.646   1.553  0.4210 -0.2457  0.2518
 6185W        W21654   5.898   6.351   1.625  0.4205  0.1387  0.1437
 6186W        W21655  15.178   7.033   4.549  0.1238  0.2060 -0.0796
 6187W        W21656  12.766  11.905  15.100 -0.3746  0.0161  0.2126
 6188W        W21657  11.326   2.507   5.491  0.0934 -0.1131  0.0061
 6189W        W21658   7.539   0.768   3.357  0.0035 -0.1759 -0.0410
 6190W        W21659   2.162   8.226   3.673  0.1208  0.0737 -0.0112
 6191W        W21660   8.011   4.000   0.446 -0.0477 -0.3700  0.0153
 6192W        W21661   1.938   1.957   4.483  0.0865  0.1242  0.0007
 6193W        W21662  13.578   0.596  11.768  0.2092  0.0169 -0.0182
 6194W        W21663   0.714  13.651  10.804  0.0376 -0.1059 -0.1580
 6195W        W21664  10.686  11.060   0.419  0.0802  0.1497  0.0677
 6196W        W21665   4.733   3.012   4.566  0.0695 -0.2139  0.2020
 6197W        W21666   3.634   4.372   0.472 -0.2859  0.0286  0.0082
 6198W        W21667   5.180  13.373  14.129  0.1245 -0.1087 -0.0568
 6199W        W21668   2.663  15.338  11.174 -0.2243  0.4854 -0.1239
 6200W        W21669   0.871   1.852   2.455  0.1022 -0.0929 -0.0826
 6201W        W21670   4.096   3.668   4.073  0.1653 -0.0522 -0.1239
 6202W        W21671   0.630   7.280  13.440  0.2048  0.2285  0.1065
 6203W        W21672  10.949   3.610   4.291 -0.1337 -0.3059  0.1242
 6204W        W21673  17.849  14.870  15.032  0.1036 -0.1997  0.2529
 6205W        W21674   0.491   1.338  11.888 -0.0285 -0.1175 -0.3349
 6206W        W21675   8.944   7.842   0.048 -0.1150  0.2231  0.0602
 6207W        W21676  14.991   5.780  13.343  0.1924 -0.2863  0.1925
 6208W        W21677  15.450  16.490   1.967 -0.1134  0.0064 -0.0508
 6209W        W21678   2.039  15.969  11.270  0.0137  0.0985 -0.2136
 6210W        W21679   6.441   6.516  14.341 -0.1487 -0.0525  0.2953
 6211W        W21680   2.777   8.686  14.689  0.1922  0.0014  0.0543
 6212W        W21681  12.381  13.341   2.796 -0.3836  0.2569  0.1000
 6213W        W21682   0.828  14.485   2.302  0.0038 -0.0520  0.0999
 6214W        W21683   1.918  12.412   0.107 -0.4954 -0.0147  0.1181
 6215W        W21684   6.451   3.889   1.205 -0.1404  0.0273  0.1110
 6216W        W21685  10.817  12.628  14.749 -0.3540  0.2719  0.0114
 6217W        W21686  14.164   5.044   3.871  0.0911  0.0973 -0.0744
 6218W        W21687   5.730  17.998   0.019  0.0003  0.0432  0.0003
 6219W        W21688   1.040   1.967   1.085 -0.1229  0.0874  0.3811
 6220W        W21689   3.828  12.672   4.113  0.0722 -0.1286 -0.1844
 6221W        W21690  16.714   1.369  11.707  0.1408  0.0622 -0.1782
 6222W        W21691   4.499   2.830  11.991 -0.3954 -0.4240 -0.0966
 6223W        W21692   7.361   3.953   3.607  0.1781 -0.0009 -0.0181
 6224W        W21693   9.915   7.906   3.072 -0.2347 -0.0022  0.1152
 6225W        W21694   6.477   9.371   3.188 -0.0196  0.0168  0.0052
 6226W        W21695  10.707   2.363  13.275 -0.0513  0.1160 -0.0110
 6227W        W21696   9.280  12.060  12.197 -0.2647 -0.2156 -0.0716
 6228W        W21697   9.674  17.633   1.728 -0.2257  0.0737  0.1223
 6229W        W21698   8.071  10.709   5.218 -0.1280  0.0737  0.0989
 6230W        W21699  17.142  11.372  12.227 -0.0185 -0.1267  0.0759
 6231W        W21700   4.301   7.581   5.072 -0.2351  0.0084 -0.2017
 6232W        W21701   2.257  17.162   5.268  0.0817  0.0157 -0.1017
 6233W        W21702  13.470  13.736  11.244 -0.1648 -0.1843 -0.0298
 6234W        W21703  17.179   8.874  12.141 -0.3464  0.1131 -0.2205
 6235W        W21704   9.394   9.586   0.194 -0.0889  0.0168  0.0401
 6236W        W21705  17.852   5.621   3.915  0.2253  0.0065  0.2613
 6237W        W21706   8.816   9.089   3.190 -0.1596  0.0214 -0.0727
 6238W        W21707  16.547   9.643   4.133 -0.6073  0.0497 -0.3830
 6239W        W21708  13.460  14.531  12.987 -0.1450 -0.2668  0.1374
 6240W        W21709  13.855   2.608   0.844  0.1201 -0.2128 -0.1962
 6241W        W21710  17.150  11.335  12.743 -0.1638  0.1704  0.0864
 6242W        W21711  15.679  10.806  13.696 -0.2194  0.3158 -0.1988
 6243W        W21712   9.260  12.169   1.392  0.2276 -0.3494 -0.0572
 6244W        W21713  14.102  13.861  12.827  0.1425 -0.1226 -0.0864
 6245W        W21714   2.280   9.102   4.615 -0.0277 -0.3461  0.0460
 6246W        W21715  11.904  17.007  16.130  0.0063 -0.2069  0.1084
 6247W        W21716   1.449  17.965   1.930 -0.3964 -0.0747 -0.0929
 6248W        W21717   8.757  14.126   4.908  0.1854  0.1025 -0.0680
 6249W        W21718  17.018   8.476  16.123  0.0305 -0.0968  0.2299
 6250W        W21719  12.766   2.078   3.384  0.0204 -0.2227 -0.1441
 6251W        W21720   2.511  15.224  14.393 -0.0791  0.2094 -0.0982
 6252W        W21721   6.336  16.357  14.896 -0.0822 -0.0888  0.0530
 6253W        W21722  10.078  14.185  11.789  0.0967  0.0067  0.3057
 6254W        W21723  16.519   0.471   2.674 -0.0731  0.0585 -0.0248
 6255W        W21724   8.143  16.277  12.891 -0.0258  0.0798  0.1591
 6256W        W21725  13.677  10.610   5.525  0.0786  0.2021 -0.3716
 6257W        W21726  17.125   9.536  15.508  0.3626 -0.3471  0.0642
 6258W        W21727  12.409   4.788   3.510  0.1679 -0.0335 -0.0491
 6259W        W21728  13.785  15.991  12.632  0.1648  0.4529 -0.0393
 6260W        W21729  12.177  12.974   4.885  0.1803  0.1715 -0.2046
 6261W        W21730   2.611   3.224  13.214  0.1802  0.0627  0.2334
 6262W        W21731   9.745   4.523   3.950  0.0073  0.1544 -0.0469
 6263W        W21732   9.112   3.276  15.130 -0.1885  0.1000  0.0963
 6264W        W21733  11.945   9.188   4.039  0.2374  0.3017  0.3584
 6265W        W21734   4.025   7.956  14.887  0.0431 -0.4826  0.0807
 6266W        W21735   0.561  17.557  11.340  0.0466 -0.3108  0.3288
 6267W        W21736   5.009   7.409   6.025  0.4995  0.0559  0.0538
 6268W        W21737  17.734  12.403  14.386 -0.0013  0.1290 -0.0307
 6269W        W21738   9.484   6.583   1.311 -0.3063 -0.1443  0.0213
 6270W        W21739   4.058   9.517   1.326  0.0860 -0.1116 -0.0577
 6271W        W21740  13.689   5.365  13.196  0.1856  0.0773  0.2839
 6272W        W21741   8.222   7.302  11.201 -0.1844  0.2231  0.1658
 6273W        W21742   1.103  15.871   3.287 -0.1058 -0.1437  0.0024
 6274W        W21743  17.752  10.089   0.871  0.0339 -0.0080 -0.0886
 6275W        W21744  15.827  12.411   1.545 -0.3232 -0.1460 -0.1586
 6276W        W21745   4.571  11.710   4.371  0.1383  0.0690 -0.1631
 6277W        W21746   2.986  10.077  12.263 -0.0596 -0.0865  0.2506
 6278W        W21747  17.211   1.195   3.385 -0.0583 -0.0257  0.0939
 6279W        W21748   7.431  11.476  10.934  0.2369  0.0239 -0.3946
 6280W        W21749   7.856  11.740  15.375 -0.0063 -0.0991 -0.0063
 6281W        W21750  10.715   6.549   0.009 -0.0948 -0.0357  0.1661
 6282W        W21751  17.534  10.374  13.814 -0.0075 -0.2888  0.0019
 6283W        W21752   5.035   7.695   2.018 -0.2872  0.1529 -0.1074
 6284W        W21753   5.710   0.275   3.609 -0.0313  0.2063 -0.0337
 6285W        W21754   7.908   7.874   0.359  0.1735 -0.0214  0.0738
 6286W        W21755  18.041   8.653  11.888 -0.1096 -0.1731 -0.0648
 6287W        W21756   3.741   5.160   0.016 -0.1459 -0.2118  0.1244
 6288W        W21757  11.162   2.853   3.920  0.3528  0.3372  0.1089
 6289W        W21758  15.384   9.193   1.653  0.0614  0.0671 -0.0108
 6290W        W21759  11.856  17.237  11.905  0.2409  0.3990  0.0519
 6291W        W21760   1.234  11.992   5.316 -0.0565  0.0895  0.1060
 6292W        W21761   7.329   5.344  14.290 -0.0536 -0.0120  0.1170
 6293W        W21762   0.496   2.813  15.455  0.0218 -0.4383 -0.2697
 6294W        W21763  15.927  14.623  14.973  0.0057  0.1600  0.0343
 6295W        W21764  10.761   4.430   5.618 -0.0177 -0.0948  0.1132
 6296W        W21765  18.006   1.888   1.471 -0.0494  0.2030 -0.0488
 6297W        W21766  10.078   6.796  11.834  0.1738  0.0146  0.2233
 6298W        W21767   4.248   9.108  15.621 -0.2382  0.1334  0.3931
 6299W        W21768   8.731   6.247  14.731 -0.1194  0.1966  0.0172
 6300W        W21769  10.033  14.182   2.558 -0.0980  0.1610 -0.1716
 6301W        W21770  10.708  11.620   2.738  0.0701 -0.0733  0.1399
 6302W        W21771   0.390   3.160  11.758 -0.2974 -0.2362 -0.1687
 6303W        W21772   2.859  15.591   0.567 -0.1700  0.6734  0.4107
 6304W        W21773  15.812  17.812   1.435 -0.1698  0.2636  0.2668
 6305W        W21774  14.725  13.666   4.642  0.0602 -0.1503  0.0030
 6306W        W21775   5.341  13.448  16.175 -0.0584  0.0135 -0.2568
 6307W        W21776   7.521  14.756   0.932  0.1447 -0.0109 -0.1405
 6308W        W21777  17.754   6.137   3.744  0.2382 -0.0032 -0.1169
 6309W        W21778   4.646  16.857  16.010 -0.0372 -0.1286  0.3044
 6310W        W21779  17.504  11.895  11.504  0.1204  0.2364  0.0053
 6311W        W21780   4.892  13.371   4.010  0.0007 -0.3704  0.1609
 6312W        W21781  10.302   0.668   4.586 -0.0129 -0.0850  0.0669
 6313W        W21782   0.369   1.463   0.326 -0.0960 -0.0434 -0.0582
 6314W        W21783  13.100   8.210  15.686  0.0800 -0.3937 -0.2359
 6315W        W21784  17.013  14.924  13.007  0.3684  0.2324  0.0415
 6316W        W21785   7.261  10.458  16.186  0.1633  0.0125  0.0601
 6317W        W21786   1.643   2.913   5.027 -0.1031 -0.0945 -0.1037
 6318W        W21787  10.778  13.262   5.210  0.3218  0.1710 -0.3735
 6319W        W21788   8.455   0.804   1.652  0.0543  0.2177  0.2230
 6320W        W21789   6.939   2.090   1.994  0.1816 -0.0281  0.1991
 6321W        W21790   9.308   6.649  12.711 -0.1362  0.2164  0.1548
 6322W        W21791   0.750  16.746   4.304  0.1775 -0.0022  0.1496
 6323W        W21792  11.249  13.157  15.173  0.1178 -0.0110 -0.0675
 6324W        W21793   8.476  18.073  15.116 -0.0334 -0.0134 -0.4167
 6325W        W21794  12.809   5.236   5.178  0.0500 -0.0405 -0.2023
 6326W        W21795  13.030   4.357   5.718 -0.1546  0.0049 -0.0567
 6327W        W21796   3.832   8.584  13.269 -0.0261 -0.1788  0.1719
 6328W        W21797   6.524  11.661  14.453 -0.1091  0.2457 -0.1918
 6329W        W21798   0.172  15.079   0.830  0.0899 -0.3569 -0.0988
 6330W        W21799  12.485   9.721  12.934 -0.0220 -0.2084 -0.2899
 6331W        W21800  14.749   2.058   0.615 -0.2394 -0.0660  0.0406
 6332W        W21801  14.158  14.256   5.110 -0.1305  0.0544 -0.0096
 6333W        W21802   3.046   4.530  15.309 -0.0324  0.2178 -0.0033
 6334W        W21803   8.624  16.946   0.035 -0.1928  0.0871  0.2215
 6335W        W21804   5.358  17.370   2.235 -0.0346 -0.0266  0.1569
 6336W        W21805  17.414   9.039   1.143 -0.2084  0.1143  0.0313
 6337W        W21806  11.631  13.822   0.185  0.0076  0.0833  0.0951
 6338W        W21807   9.403  11.515   2.723 -0.0259 -0.0258 -0.0359
 6339W        W21808   1.676  10.115  16.258  0.1250  0.3059  0.1426
 6340W        W21809  17.427  15.267   5.592 -0.1859  0.4943  0.2547
 6341W        W21810   4.488  13.174   5.146  0.2257  0.0801 -0.0722
 6342W        W21811   8.778   2.881   1.082  0.1382 -0.0466  0.0776
 6343W        W21812   8.926  12.844  10.860 -0.1782  0.0891 -0.0172
 6344W        W21813  17.985   4.786   5.052 -0.2142  0.1086 -0.1377
 6345W        W21814   6.539   4.580   0.351  0.1960  0.1598 -0.2217
 6346W        W21815  11.993  10.663   0.588 -0.0512 -0.0569  0.0779
 6347W        W21816   8.069   9.595  13.810 -0.1137 -0.1819  0.1912
 6348W        W21817   5.330  17.266  13.291 -0.0978  0.2367 -0.2885
 6349W        W21818   2.626   3.054   0.845 -0.0788  0.0683  0.0416
 6350W        W21819   2.633   2.057   3.903  0.1407  0.0128 -0.2268
 6351W        W21820   0.949  15.074   1.147 -0.1325 -0.3509  0.0193
 6352W        W21821   1.888  13.814  12.858  0.0976  0.0357 -0.1052
 6353W        W21822   6.597  16.162   3.779  0.2773 -0.3629  0.0017
 6354W        W21823   9.245   1.080   1.904 -0.0206 -0.1408 -0.1817
 6355W        W21824   4.359   7.148   2.289 -0.0340  0.0205  0.3188
 6356W        W21825   4.125   3.326   4.500 -0.0365  0.0072  0.0288
 6357W        W21826   0.260   8.594  13.653 -0.1869 -0.1040  0.1288
 6358W        W21827  16.619   8.096  12.497 -0.1227 -0.1527  0.0364
 6359W        W21828  17.885   8.911   0.267  0.1996  0.2199  0.0530
 6360W        W21829   4.631  16.100   1.877  0.1414 -0.1555 -0.2420
 6361W        W21830  10.503   0.459  13.151  0.2452 -0.3227  0.1277
 6362W        W21831   8.994  12.065   4.387  0.3307 -0.0807  0.2407
 6363W        W21832   6.994  10.613   2.113  0.2367  0.1651  0.0745
 6364W        W21833  14.939   0.630   4.542 -0.1401 -0.2145  0.0781
 6365W        W21834   2.332  16.434  15.694 -0.0646  0.0807  0.0841
 6366W        W21835   1.333  10.470   2.815 -0.2866  0.1146 -0.0202
 6367W        W21836   1.619  11.031  16.093  0.0590 -0.0765 -0.1091
 6368W        W21837   6.272   7.480  16.280 -0.3180 -0.5248  0.0568
 6369W        W21838   2.133   9.798  14.650  0.0103 -0.2727 -0.0493
 6370W        W21839  15.804   6.982  15.564 -0.0454 -0.1597 -0.2361
 6371W        W21840  13.415   0.199   1.728 -0.1377 -0.3807  0.1719
 6372W        W21841  13.222  14.506  15.504  0.1132  0.0114 -0.0219
 6373W        W21842  15.915   9.510   0.038 -0.1506  0.0769  0.1275
 6374W        W21843   1.514   0.694   2.494  0.1321 -0.1241  0.1783
 6375W        W21844   2.935  14.788  15.107  0.1569  0.2863  0.2002
 6376W        W21845   5.671   8.173  13.437 -0.2096 -0.3333  0.0844
 6377W        W21846  17.005  10.615   5.680  0.0918 -0.0846 -0.2524
 6378W        W21847   9.204   8.949  15.239  0.1845 -0.0197 -0.0232
 6379W        W21848  13.009   5.072  15.874  0.1843 -0.0086  0.0571
 6380W        W21849  15.448  17.277  14.827  0.3348  0.1803 -0.1206
 6381W        W21850  10.632  16.413  13.651 -0.0885  0.0706  0.0962
 6382W        W21851  13.635  15.361   4.773 -0.0775 -0.0586 -0.0539
 6383W        W21852   3.476   1.158   0.897 -0.3748  0.1928  0.0879
 6384W        W21853   4.688   0.963  11.937 -0.1803 -0.2674 -0.1283
 6385W        W21854  12.760  15.635   0.755  0.0169 -0.0014  0.1011
 6386W        W21855  14.375  14.773   2.376  0.0034  0.0205 -0.0051
 6387W        W21856   4.038  17.440  14.078 -0.2443  0.0847  0.2783
 6388W        W21857   5.853  16.453  14.870  0.0269  0.0594 -0.0083
 6389W        W21858  15.650  14.248   0.008 -0.1270  0.0053 -0.0331
 6390W        W21859   9.849   6.912   4.724  0.2397  0.0259 -0.0827
 6391W        W21860   8.503  14.575   4.928 -0.1551  0.0709 -0.1977
 6392W        W21861   3.736  16.056   0.697  0.0462  0.2037  0.2144
 6393W        W21862  11.307   4.563   2.540  0.1054 -0.1903  0.0181
 6394W        W21863  13.814  14.271  12.751  0.0677  0.4267 -0.0057
 6395W        W21864  17.409  10.941   0.923 -0.0552  0.1751  0.2458
 6396W        W21865  10.175   7.482   0.350  0.0490  0.0237 -0.0042
 6397W        W21866   5.342  14.258  12.290  0.2357 -0.3759 -0.0304
 6398W        W21867  12.481  11.230   5.178  0.3813  0.2099  0.0136
 6399W        W21868   9.166   3.720   0.748 -0.0633  0.1933 -0.0372
 6400W        W21869  15.618  16.708   1.481  0.0416  0.1830  0.2072
 6401W        W21870  10.806   5.506   0.146 -0.1510  0.0345  0.1869
 6402W        W21871  13.061   7.908  16.144 -0.0982 -0.1784  0.0995
 6403W        W21872  15.240   2.703   0.728 -0.2088  0.0658  0.1021
 6404W        W21873   3.408   2.391  13.822  0.2700  0.0378  0.0604
 6405W        W21874   7.705  15.568  11.901  0.1229  0.1877  0.2260
 6406W        W21875   2.126  15.399  11.187  0.0020 -0.2093 -0.0685
 6407W        W21876   5.234   0.005  12.634 -0.2710  0.0520  0.0664
 6408W        W21877  17.068  13.492   4.792 -0.0837 -0.0190 -0.0013
 6409W        W21878  15.784  10.556   2.137  0.3615  0.0450  0.5871
 6410W        W21879   2.098   4.412  12.762  0.0380 -0.3811 -0.2173
 6411W        W21880   2.062   4.893   4.632  0.0284  0.2046 -0.1880
 6412W        W21881   8.713   1.122   1.883 -0.0307  0.3103 -0.3675
 6413W        W21882   1.674   7.260  15.125  0.0578 -0.0527  0.2458
 6414W        W21883   4.461  17.821   0.570  0.0651  0.0104  0.2244
 6415W        W21884   1.535  15.181  14.564  0.0283 -0.0562 -0.1140
 6416W        W21885   7.335  17.466   4.004 -0.2241  0.2108  0.0532
 6417W        W21886  11.121   4.517  10.879 -0.2302 -0.0749  0.2293
 6418W        W21887  13.740   2.732   4.853  0.1475 -0.2043 -0.0537
 6419W        W21888   7.113  15.986   0.553 -0.2395 -0.0479 -0.2282
 6420W        W21889   1.819  14.393  11.650  0.1031 -0.1971  0.1730
 6421W        W21890   2.612  17.044   3.481 -0.0158  0.2076  0.1757
 6422W        W21891   3.853   3.965  14.174 -0.0209  0.1532 -0.0438
 6423W        W21892   2.571  10.149   2.814  0.0747 -0.2697  0.3649
 6424W        W21893  17.663  13.619  14.270  0.2873 -0.0494 -0.1367
 6425W        W21894   0.901  11.975  11.714  0.0382  0.0972  0.1196
 6426W        W21895   9.565   7.654  13.184 -0.1818  0.2095  0.1026
 6427W        W21896  13.458   2.635   3.586 -0.2437  0.0916 -0.0093
 6428W        W21897   4.884  13.905   1.213 -0.2431  0.0427 -0.0138
 6429W        W21898  16.067  17.250  16.060 -0.2990 -0.3074 -0.0247
 6430W        W21899   4.190   6.523   4.109 -0.2530  0.1326 -0.3440
 6431W        W21900  17.650   2.356   2.488  0.0771  0.0704  0.0177
 6432W        W21901  13.795  17.484  10.345 -0.0032  0.0635 -0.0907
 6433W        W21902  13.174  17.924  10.842 -0.2644 -0.1961  0.0735
 6434W        W21903  11.764   5.313   0.961  0.1211 -0.2520  0.0994
 6435W        W21904   9.269   8.369  12.483  0.2355  0.0621  0.0343
 6436W        W21905   9.379  14.546   3.798 -0.1873 -0.2225 -0.2870
 6437W        W21906   6.630   2.584  15.031 -0.0427 -0.0724 -0.2101
 6438W        W21907   3.109  17.876  14.240  0.1587 -0.0993  0.0500
 6439W        W21908   1.677   0.861  11.888 -0.0413 -0.0198  0.0112
 6440W        W21909   1.338  12.444   0.140  0.0523  0.1440 -0.2115
 6441W        W21910   5.055   0.025  12.018 -0.2970  0.2561  0.1361
 6442W        W21911  17.379   3.653   0.160  0.0447  0.3352  0.3151
 6443W        W21912   6.342   3.271   1.906  0.3767 -0.0535  0.0236
 6444W        W21913  15.130   5.382   1.969 -0.1704  0.0037  0.3672
 6445W        W21914   2.875   2.690  14.938  0.2185  0.0915 -0.1108
 6446W        W21915   9.035   5.804  13.837  0.1125  0.0882  0.2437
 6447W        W21916   4.742  15.048  15.236 -0.1058 -0.0695 -0.2129
 6448W        W21917   7.236   6.233   5.812 -0.1174 -0.0304 -0.2032
 6449W        W21918  16.701  16.664  14.654  0.1387 -0.0540  0.0120
 6450W        W21919   3.529  11.659  12.435 -0.2784 -0.0201 -0.1261
 6451W        W21920  17.735  13.130  12.041  0.1007 -0.1091  0.3248
 6452W        W21921  17.134  15.669   0.709  0.1236 -0.3156  0.0374
 6453W        W21922  10.268   7.949  13.934  0.1996 -0.1948  0.0642
 6454W        W21923   9.519   3.801   1.721  0.2131 -0.1539 -0.1984
 6455W        W21924   9.007   2.148   2.850  0.2646  0.0644 -0.0367
 6456W        W21925  17.206   2.441  14.315  0.0731 -0.1916  0.1500
 6457W        W21926   2.579  17.481  14.561  0.0043  0.0109  0.1253
 6458W        W21927   3.704   2.594  11.801 -0.2348 -0.2496 -0.0257
 6459W        W21928   4.542  13.816   0.797  0.0497  0.1671 -0.3803
 6460W        W21929  10.299   1.525  14.681  0.2681  0.2160 -0.0465
 6461W        W21930  12.567  11.508  14.570 -0.2303  0.2530 -0.0786
 6462W        W21931  18.042   6.797  13.742  0.1412  0.1383  0.2794
 6463W        W21932  16.758   4.029  13.189 -0.2249 -0.0106 -0.0898
 6464W        W21933  11.139   3.218   4.498  0.1665 -0.0754  0.1399
 6465W        W21934   2.836   0.116  15.602 -0.3678 -0.2104 -0.1071
 6466W        W21935  10.973  12.939   4.517  0.4503  0.0452 -0.0539
 6467W        W21936  14.134  16.565  14.532 -0.1174  0.2640  0.0037
 6468W        W21937   3.853  17.322   4.505  0.1492  0.2597  0.1889
 6469W        W21938   1.188  15.663   4.176  0.0532 -0.1010 -0.0861
 6470W        W21939  11.688   2.265   0.089 -0.1314 -0.2411 -0.3566
 6471W        W21940   2.807   4.484   2.452  0.2085  0.1630  0.1757
 6472W        W21941  11.630  11.192  10.329 -0.1860  0.0950  0.1097
 6473W        W21942  14.300  13.354   1.743  0.0521 -0.1170 -0.0117
 6474W        W21943  11.777  12.941   1.031 -0.0851 -0.2009  0.1682
 6475W        W21944  14.821  14.152  11.999 -0.0028 -0.1217  0.0483
 6476W        W21945  10.903  14.426  15.525  0.1858 -0.0665  0.0693
 6477W        W21946  14.681   6.993   5.814  0.2411  0.2917  0.0368
 6478W        W21947  13.396   9.822   3.197  0.1097 -0.0548 -0.2332
 6479W        W21948   4.695   4.090   4.456 -0.2786  0.1804  0.1398
 6480W        W21949  12.101   3.727   4.949 -0.0806 -0.0020  0.0350
 6481W        W21950  18.008  15.697  12.480 -0.0714 -0.0105  0.4050
 6482W        W21951   0.584   2.138  15.287  0.0650  0.1420 -0.0290
 6483W        W21952  17.455   9.159   2.497  0.1023  0.0308 -0.1406
 6484W        W21953  16.046  11.283   0.549 -0.0176  0.1074  0.0010
 6485W        W21954   0.150   2.460   1.634 -0.2210 -0.0137 -0.2254
 6486W        W21955  15.573   7.672  14.274  0.3003 -0.0532 -0.1421
 6487W        W21956   4.553  10.414   6.211 -0.3502 -0.0981  0.1794
 6488W        W21957   2.785   7.509  13.275 -0.1280 -0.2104 -0.0722
 6489W        W21958   8.079   9.795  13.322 -0.0278 -0.0270  0.3651
 6490W        W21959  11.971   3.674   2.644  0.0551  0.1830 -0.0408
 6491W        W21960  13.825  11.895  11.080 -0.0277  0.0637 -0.1850
 6492W        W21961  13.713   8.835   3.436 -0.1623  0.2953 -0.1761
 6493W        W21962  14.880  13.802  12.335 -0.0467 -0.5254  0.5702
 6494W        W21963  15.525  13.474  12.944 -0.0107  0.0107  0.0196
 6495W        W21964  11.039   0.174   3.092  0.2248  0.1332  0.0642
 6496W        W21965   7.190   5.742  11.962 -0.2039  0.1029 -0.0737
 6497W        W21966   8.718  15.435   5.096 -0.0747 -0.0406  0.2902
 6498W        W21967   7.698   2.474  15.849  0.0082 -0.1025 -0.2334
 6499W        W21968   9.571   8.347   2.286 -0.2289 -0.0082  0.1710
 6500W        W21969  13.683   7.469   3.892 -0.2335 -0.1248 -0.1276
 6501W        W21970   8.674  12.057   4.014  0.1476  0.0087  0.1490
 6502W        W21971   3.786   1.881   5.586 -0.1306  0.3051  0.1628
 6503W        W21972   8.070   9.223   0.549 -0.3425 -0.0453 -0.4489
 6504W        W21973   6.697  11.147  15.759  0.1934  0.0420  0.3596
 6505W        W21974   2.885   0.110   5.408 -0.0123  0.2812 -0.0813
 6506W        W21975  13.475  10.781   0.398 -0.0036  0.0482 -0.2180
 6507W        W21976   6.185  11.132  13.250  0.1731 -0.2182  0.0169
 6508W        W21977   7.187   3.302  10.999 -0.0984 -0.1556 -0.2102
 6509W        W21978   2.977  10.270   1.274 -0.1049 -0.4577 -0.0653
 6510W        W21979   3.432   9.959  14.340  0.1171  0.1533 -0.1003
 6511W        W21980  16.219  11.197  12.968 -0.0761  0.3794 -0.1576
 6512W        W21981   8.996   7.623   4.214  0.2390  0.0631 -0.2752
 6513W        W21982  16.128  12.017  14.396 -0.0418 -0.1091  0.0629
 6514W        W21983   7.538  15.358  12.805 -0.2663 -0.1247 -0.0140
 6515W        W21984  11.786   5.440   3.579 -0.0278  0.1301 -0.0128
 6516W        W21985  12.190   6.768   2.000  0.0829 -0.0603 -0.0346
 6517W        W21986   3.428   8.031   2.413  0.1693  0.1397 -0.0743
 6518W        W21987   0.402   0.884   3.277 -0.2055  0.1625 -0.0287
 6519W        W21988  16.579   7.058   4.978 -0.0696  0.0741 -0.0298
 6520W        W21989   8.269   7.255  12.573  0.0895  0.2739  0.0781
 6521W        W21990  11.048  14.702   4.040 -0.0990  0.1906  0.1623
 6522W        W21991  16.371  17.021  14.917  0.1833  0.0467 -0.1312
 6523W        W21992  17.983  15.028  16.254  0.1015  0.1401  0.1464
 6524W        W21993   7.065   7.621   2.161 -0.1811  0.1236 -0.1244
 6525W        W21994   4.287   1.823   5.409  0.0983  0.0320  0.2110
 6526W        W21995   9.885  13.640   1.961  0.1822  0.0109 -0.1524
 6527W        W21996   6.720   7.835  14.134  0.0769 -0.0433 -0.3490
 6528W        W21997  17.953  16.789   0.953  0.2594  0.3809  0.0707
 6529W        W21998   4.144   4.589  14.660  0.4351 -0.3127  0.2343
 6530W        W21999   9.736   3.198  11.695  0.1241 -0.0787 -0.0175
 6531W        W22000   1.780   4.545   0.795 -0.0971 -0.1699 -0.3206
 6532W        W22001   3.786  16.208   1.433  0.2266 -0.0987 -0.0710
 6533W        W22002  15.421   8.849   4.074 -0.1093 -0.4562  0.2051
 6534W        W22003   6.641  15.927  13.767  0.0743 -0.0050 -0.2124
 6535W        W22004   2.359   5.205   1.213  0.1609  0.0080 -0.0578
 6536W        W22005   9.532   1.107  14.030 -0.2086  0.1167 -0.2071
 6537W        W22006   2.933   0.306  11.934  0.0883 -0.0212  0.1865
 6538W        W22007  11.564  12.112  15.460 -0.0385 -0.1299  0.0635
 6539W        W22008   6.175  15.005  13.031  0.0283  0.1544  0.0845
 6540W        W22009   3.729  14.160   1.292 -0.4244 -0.1724  0.1308
 6541W        W22010  17.719  11.816   2.091 -0.0221 -0.1536 -0.1067
 6542W        W22011  12.025  12.184  15.756  0.0752 -0.1527 -0.0175
 6543W        W22012  14.678   3.872   4.287 -0.0911  0.1715  0.2586
 6544W        W22013  15.462  11.481  13.852 -0.0711  0.2966  0.1479
 6545W        W22014   3.929   4.334   0.955  0.0954 -0.2571 -0.1678
 6546W        W22015  11.171  16.591  13.575  0.3022 -0.0591 -0.2252
 6547W        W22016   3.495   0.188   1.002 -0.1608 -0.2594 -0.1345
 6548W        W22017  16.256  15.414  13.424 -0.5508 -0.1173  0.1477
 6549W        W22018   0.846  13.985   0.532 -0.1356 -0.2953 -0.1045
 6550W        W22019  10.805   8.191   1.879 -0.0568  0.1118 -0.0322
 6551W        W22020  10.229   1.753  10.887  0.0483  0.0130 -0.3054
 6552W        W22021   0.154   2.273  12.777  0.3280  0.1905 -0.1444
 6553W        W22022  11.700   4.371  14.333  0.3230 -0.1361 -0.0915
 6554W        W22023  13.306   4.403   0.977 -0.0726  0.2635  0.0713
 6555W        W22024   7.965   1.823  14.110 -0.1350  0.0830 -0.1587
 6556W        W22025   3.118   1.825   2.259  0.1204  0.0162 -0.2991
 6557W        W22026   5.819   4.593   5.297 -0.0670 -0.1182 -0.1051
 6558W        W22027   7.230   3.082  12.929  0.1974 -0.1416  0.3017
 6559W        W22028   6.808  12.094   4.676 -0.1604  0.0723 -0.1400
 6560W        W22029   5.710  17.548  13.550  0.2071 -0.0226 -0.1991
 6561W        W22030  15.654  11.304  14.641 -0.2705  0.1811  0.2469
 6562W        W22031   7.357   9.518   1.503 -0.3778  0.0834  0.1100
 6563W        W22032   5.178   8.174  15.914 -0.4243 -0.1099 -0.1128
 6564W        W22033   7.720   3.010  12.624  0.0275 -0.3157 -0.0366
 6565W        W22034  11.866   2.439  14.450  0.2233 -0.0616 -0.0453
 6566W        W22035  13.260  12.980  11.327  0.1110 -0.0539 -0.2714
 6567W        W22036   9.131   8.884   3.544  0.1125  0.2394 -0.1158
 6568W        W22037   9.909  14.349   3.821  0.0841 -0.2689 -0.2082
 6569W        W22038  12.524   6.650  11.239 -0.0140 -0.2197 -0.0827
 6570W        W22039   5.862   3.713   5.174  0.1996 -0.1418 -0.2838
 6571W        W22040   6.100   3.493   4.808 -0.1982  0.1990  0.1907
 6572W        W22041   1.454   6.765   4.700  0.2126 -0.2025  0.0777
 6573W        W22042   7.252   2.383   5.325 -0.2421  0.2421 -0.0218
 6574W        W22043   9.513  15.326   0.419 -0.1450 -0.2910 -0.2648
 6575W        W22044   4.754   1.184   0.557 -0.0055  0.1307  0.2057
 6576W        W22045   8.374   3.871  11.907 -0.1377  0.2409  0.0747
 6577W        W22046  12.127  12.543  11.586  0.1661 -0.0517  0.0362
 6578W        W22047   2.202  10.711   2.788 -0.2373 -0.1606  0.0855
 6579W        W22048   4.835   3.885   2.101  0.2351  0.1336 -0.0686
 6580W        W22049  17.252  15.305   2.286  0.3366  0.2954 -0.1290
 6581W        W22050   6.156   5.640  14.431 -0.1432 -0.1620  0.1347
 6582W        W22051  15.725   7.055   2.850 -0.2920  0.0688 -0.2139
 6583W        W22052  16.831  11.624  10.954 -0.2401  0.0533  0.0118
 6584W        W22053  13.678  13.212   5.452  0.1731  0.3763  0.1099
 6585W        W22054  14.049  10.872   2.699  0.0064  0.1591 -0.2044
 6586W        W22055  11.442   3.378   4.147 -0.0045  0.0698 -0.1582
 6587W        W22056  12.833  13.655   4.447  0.0872  0.1250  0.2886
 6588W        W22057   4.990  11.954   0.053 -0.0324 -0.0553  0.0670
 6589W        W22058   9.197  12.428  15.599  0.0716  0.0700  0.3994
 6590W        W22059   8.280  11.718   2.025  0.0620  0.0215  0.0341
 6591W        W22060  11.284   5.727   2.057 -0.0211  0.2467  0.2795
 6592W        W22061  12.220  12.535  13.077  0.0511  0.2195  0.0856
 6593W        W22062   5.918  14.367  13.946  0.1054  0.1557 -0.3337
 6594W        W22063   5.100   3.981   4.795 -0.1071 -0.0425  0.0464
 6595W        W22064  11.883  11.682   5.682  0.0475  0.0320 -0.0851
 6596W        W22065   6.742  10.803   4.246  0.2965 -0.0524 -0.0867
 6597W        W22066  13.422   4.646   2.291 -0.0248 -0.4550  0.0361
 6598W        W22067  18.045   6.401   1.674  0.2019 -0.2034 -0.2760
 6599W        W22068   7.452  16.007   1.158  0.0118 -0.1077  0.0533
 6600W        W22069  12.758   2.128  12.402  0.4335  0.0885  0.2024
 6601W        W22070  11.376   5.886  13.358  0.3237  0.3140 -0.1582
 6602W        W22071  17.218   8.725  13.059  0.0068 -0.2651 -0.0104
 6603W        W22072  15.859  11.310  11.810  0.2347  0.1217  0.1127
 6604W        W22073   4.794  15.463  15.540  0.2324  0.2492  0.1727
 6605W        W22074   1.686  17.065   2.581  0.0024  0.0147 -0.3112
 6606W        W22075  15.849   3.829   3.743  0.1632 -0.0100  0.0734
 6607W        W22076  16.198   7.830   4.468  0.1103 -0.1879  0.0422
 6608W        W22077   2.397  12.746   1.841 -0.0199  0.1451 -0.3288
 6609W        W22078  15.711  12.348   3.136  0.2444 -0.0355 -0.1736
 6610W        W22079   4.593   8.429   3.757 -0.2813 -0.1977 -0.0108
 6611W        W22080  16.443  10.302  14.135 -0.0887  0.0808 -0.2370
 6612W        W22081  11.939  14.269  10.716 -0.0159  0.1556 -0.0242
 6613W        W22082   8.856  15.967  15.447  0.1188 -0.0389 -0.0639
 6614W        W22083  13.951   5.549   1.521  0.1046 -0.1991 -0.1895
 6615W        W22084  15.103   8.732   2.703  0.1904  0.0163  0.2396
 6616W        W22085  17.300   6.454  12.112  0.0006 -0.0357 -0.2044
 6617W        W22086   7.222   9.810  12.794  0.1229  0.0328  0.1889
 6618W        W22087   4.605   2.181  12.687  0.0449 -0.0007  0.1407
 6619W        W22088  15.857  10.511  15.134  0.1104 -0.0853  0.2661
 6620W        W22089  15.711  15.745   1.500  0.0734  0.0682 -0.1211
 6621W        W22090  16.482   3.912  13.609 -0.2861  0.1247 -0.0445
 6622W        W22091  14.392  12.910  12.248 -0.0702 -0.3196  0.2041
 6623W        W22092   5.257   3.249  12.243 -0.1592 -0.0070 -0.2633
 6624W        W22093   9.355   5.977   3.841 -0.2557 -0.0404 -0.1870
 6625W        W22094   8.762  16.541   0.820  0.0029  0.0666  0.2958
 6626W        W22095  13.353   5.402  15.963 -0.2836 -0.0223  0.2123
 6627W        W22096   6.472   9.214   5.178 -0.1641 -0.0661 -0.1949
 6628W        W22097   5.271  16.987   3.433 -0.1585 -0.2251 -0.1718
 6629W        W22098  18.093   9.357  16.315 -0.0318  0.1125 -0.2111
 6630W        W22099  15.656   7.880  12.850  0.1340 -0.2105 -0.1647
 6631W        W22100   4.887   7.972   4.052 -0.0258 -0.0453 -0.2972
 6632W        W22101  12.876  12.404  13.815 -0.1647  0.1159 -0.1275
 6633W        W22102  17.599  14.502   3.901 -0.0412 -0.2235  0.0305
 6634W        W22103  14.455   2.302   3.149  0.0265 -0.0515 -0.1970
 6635W        W22104   9.994  16.832  11.315 -0.0499 -0.2277 -0.0713
 6636W        W22105   2.588  12.896   4.311 -0.0732 -0.4767 -0.2679
 6637W        W22106  13.160   8.524  16.043  0.0714  0.0644  0.0175
 6638W        W22107  16.454  13.322   4.536 -0.0920  0.0983  0.0274
 6639W        W22108   8.513  15.135  12.482 -0.2605 -0.0076  0.0564
 6640W        W22109  15.603  14.327  13.788  0.1061 -0.0520 -0.1744
 6641W        W22110   9.025   0.200  11.053  0.0145 -0.1341 -0.0625
 6642W        W22111  14.270  12.758   1.632 -0.0713  0.1108  0.0065
 6643W        W22112   1.791   1.399   3.375 -0.0427 -0.0387  0.1950
 6644W        W22113   9.950  11.951   4.431 -0.2257 -0.1658 -0.1982
 6645W        W22114  13.272   2.948   0.261  0.0436 -0.1402 -0.1478
 6646W        W22115  12.359   5.620  12.604 -0.1045 -0.1042 -0.0881
 6647W        W22116   1.751   2.440  12.361 -0.1658 -0.0836  0.0392
 6648W        W22117  14.421  14.634  15.852  0.1035 -0.1013 -0.0211
 6649W        W22118   6.177  17.834  16.160  0.1609  0.0569 -0.1894
 6650W        W22119   8.602   5.850   1.550  0.1228 -0.3050 -0.0384
 6651W        W22120  16.427   8.570   6.138  0.0990  0.0425 -0.1743
 6652W        W22121   8.501  14.391  14.589  0.1700  0.2230 -0.1291
 6653W        W22122  16.922  11.851   3.151 -0.2961  0.0417  0.1321
 6654W        W22123   1.931   2.663   5.940  0.3546  0.3028 -0.2925
 6655W        W22124  10.354  11.727   4.302  0.0280  0.2558  0.1636
 6656W        W22125   3.167   7.823  13.193  0.0890 -0.0426 -0.1750
 6657W        W22126  11.462   2.222   5.107 -0.1411  0.0540  0.1179
 6658W        W22127  11.741  14.788   0.189 -0.0381  0.1662  0.0594
 6659W        W22128   1.272   3.119   0.381 -0.0671  0.0085 -0.1476
 6660W        W22129  12.459  18.068   4.398  0.0024  0.0147  0.2879
 6661W        W22130  17.340   4.746   1.001  0.0293  0.1521  0.3495
 6662W        W22131   7.443   7.452   5.799  0.2599 -0.4485 -0.0216
 6663W        W22132   2.634   9.953  14.754 -0.1547 -0.0126  0.1395
 6664W        W22133  16.924   0.693   3.570  0.0204 -0.0335 -0.1373
 6665W        W22134  10.343  12.122   1.672  0.1373 -0.1081 -0.0065
 6666W        W22135   0.442  12.206   0.040  0.0838  0.2534 -0.0317
 6667W        W22136  15.568  12.858   1.709 -0.0619  0.0110 -0.1701
 6668W        W22137   7.453  14.241  11.359 -0.3858 -0.2186  0.1767
 6669W        W22138  10.397   7.065  15.408  0.0161 -0.0429 -0.0732
 6670W        W22139   4.263   5.114  11.696 -0.2191 -0.0642  0.0218
 6671W        W22140   1.227  10.253   4.729 -0.0467  0.1209 -0.0316
 6672W        W22141   3.462  13.309   1.428 -0.2351  0.2351 -0.0282
 6673W        W22142   7.987   4.550   0.922 -0.2123  0.1409 -0.1499
 6674W        W22143   6.287  13.327   2.808 -0.0480 -0.0061  0.0772
 6675W        W22144   8.987  16.198  15.044  0.0432 -0.0788  0.0051
 6676W        W22145  17.886   5.878  15.560  0.1180 -0.0156  0.0580
 6677W        W22146  13.814   4.172   0.319  0.1044  0.0742  0.1877
 6678W        W22147  12.393  14.310   1.328 -0.0767  0.1540 -0.1139
 6679W        W22148   3.982  13.351   3.667  0.5042  0.0494 -0.0235
 6680W        W22149   7.385  14.327   4.831  0.0774  0.2123  0.3087
 6681W        W22150  12.442  14.847   1.596 -0.2599 -0.0806 -0.1270
 6682W        W22151   2.204  12.136  12.810  0.1403  0.1745 -0.0854
 6683W        W22152   5.472  11.026  13.970 -0.0632  0.2998  0.1558
 6684W        W22153   7.296  16.238   3.448 -0.3576  0.3229  0.4404
 6685W        W22154  13.159   0.454  15.830 -0.0043  0.0482  0.2076
 6686W        W22155  12.541  16.212  15.819  0.1743  0.0240  0.2318
 6687W        W22156   7.299   7.136  11.346  0.0547 -0.1287  0.1411
 6688W        W22157   3.005   5.729  14.213  0.0054 -0.2744  0.0354
 6689W        W22158  15.831   1.499  13.647  0.2108  0.0457 -0.0835
 6690W        W22159   3.133   9.259   1.175 -0.0797 -0.0640  0.1552
 6691W        W22160   3.589   0.069  13.406  0.1697  0.0625 -0.3121
 6692W        W22161   0.367   5.858  13.027  0.0992  0.3986  0.1097
 6693W        W22162   7.234  16.462   4.022 -0.0673 -0.0900 -0.1779
 6694W        W22163   1.074  10.207   3.836  0.2369  0.0178 -0.0106
 6695W        W22164  11.271   9.692  12.577 -0.2018 -0.4047 -0.0311
 6696W        W22165   9.065   8.904   1.800 -0.0935 -0.1019 -0.0145
 6697W        W22166  16.202  10.419  12.116 -0.2383 -0.3200  0.1101
 6698W        W22167   4.805  13.662  13.955 -0.0160 -0.0261 -0.2297
 6699W        W22168   7.277   1.534  11.958 -0.1797  0.3832  0.0895
 6700W        W22169   3.139   6.981  11.505 -0.1604  0.2000  0.0772
 6701W        W22170   3.750  16.226  14.988  0.0589  0.1209 -0.0279
 6702W        W22171  14.396   6.550   5.697  0.0242  0.1495 -0.1057
 6703W        W22172  10.439   7.030   2.609 -0.0687  0.0564  0.0373
 6704W        W22173   0.852   7.803   1.095  0.1923  0.1046 -0.2095
 6705W        W22174  14.598   7.670  12.884  0.1424 -0.2968 -0.0143
 6706W        W22175  18.007  17.570   0.180  0.5646  0.1205 -0.1182
 6707W        W22176   8.315  14.402  11.435 -0.0214 -0.1385 -0.0484
 6708W        W22177  11.104  10.866  13.786  0.0518 -0.0109 -0.1654
 6709W        W22178  14.434   4.044  15.751 -0.3059 -0.0627 -0.0710
 6710W        W22179   1.552   0.331   3.173  0.0813 -0.1496 -0.0926
 6711W        W22180  17.784   7.844   2.991 -0.2419  0.1699 -0.1648
 6712W        W22181  11.058  10.801   2.426 -0.0413  0.2713  0.1911
 6713W        W22182  10.984   1.570  15.020  0.1068 -0.1907  0.3991
 6714W        W22183  18.002   4.260  15.180 -0.0942  0.1749  0.2438
 6715W        W22184  16.050   9.974   0.271 -0.1170  0.0732  0.1074
 6716W        W22185  17.240   4.168   0.317  0.0075  0.0461  0.2192
 6717W        W22186   0.401   8.779   3.939  0.0190  0.0674 -0.0793
 6718W        W22187  17.487  17.951  15.303 -0.1286  0.3139  0.0822
 6719W        W22188  13.169  10.375   0.461 -0.1951  0.0849  0.1608
 6720W        W22189   0.843  11.899  14.136  0.1323  0.2074  0.0493
 6721W        W22190  10.783   9.415   2.701  0.1797 -0.0971  0.0158
 6722W        W22191  12.300   6.375  16.303 -0.0151 -0.0233 -0.0867
 6723W        W22192   1.164   2.756   5.255 -0.0222 -0.3208 -0.2210
 6724W        W22193   9.781  10.594  13.908 -0.5122 -0.0651  0.5775
 6725W        W22194   2.085   8.833   0.428  0.0375 -0.3865 -0.0280
 6726W        W22195   3.816   6.405   0.493  0.0547  0.1027 -0.2397
 6727W        W22196  11.684   7.251   2.975 -0.1185 -0.1281 -0.1444
 6728W        W22197   6.988   8.155   3.462 -0.0643  0.0239  0.1036
 6729W        W22198   8.724   2.268   0.108 -0.0772 -0.0536  0.2433
 6730W        W22199  12.393  10.690  11.922 -0.4365 -0.1677 -0.1843
 6731W        W22200   4.273   2.819   4.378  0.4123  0.1841 -0.1931
 6732W        W22201  13.307   7.059   4.265  0.2550 -0.0164 -0.0284
 6733W        W22202  14.639  15.219  12.403  0.1871  0.0054  0.0829
 6734W        W22203   7.692  16.279  12.615 -0.1129 -0.0883 -0.1403
 6735W        W22204   5.672   0.013  11.862 -0.3501 -0.0750 -0.1046
 6736W        W22205  15.348   8.650  15.378 -0.0643  0.0591  0.1748
 6737W        W22206  16.144   4.999  11.843  0.2001 -0.0823  0.0717
 6738W        W22207  16.777  13.574  13.131 -0.1482  0.1093  0.2418
 6739W        W22208   9.286   9.279  12.021  0.3638  0.0951 -0.0954
 6740W        W22209   2.745   9.409   2.052 -0.1599  0.1835  0.3524
 6741W        W22210   8.577  17.930  14.652  0.1686 -0.0034 -0.0977
 6742W        W22211  15.859   7.558   1.543  0.1305 -0.1192  0.1053
 6743W        W22212   2.027   0.555  11.165  0.0346 -0.2247 -0.3264
 6744W        W22213   4.657  14.271   5.605  0.2076 -0.2030  0.0373
 6745W        W22214  14.153   4.482   5.310 -0.1414 -0.0707 -0.0023
 6746W        W22215  16.448  11.937   2.869 -0.0629  0.1729  0.0699
 6747W        W22216   1.994   6.754   0.738 -0.1472 -0.0566 -0.0756
 6748W        W22217  12.044   1.435  12.343  0.0865  0.1567 -0.2650
 6749W        W22218   6.188  13.825   2.084  0.2815  0.1826 -0.0079
 6750W        W22219   0.220  13.385   4.092  0.0165  0.2552  0.0660
 6751W        W22220   6.693   5.630  15.236  0.0593 -0.0783 -0.3078
 6752W        W22221  14.400   2.985   1.348 -0.1499  0.1452 -0.2297
 6753W        W22222   1.404  15.634  12.183  0.0166 -0.2881 -0.2021
 6754W        W22223  16.426   4.018   4.987 -0.0219 -0.2626 -0.0623
 6755W        W22224   5.646   6.239   6.326  0.1260  0.4138  0.0074
 6756W        W22225   2.730  16.982  13.334 -0.1273 -0.1132 -0.1926
 6757W        W22226  13.003  12.162   3.793 -0.0413  0.1317  0.1261
 6758W        W22227  11.677   6.568  13.751  0.2898 -0.0764 -0.0935
 6759W        W22228  16.069   5.563   5.890  0.0270  0.0263 -0.0717
 6760W        W22229   7.222   0.054   0.324 -0.1243  0.1656 -0.1240
 6761W        W22230   0.245   7.690  15.274 -0.1649 -0.0585  0.0942
 6762W        W22231   8.862   0.751  12.259  0.1621 -0.0329  0.1947
 6763W        W22232   1.524   9.031  12.883 -0.2227 -0.0128  0.4005
 6764W        W22233  16.884   8.425  15.316 -0.0208  0.0169 -0.2087
 6765W        W22234   8.177   1.423  11.113 -0.1496  0.0684  0.3451
 6766W        W22235   5.503  12.501  10.123  0.0062 -0.1760 -0.1592
 6767W        W22236  14.036  13.603   2.410  0.0281 -0.0984 -0.0189
 6768W        W22237   9.391   4.214  11.232  0.0290  0.3291  0.1615
 6769W        W22238  12.088   5.239  12.388  0.1089  0.2850  0.1822
 6770W        W22239  11.468  10.567   3.199  0.1064  0.0468  0.1476
 6771W        W22240   7.884  14.003   1.098 -0.0989  0.0909 -0.2563
 6772W        W22241   0.779  12.296   0.414 -0.1646 -0.0743 -0.1030
 6773W        W22242  12.486   2.110  11.887 -0.1985 -0.0626 -0.1958
 6774W        W22243  16.554  10.952   3.591  0.1109 -0.3334 -0.1732
 6775W        W22244  16.195   6.753   0.370 -0.2684  0.0836  0.1559
 6776W        W22245   7.241  13.794   0.308  0.1313  0.0849 -0.2128
 6777W        W22246  15.023  14.456  11.216  0.0407  0.2562  0.0905
 6778W        W22247  12.689   7.746   1.516  0.0586 -0.2271  0.0430
 6779W        W22248  15.609   5.846  11.539  0.1889  0.0206 -0.2985
 6780W        W22249   8.393   2.056   5.376 -0.1068 -0.0922  0.1217
 6781W        W22250  10.964   2.280  14.285 -0.0878 -0.1046 -0.2373
 6782W        W22251  14.053  17.091   3.587 -0.0638 -0.3036 -0.3034
 6783W        W22252   4.997   2.756  12.157  0.2910  0.1746 -0.0938
 6784W        W22253   9.145  10.131   0.978  0.1613 -0.0289  0.4408
 6785W        W22254  17.051  17.971   4.657  0.2501 -0.1093  0.0250
 6786W        W22255   0.058   0.924  14.723 -0.0277 -0.2038 -0.1303
 6787W        W22256   8.354  14.063   3.088 -0.1272  0.2196  0.1928
 6788W        W22257   5.241  12.686   2.659 -0.0907 -0.0274 -0.2156
 6789W        W22258   3.909   1.135   3.999 -0.1784 -0.1168  0.0396
 6790W        W22259   4.244   0.506  14.271 -0.2631 -0.1478  0.2732
 6791W        W22260  10.516   0.684  12.091 -0.1867  0.2259  0.0504
 6792W        W22261   0.860   8.872   1.999  0.1112  0.0259  0.0833
 6793W        W22262   8.661   1.173   3.398  0.1587  0.2514  0.0488
 6794W        W22263   2.939  17.373  10.531 -0.1031  0.2047 -0.1218
 6795W        W22264  11.227  15.103   4.987 -0.0843 -0.0722  0.2649
 6796W        W22265   1.618   2.830  11.511 -0.1547  0.2090  0.4160
 6797W        W22266   9.294   8.998   4.970 -0.1605 -0.2783  0.2194
 6798W        W22267   6.361  14.314   0.399 -0.0671 -0.0876  0.1998
 6799W        W22268   4.060   4.802  14.227  0.0452 -0.0608  0.1398
 6800W        W22269  15.999  13.917   2.390  0.2020  0.2004 -0.1935
 6801W        W22270   2.795   8.281  14.171  0.0785 -0.2585  0.3628
 6802W        W22271   5.777  13.027  11.309  0.1872  0.1514  0.1421
 6803W        W22272   5.210   2.807  15.012 -0.0885 -0.1098 -0.0016
 6804W        W22273   1.733   4.028  12.092  0.2931  0.1154  0.0556
 6805W        W22274  16.417   1.257  14.755 -0.1674 -0.0485  0.0337
 6806W        W22275  17.672   1.382  15.991  0.1414 -0.0744 -0.0170
 6807W        W22276  14.810   6.370   3.802  0.2111 -0.2392 -0.2829
 6808W        W22277  15.124  10.406   3.156  0.0614  0.1688 -0.2743
 6809W        W22278   6.974   8.134   0.771 -0.1989  0.0249  0.0499
 6810W        W22279   7.257  16.790  15.478 -0.0878  0.2305 -0.1755
 6811W        W22280   3.549  10.674   1.910 -0.0161  0.2575 -0.1589
 6812W        W22281   2.304   6.874  12.668  0.1121 -0.0772  0.1304
 6813W        W22282   6.567   6.559  12.491 -0.1523 -0.0568 -0.1381
 6814W        W22283   6.055   3.137  10.336  0.0146 -0.0380  0.1387
 6815W        W22284  12.581   8.089   6.318 -0.1988  0.1262  0.0417
 6816W        W22285  15.204  10.296   0.848 -0.1126  0.1447  0.1599
 6817W        W22286   3.339  11.338   0.507  0.1877  0.2880  0.0495
 6818W        W22287   6.682  17.966   4.349  0.3015  0.0901  0.0756
 6819W        W22288  15.696   7.812  15.332 -0.1321  0.2007  0.0775
 6820W        W22289  11.005   0.301  13.381  0.3633 -0.0504 -0.0723
 6821W        W22290  13.727   9.481  15.874  0.2639  0.2039  0.0007
 6822W        W22291  10.742   0.385   0.372 -0.0382  0.1934  0.0146
 6823W        W22292   7.871   7.578   2.241 -0.0653 -0.2154 -0.0389
 6824W        W22293  11.320  13.471   0.394 -0.4621 -0.1638  0.0860
 6825W        W22294  16.403   5.678   3.449 -0.1830  0.0149  0.2121
 6826W        W22295   2.253   5.685  13.600  0.0470 -0.0233  0.0740
 6827W        W22296  10.188   5.425   2.838  0.3476  0.0220 -0.0524
 6828W        W22297  14.226  11.648  12.327  0.2898 -0.1018 -0.2010
 6829W        W22298  16.400  14.088   4.886  0.2204 -0.2044 -0.1177
 6830W        W22299   0.136  15.057   2.915 -0.1205 -0.2624 -0.2224
 6831W        W22300   2.234  12.455  11.520  0.0525 -0.0565  0.1308
 6832W        W22301  14.695   1.517  15.245  0.0171 -0.0653 -0.1795
 6833W        W22302   4.093   7.853   0.660  0.0618 -0.1113 -0.2218
 6834W        W22303   7.235  10.170   3.205 -0.1779  0.0737  0.1719
 6835W        W22304   2.694   2.845  13.560  0.0573 -0.0884 -0.0239
 6836W        W22305  15.786  17.790  12.832 -0.2255  0.0150 -0.2374
 6837W        W22306   6.869  12.335  12.423  0.1243  0.1844  0.0068
 6838W        W22307  13.115   1.838   1.527 -0.1927  0.1884 -0.0835
 6839W        W22308  15.059   4.845  14.854  0.4120  0.0197 -0.2267
 6840W        W22309   8.919  17.224  15.692 -0.0786 -0.3053 -0.1737
 6841W        W22310  13.415  11.812   1.518  0.2472 -0.2297 -0.0500
 6842W        W22311   0.952   7.632  11.666  0.1563 -0.1313  0.2046
 6843W        W22312  10.330  13.299  12.080 -0.0207 -0.0541 -0.1119
 6844W        W22313   5.285  15.274   3.225  0.0516 -0.0983 -0.1537
 6845W        W22314  12.151   9.901   0.285  0.0443  0.1051  0.1868
 6846W        W22315   8.515   3.608   0.069 -0.0061 -0.0995 -0.2774
 6847W        W22316   4.618   7.325  14.816  0.0561 -0.1361 -0.2224
 6848W        W22317   5.239  14.265  12.753  0.2841 -0.2602  0.0037
 6849W        W22318   7.887   8.790   5.419 -0.2050 -0.0765  0.1083
 6850W        W22319  10.309   9.339  14.511  0.2854 -0.0525 -0.0531
 6851W        W22320   6.122   8.224   4.406 -0.1106 -0.1724 -0.2900
 6852W        W22321   8.926  12.313   4.924 -0.0780  0.0852  0.1593
 6853W        W22322  13.870   2.813   3.742 -0.0364  0.0043 -0.1112
 6854W        W22323  17.526   8.552  11.802 -0.2180  0.0368 -0.1725
 6855W        W22324   8.486   5.481   5.553 -0.1396 -0.1553  0.1896
 6856W        W22325   1.447  15.523   5.211  0.0064  0.2842 -0.1441
 6857W        W22326   8.696   7.568   3.639  0.3287  0.2582 -0.0495
 6858W        W22327   2.704   2.019  14.752  0.0158 -0.1269 -0.3608
 6859W        W22328   1.547  12.000   3.095 -0.1339 -0.4276  0.2279
 6860W        W22329  10.304   8.641   1.106 -0.5818 -0.0113 -0.1630
 6861W        W22330   5.716  10.326   4.719 -0.0001  0.3391  0.0236
 6862W        W22331  13.191  16.626   2.017 -0.0741 -0.2116 -0.0158
 6863W        W22332   3.172   7.739   4.723 -0.0869  0.0031 -0.1133
 6864W        W22333   8.684   1.129   0.373 -0.0736  0.0584 -0.3345
 6865W        W22334  13.836   2.780   2.120 -0.1169  0.2097 -0.0834
 6866W        W22335   0.839  11.814  15.027 -0.0923  0.1507  0.0688
 6867W        W22336   0.196   2.920  12.147  0.1412  0.0546  0.0591
 6868W        W22337   8.795   0.500  13.340 -0.0242 -0.0933  0.0505
 6869W        W22338  16.325  13.167  13.679 -0.1075 -0.0926  0.1908
 6870W        W22339   0.973   7.835  12.095  0.1653  0.0678  0.1450
 6871W        W22340   8.566   9.724   5.045 -0.0963  0.0110  0.0988
 6872W        W22341  10.370  15.301   1.967  0.3424 -0.1197 -0.1369
 6873W        W22342  12.359  17.100  11.933  0.0476  0.0760  0.0477
 6874W        W22343  11.641   3.459  11.914  0.1438 -0.1622 -0.1507
 6875W        W22344   4.137  16.070  14.113  0.1012 -0.0673  0.0039
 6876W        W22345   9.379   6.073  14.147  0.0295  0.1756  0.1324
 6877W        W22346   5.027  10.258   3.991 -0.2080 -0.1608 -0.0528
 6878W        W22347   2.471   3.180   4.226 -0.1159 -0.3089  0.0634
 6879W        W22348   3.393  16.503   4.675 -0.1767 -0.4229  0.0164
 6880W        W22349  13.983  11.218  15.114 -0.0009  0.0045  0.1512
 6881W        W22350   1.013   0.481  12.953 -0.2186  0.1163 -0.3502
 6882W        W22351  12.440  16.452   5.253 -0.2856 -0.0124 -0.2631
 6883W        W22352  12.446   9.099   0.662 -0.5554 -0.0615  0.0395
 6884W        W22353   1.342   4.678   5.252  0.1773  0.4635 -0.1579
 6885W        W22354   2.973   9.349   2.493  0.0237  0.0703  0.2790
 6886W        W22355   8.658  13.293   2.603 -0.1005  0.1460  0.0797
 6887W        W22356  10.126   5.055  15.881 -0.1206 -0.0396 -0.0387
 6888W        W22357  15.787   4.985   3.465  0.0785 -0.0812  0.4917
 6889W        W22358   4.627   9.334   2.884  0.1386  0.0760  0.1310
 6890W        W22359   1.226   1.770   0.639  0.0583  0.0568 -0.0992
 6891W        W22360   6.840  16.249   4.346  0.0860  0.1818 -0.1451
 6892W        W22361   1.065   4.563   4.792  0.1477 -0.1490  0.1697
 6893W        W22362  13.013   3.953   1.704 -0.0245  0.0732 -0.0413
 6894W        W22363   1.071  13.869   4.212  0.3647  0.0214  0.0618
 6895W        W22364  11.191   0.332   4.657 -0.1636  0.1257 -0.0424
 6896W        W22365  16.721   8.779   3.178 -0.0079 -0.4126  0.2668
 6897W        W22366   5.233  16.927  14.388 -0.2685 -0.2232 -0.0521
 6898W        W22367   6.030  10.875   0.882 -0.0342  0.0854  0.1388
 6899W        W22368  15.868  17.858   4.027 -0.0019  0.2234 -0.0260
 6900W        W22369   2.029  16.119   3.577  0.2366  0.0309  0.1113
 6901W        W22370   6.702   6.018  13.186  0.0258  0.0649 -0.1617
 6902W        W22371   2.285   5.714   1.240 -0.0177 -0.1627  0.2712
 6903W        W22372   2.247   3.722  13.773 -0.1843 -0.0066  0.1700
 6904W        W22373  16.321   9.515   1.426  0.1691  0.0804  0.0834
 6905W        W22374   4.767   1.503  11.838  0.3410  0.2972 -0.0382
 6906W        W22375   3.333   5.124  11.481  0.0149 -0.0456 -0.0286
 6907W        W22376  16.820   5.757   0.225  0.0647  0.0661 -0.3367
 6908W        W22377  13.788  10.410  13.587 -0.1171 -0.4440 -0.0890
 6909W        W22378  16.111   4.700   1.133  0.3743 -0.0552 -0.0122
 6910W        W22379   4.981  13.113   0.450 -0.0362 -0.1155  0.3930
 6911W        W22380   7.991  10.766   4.160 -0.3189 -0.0794  0.0261
 6912W        W22381  11.541  16.109  12.781 -0.1410 -0.0655 -0.1512
 6913W        W22382   9.849  12.606  16.047  0.1117  0.2721  0.1678
 6914W        W22383   8.802  15.790   5.411 -0.2030 -0.1809  0.3562
 6915W        W22384  17.951  15.289   4.338  0.0197  0.0031 -0.1009
 6916W        W22385  14.057   2.936   5.188 -0.4253  0.0792 -0.0737
 6917W        W22386   6.680   5.881   1.133  0.2404 -0.0414 -0.1210
 6918W        W22387   0.185   7.676  14.293 -0.0153 -0.3720 -0.0155
 6919W        W22388  14.453  15.217   2.768  0.2439  0.0001  0.1128
 6920W        W22389   3.315  16.538   3.334 -0.1530  0.0060 -0.0316
 6921W        W22390   2.230  14.097   2.725  0.1821 -0.0597 -0.0054
 6922W        W22391   3.228   8.949   4.440  0.1519 -0.0054 -0.0666
 6923W        W22392  12.396  12.185  11.738  0.1500  0.0346 -0.1188
 6924W        W22393  13.487   9.392   3.421 -0.1152  0.1576 -0.0902
 6925W        W22394   7.596   7.052  11.804 -0.3801  0.3507  0.3612
 6926W        W22395   6.979   3.432   1.104 -0.3216  0.1111  0.3128
 6927W        W22396  15.891   6.284   1.189 -0.3802 -0.0536  0.0527
 6928W        W22397   0.249   0.429  14.695 -0.3645  0.1070  0.2123
 6929W        W22398   6.485  15.191  15.100 -0.0876 -0.0256 -0.1924
 6930W        W22399   8.019  11.446  14.790 -0.1662  0.1412 -0.0469
 6931W        W22400   6.054   3.819   2.977  0.2277 -0.0535  0.2085
 6932W        W22401  13.900   0.564  12.759  0.1345 -0.0886  0.0004
 6933W        W22402  18.037   9.751   3.487  0.3620 -0.2047  0.3368
 6934W        W22403  13.953  10.462   1.241 -0.2645  0.1271  0.1786
 6935W        W22404   5.954  10.586   1.655  0.2997 -0.1607  0.1808
 6936W        W22405   0.881  12.844   1.675 -0.4081 -0.5604  0.1993
 6937W        W22406  13.685  14.498  12.302  0.0180 -0.0262 -0.4896
 6938W        W22407   0.479  15.427  13.515  0.2097 -0.1380 -0.0911
 6939W        W22408  14.167  10.891  16.076  0.0380 -0.0076  0.2058
 6940W        W22409   0.313  16.603   1.142  0.0305  0.2738 -0.1535
 6941W        W22410   5.011   1.898   3.605 -0.0364  0.0600  0.0714
 6942W        W22411  14.367  10.972  13.073  0.1565 -0.2063 -0.0840
 6943W        W22412  11.093  11.635  15.037 -0.0606 -0.3616 -0.0816
 6944W        W22413  13.493   0.898  13.672 -0.0697  0.0849 -0.1558
 6945W        W22414   8.126   2.177  13.298 -0.0335 -0.2697 -0.0789
 6946W        W22415  16.349   5.757  13.109  0.0622 -0.2377  0.0090
 6947W        W22416  15.265  14.657  12.360  0.3586 -0.1301  0.0403
 6948W        W22417   8.173   0.235   0.293 -0.0634  0.0934 -0.1718
 6949W        W22418   5.912   0.091   2.750 -0.0555  0.0963 -0.2315
 6950W        W22419   6.262   8.836  15.010  0.0513  0.2592 -0.0692
 6951W        W22420   0.905   7.891  13.923  0.0680 -0.3166 -0.1573
 6952W        W22421  12.505   9.646   0.558  0.1837  0.0142 -0.0971
 6953W        W22422  10.188   9.393   1.826 -0.0613 -0.1144  0.2791
 6954W        W22423   3.348  14.365  15.222 -0.0400 -0.0262 -0.0091
 6955W        W22424  11.763  14.378  15.318  0.3177 -0.0107  0.3438
 6956W        W22425   5.301   0.899  12.868  0.1871  0.0380 -0.2238
 6957W        W22426   2.363   3.227   3.296  0.0293  0.1478  0.2653
 6958W        W22427  13.853   8.066  15.107 -0.0592  0.0936 -0.3182
 6959W        W22428   3.722  16.889   2.583 -0.0722  0.3556 -0.2121
 6960W        W22429  10.072   0.041  13.554  0.1281  0.1041  0.0170
 6961W        W22430   7.951   5.540   0.472 -0.1164  0.0405  0.0222
 6962W        W22431   7.982   0.592   4.323  0.1182  0.0314 -0.0121
 6963W        W22432   2.018   4.896  11.944 -0.3392 -0.0276  0.2262
 6964W        W22433   7.825   6.666  14.912 -0.0786  0.1648 -0.1189
 6965W        W22434  17.409   8.092   1.580  0.0241  0.4713  0.0875
 6966W        W22435   3.143  15.715   2.146  0.1094  0.1151 -0.1187
 6967W        W22436   6.201   7.161  12.319 -0.0052 -0.1476 -0.1720
 6968W        W22437  12.690   8.407   2.088 -0.1081 -0.0008 -0.0880
 6969W        W22438  17.558   7.518  13.709 -0.0819  0.0966  0.0028
 6970W        W22439   4.400   2.877   4.993 -0.0492 -0.0676 -0.1460
 6971W        W22440   4.731   6.182  12.436 -0.0867  0.3026 -0.1029
 6972W        W22441   4.443  11.745  12.609 -0.1216 -0.2125 -0.2284
 6973W        W22442   3.392   5.579   4.510  0.0711 -0.0196  0.0779
 6974W        W22443   6.846   2.545  14.475 -0.0196  0.0215  0.0083
 6975W        W22444  11.515  11.684  11.373  0.2010 -0.0071 -0.2046
 6976W        W22445   9.376  11.683  16.036 -0.0211  0.2706  0.0621
 6977W        W22446   6.638  15.579  15.788  0.0922  0.2368  0.1853
 6978W        W22447   4.971  11.379  10.414  0.0525  0.0340  0.0189
 6979W        W22448   1.865  10.967   1.448  0.2874 -0.0013  0.1661
 6980W        W22449  17.715  17.908  11.808 -0.0990  0.0070  0.0717
 6981W        W22450   5.199   5.822   1.101  0.1907 -0.0020  0.0835
 6982W        W22451   3.599   8.156   3.556 -0.4597  0.2182 -0.3391
 6983W        W22452  15.045   9.834   5.060 -0.2605 -0.1005 -0.0166
 6984W        W22453   7.201   3.152   3.955  0.1501 -0.0598  0.3370
 6985W        W22454  15.796  15.249  13.525 -0.1622 -0.0214 -0.0598
 6986W        W22455   4.909  12.151   3.046 -0.0553 -0.0051  0.0320
 6987W        W22456   9.935   7.811   4.979 -0.0478  0.0259  0.3742
 6988W        W22457  12.552   2.693   6.403 -0.1918 -0.0674 -0.4024
 6989W        W22458  12.280   7.300   4.102  0.1054 -0.1560 -0.0585
 6990W        W22459  17.945  13.731   4.098 -0.4402 -0.1195 -0.2462
 6991W        W22460   1.632  13.990  13.765 -0.1767 -0.2781 -0.1185
 6992W        W22461  10.455  17.696   4.491 -0.0497 -0.1693  0.2396
 6993W        W22462  10.890  10.965  11.980 -0.4172 -0.0111  0.0276
 6994W        W22463   2.493   5.757   0.024 -0.1291 -0.0325 -0.0301
 6995W        W22464  15.846   6.454   0.691  0.2300  0.2598  0.0980
 6996W        W22465   9.232  11.379  11.454  0.1986  0.0967  0.0320
 6997W        W22466   4.865   8.883  11.748 -0.2296 -0.2224 -0.0205
 6998W        W22467  17.806  11.206   1.118  0.1180  0.5870  0.0424
 6999W        W22468   7.262   4.153   1.612  0.3566 -0.0199 -0.1252
 7000W        W22469  15.517   7.508   2.615  0.2140 -0.0865 -0.2801
 7001W        W22470   8.429   7.523   5.421 -0.1424 -0.1260  0.0229
 7002W        W22471   8.002   0.869   4.754  0.2383 -0.0156  0.0735
 7003W        W22472   7.325   1.058   4.162 -0.0884  0.3799  0.0543
 7004W        W22473   6.585   2.062  14.340 -0.0475 -0.1305  0.2872
 7005W        W22474   7.849   9.349  12.353  0.0755 -0.0190 -0.0830
 7006W        W22475   6.016   8.387   0.405 -0.0521  0.0083  0.4038
 7007W        W22476   8.904  15.426  13.272 -0.0783 -0.3033  0.3200
 7008W        W22477   9.729   9.653  11.227  0.0465 -0.0916 -0.1325
 7009W        W22478  13.681   5.643   4.468  0.1877 -0.0964  0.0526
 7010W        W22479   6.169   7.858   4.758  0.2422  0.1355  0.0831
 7011W        W22480   4.571  10.836   0.084 -0.5127  0.1137 -0.1885
 7012W        W22481  16.504   2.305  15.983 -0.2450 -0.1100 -0.0276
 7013W        W22482  10.876  15.419  16.095 -0.1591  0.1583 -0.1151
 7014W        W22483  16.293   6.672  13.282  0.0254  0.0601 -0.0781
 7015W        W22484   3.095  15.300  14.431  0.1286 -0.0558 -0.2966
 7016W        W22485   2.000   3.374  12.525 -0.0994 -0.0476  0.2119
 7017W        W22486  14.361  15.793  11.517 -0.1730 -0.0226  0.1610
 7018W        W22487   5.027   4.364   3.528  0.0559 -0.1487  0.0013
 7019W        W22488  16.266  15.280  15.517  0.1683 -0.0312  0.0135
 7020W        W22489  18.095   3.111   5.903 -0.0280 -0.1116 -0.0220
 7021W        W22490  18.011  16.167  13.120  0.0828  0.1819 -0.1918
 7022W        W22491   0.814  15.310   2.608 -0.0716  0.2172 -0.0424
 7023W        W22492  16.357  14.799   4.314 -0.2398 -0.0087  0.0305
 7024W        W22493  15.653  10.184   2.520 -0.0013 -0.0756 -0.0313
 7025W        W22494  12.531   4.401  11.981 -0.0937 -0.3026 -0.1606
 7026W        W22495  16.688  10.630  15.001 -0.0425  0.1017  0.2601
 7027W        W22496   1.560  16.604   2.879  0.1192 -0.1396  0.0537
 7028W        W22497  17.038  15.409   2.721 -0.2589 -0.2173  0.2168
 7029W        W22498  12.454   1.444  15.463  0.0462  0.2329  0.0750
 7030W        W22499   5.844   7.669  13.532 -0.1152 -0.1313  0.0593
 7031W        W22500   0.296   5.339  11.860 -0.1126  0.3723  0.0516
 7032W        W22501   5.293  13.387  12.263  0.2164  0.2000 -0.1381
 7033W        W22502  14.753   0.736  15.668 -0.0199 -0.0367  0.0154
 7034W        W22503  10.024   1.765  15.128 -0.0987  0.0599  0.1159
 7035W        W22504   9.399   9.569   3.907  0.2487 -0.1095 -0.0279
 7036W        W22505  11.389   4.730   0.503  0.1615 -0.1150 -0.0898
 7037W        W22506   1.828   2.545   0.254 -0.1548  0.0807 -0.0256
 7038W        W22507   3.169   1.771  12.523 -0.0323  0.0630  0.0278
 7039W        W22508   5.538  12.756   1.309  0.2697 -0.0111 -0.0463
 7040W        W22509  14.689  17.679  16.280 -0.2002  0.0407 -0.1441
 7041W        W22510   2.595   2.125  11.773  0.1525  0.0933 -0.0775
 7042W        W22511   6.366  17.824  15.268  0.2004  0.2362  0.1451
 7043W        W22512  15.752  13.641  14.202  0.0319  0.2430 -0.0833
 7044W        W22513   6.952   3.176  12.043 -0.1764 -0.3072  0.1090
 7045W        W22514  10.258   3.209   1.894  0.3705 -0.1028 -0.1366
 7046W        W22515   7.013  18.059   4.780  0.2024  0.0428  0.1751
 7047W        W22516  11.197  17.976   3.864 -0.2122 -0.2506  0.0404
 7048W        W22517   0.157   7.224  15.114  0.1185 -0.0292 -0.2364
 7049W        W22518   1.023  10.719   1.361 -0.0364 -0.1672  0.0695
 7050W        W22519   3.815   5.021  12.244  0.2597 -0.0798  0.1503
 7051W        W22520   8.033  14.557  15.408 -0.0246  0.0613 -0.2793
 7052W        W22521   5.107   0.794   5.032  0.0046 -0.2438  0.4181
 7053W        W22522   6.410   8.841   5.981 -0.1578  0.1390  0.0768
 7054W        W22523  17.478  15.403   2.917  0.3193 -0.0249 -0.1292
 7055W        W22524   5.836  17.346   1.393 -0.1121  0.2219  0.0551
 7056W        W22525  13.063   2.110  15.582  0.1870  0.0049 -0.0606
 7057W        W22526   8.456   0.433  12.919  0.4664 -0.1163  0.1617
 7058W        W22527   6.759  10.032   4.945  0.2436 -0.0198 -0.1432
 7059W        W22528   3.580   6.326   2.462 -0.1278  0.3063  0.1652
 7060W        W22529   4.394  15.427  13.604  0.5365  0.0916  0.0193
 7061W        W22530  14.024   8.092  12.459 -0.1387  0.1212  0.0790
 7062W        W22531  16.136  16.374  16.274 -0.1924 -0.0931  0.0803
 7063W        W22532  15.648  10.338  11.822  0.1975 -0.1479 -0.2238
 7064W        W22533  14.870   7.749   1.625  0.1527 -0.0660 -0.0604
 7065W        W22534  12.197  14.455   0.400  0.0321 -0.2353  0.1246
 7066W        W22535   8.639   0.471   2.078 -0.0133  0.0005 -0.0989
 7067W        W22536  15.984   1.372  14.989 -0.1636 -0.1609 -0.3486
 7068W        W22537  10.646  17.329  10.376 -0.0103 -0.0798  0.3996
 7069W        W22538  11.389   6.382   3.938  0.3844  0.1194 -0.1986
 7070W        W22539   3.979   6.736  11.527 -0.2949  0.0229 -0.0234
 7071W        W22540  16.159  11.503   1.036  0.0892  0.0227  0.0911
 7072W        W22541   6.067   5.213  13.458 -0.1210  0.0834  0.2713
 7073W        W22542   1.254   9.266   2.450 -0.1234 -0.2577  0.2126
 7074W        W22543   2.891   1.231   4.251  0.2728  0.0859 -0.2020
 7075W        W22544   5.739   9.663  14.775 -0.0662 -0.0738  0.0316
 7076W        W22545   7.928   7.835  10.436 -0.0620 -0.1418 -0.2165
 7077W        W22546  16.172   5.150  12.936 -0.0888  0.1212  0.1699
 7078W        W22547   7.837   7.323  14.694 -0.2772  0.1453  0.1447
 7079W        W22548  15.465  16.600  15.904 -0.0486  0.0142 -0.1813
 7080W        W22549   6.344   9.796  15.301 -0.0760  0.3154 -0.0990
 7081W        W22550   0.237   1.234   0.802  0.1159  0.2146  0.0039
 7082W        W22551   7.842   1.718  14.849  0.0924 -0.2516 -0.1141
 7083W        W22552   8.457   0.863   3.011  0.1754 -0.2250  0.0132
 7084W        W22553   6.919   4.089   3.981  0.1775 -0.0555 -0.0045
 7085W        W22554  11.136  16.997   2.490  0.0837  0.3482  0.3659
 7086W        W22555   6.355   1.019   6.043 -0.1871 -0.2316  0.0424
 7087W        W22556  12.274   5.451  11.992 -0.2259  0.2250 -0.0307
 7088W        W22557   2.099   5.791   2.949  0.0572  0.1235  0.1374
 7089W        W22558   7.111   9.930  14.303 -0.1048  0.2135 -0.1924
 7090W        W22559   0.827   1.080   1.972 -0.3475 -0.2736  0.2955
 7091W        W22560  14.343   1.610  13.813  0.1934  0.0390  0.1188
 7092W        W22561  11.860   9.039  14.724 -0.0537  0.0008 -0.0406
 7093W        W22562  15.983   8.337   3.630  0.3067 -0.3838  0.2275
 7094W        W22563  10.985   8.449   2.948 -0.1158  0.0296  0.0390
 7095W        W22564   9.222  17.651  13.136 -0.0459  0.0464  0.2589
 7096W        W22565  12.274   5.861   5.539 -0.0389 -0.0399  0.0057
 7097W        W22566  12.572   5.700   5.174 -0.0955 -0.0890 -0.0647
 7098W        W22567   0.335  13.039  12.702 -0.0520  0.0391 -0.0633
 7099W        W22568   5.018  15.153  12.406  0.0742 -0.1716  0.1161
 7100W        W22569   3.638  18.084  15.056 -0.1465  0.0914  0.3153
 7101W        W22570  14.295   4.282  15.310  0.1525 -0.0341  0.1281
 7102W        W22571   0.691   3.932  12.082 -0.3061 -0.0732 -0.3327
 7103W        W22572   1.802   5.363  16.000  0.0455  0.3328 -0.1366
 7104W        W22573   5.915  13.166  10.800  0.0608  0.1164  0.1553
 7105W        W22574   0.099  14.723   1.201 -0.4158  0.2159 -0.3353
 7106W        W22575  14.976  16.194   3.833  0.1297 -0.4077 -0.2052
 7107W        W22576   0.711   9.614  13.654 -0.2801 -0.4176 -0.3218
 7108W        W22577   6.766  14.826  10.818  0.2687 -0.1356  0.0741
 7109W        W22578   3.010   5.291  11.964 -0.0409 -0.0789  0.3569
 7110W        W22579  12.857  15.190   4.941 -0.1265 -0.3142 -0.0212
 7111W        W22580  16.202   6.452   2.776  0.2368 -0.1036  0.0032
 7112W        W22581  15.145   5.076   2.341  0.2353  0.1874 -0.2537
 7113W        W22582  11.628   7.509   0.654 -0.0897 -0.0839 -0.0284
 7114W        W22583  12.453  17.955  16.147  0.1213  0.0422  0.2127
 7115W        W22584  17.346  17.027   3.116  0.1258 -0.2344 -0.0552
 7116W        W22585  11.378   3.179  15.176 -0.1436 -0.2559  0.0106
 7117W        W22586   7.176  10.153   4.455  0.0617  0.0522  0.0089
 7118W        W22587   0.955   1.903  12.629  0.0980 -0.2060 -0.2965
 7119W        W22588  15.077   3.090  11.290  0.1389  0.1754 -0.2075
 7120W        W22589   4.405  13.454  13.638 -0.0213 -0.0768 -0.2575
 7121W        W22590  14.903  13.377  13.211 -0.4020  0.3854 -0.3698
 7122W        W22591  16.939   9.545  13.685  0.0162 -0.4094  0.1462
 7123W        W22592   2.874   8.501   0.258  0.0781  0.2593 -0.1229
 7124W        W22593  16.014   5.836   0.184  0.1566  0.0940  0.1863
 7125W        W22594  10.596   0.869   6.562  0.2948  0.2584  0.1440
 7126W        W22595  15.341  11.194  11.725 -0.1026  0.1852 -0.0651
 7127W        W22596  15.770  16.081   1.937  0.0520 -0.1251 -0.2932
 7128W        W22597  16.629   9.565   1.947  0.2345  0.0482 -0.0432
 7129W        W22598   2.131   4.498   5.104  0.2059 -0.1919  0.0621
 7130W        W22599  16.295   1.414   3.854  0.4390  0.3783  0.0498
 7131W        W22600   6.902  17.251   5.152 -0.0449 -0.1776  0.1850
 7132W        W22601  18.066  11.835   1.758 -0.0548  0.1827 -0.1374
 7133W        W22602  12.820   8.743  14.528  0.0007 -0.2835  0.3776
 7134W        W22603  11.460  13.532   3.434  0.0042 -0.2909 -0.4672
 7135W        W22604   3.489   1.752   2.624 -0.0408  0.0133 -0.2290
 7136W        W22605  17.739   0.092   2.567  0.1393 -0.1276  0.0370
 7137W        W22606  11.637  17.551  13.564  0.0717 -0.1851 -0.2992
 7138W        W22607   5.097   9.646  12.057  0.0329  0.0652 -0.1829
 7139W        W22608  16.226  16.145  12.263 -0.0757  0.1555  0.1598
 7140W        W22609  15.982  12.214   0.205  0.1780 -0.1623 -0.2829
 7141W        W22610  12.572  13.746   2.488 -0.1139 -0.0443 -0.0647
 7142W        W22611   9.236  16.089   5.299  0.0348  0.0215  0.2568
 7143W        W22612  15.443  10.903  12.566 -0.1122 -0.1623 -0.0193
 7144W        W22613  11.386  10.715  15.161  0.2048 -0.2776  0.1702
 7145W        W22614  10.136  14.838   3.876 -0.3064  0.2183 -0.0382
 7146W        W22615   2.644   2.517   0.500 -0.0054 -0.1095  0.2230
 7147W        W22616   1.006   6.697  14.502 -0.0306  0.6053  0.0403
 7148W        W22617  15.423   5.829  12.805  0.2128  0.2294 -0.3359
 7149W        W22618  16.424   8.156   2.781  0.3265  0.0025 -0.1937
 7150W        W22619  11.351  12.061   2.065 -0.0090  0.1867 -0.3290
 7151W        W22620  13.500   4.129   2.089  0.5499 -0.0805  0.1083
 7152W        W22621   6.988   2.655   4.163  0.0298 -0.1680  0.0638
 7153W        W22622   6.881  11.288   5.190 -0.0137 -0.2217 -0.0088
 7154W        W22623  17.412  15.626   4.267  0.0111 -0.3684 -0.3197
 7155W        W22624   3.181  17.524  12.449 -0.1004  0.1856 -0.1025
 7156W        W22625   4.647  12.728   0.533 -0.1864  0.1172 -0.2452
 7157W        W22626   1.137   2.182  11.643 -0.1157 -0.1705 -0.1833
 7158W        W22627  10.581  16.049  11.721  0.1234 -0.1055 -0.0376
 7159W        W22628   4.860  16.002  12.480  0.0627 -0.3275 -0.2121
 7160W        W22629  17.711  16.616  12.482  0.0648  0.1020 -0.0728
 7161W        W22630   8.177   5.313   3.310 -0.1031  0.1862 -0.4297
 7162W        W22631   2.991   4.877   0.347 -0.0067 -0.0187 -0.0010
 7163W        W22632   8.324   1.739  10.734 -0.0247  0.3172 -0.2294
 7164W        W22633  12.586   0.972  11.522 -0.1439  0.1334  0.0155
 7165W        W22634  11.224   0.475  12.198  0.0499 -0.2067 -0.2982
 7166W        W22635   5.766  17.261  13.098  0.0567  0.2111  0.0086
 7167W        W22636  10.364   6.583   3.677 -0.1676  0.1208 -0.1494
 7168W        W22637   7.602   3.273   5.446  0.0881 -0.1940  0.1625
 7169W        W22638   5.776   7.406  13.985 -0.0126 -0.0250  0.0424
 7170W        W22639   7.570  14.771  15.569 -0.2839  0.1155 -0.1941
 7171W        W22640  15.225   7.818  15.620  0.1231 -0.0965 -0.0359
 7172W        W22641   7.713   5.214   3.031 -0.1632 -0.1437 -0.1911
 7173W        W22642   1.781  13.358   2.812 -0.1627 -0.0082  0.0344
 7174W        W22643  11.516   5.926  10.320 -0.3604 -0.1361 -0.1233
 7175W        W22644  15.908   4.228   2.428 -0.0550 -0.0854  0.2144
 7176W        W22645  17.226   8.368   2.474  0.0521  0.1278 -0.2667
 7177W        W22646   4.872   3.286   2.404 -0.2980 -0.0385  0.0439
 7178W        W22647   5.046  15.184   0.998 -0.1372  0.2851  0.4153
 7179W        W22648   0.431  13.468   3.322 -0.0192 -0.0530  0.1992
 7180W        W22649   3.575   9.997   0.582 -0.0854  0.0664  0.0694
 7181W        W22650   6.991  12.806   0.994  0.2613 -0.0420  0.1441
 7182W        W22651  16.292   6.474  11.136 -0.0795  0.0191 -0.3440
 7183W        W22652   5.477   3.422  14.563  0.2010  0.3519 -0.0242
 7184W        W22653  10.824  10.901   1.378 -0.1052  0.2244  0.1259
 7185W        W22654  16.186  14.423   0.303  0.3976 -0.3073 -0.0358
 7186W        W22655   7.254   4.278  11.315  0.0825  0.0708  0.2454
 7187W        W22656  11.536  18.062   3.259  0.0942  0.2205 -0.0888
 7188W        W22657   5.287  15.337  11.401  0.0018  0.1965  0.0253
 7189W        W22658  14.850   5.281  14.482  0.2563 -0.0109 -0.1010
 7190W        W22659   5.084   5.071   0.102  0.0861  0.1985  0.0687
 7191W        W22660  13.199  15.474   3.941 -0.1803 -0.1515  0.2799
 7192W        W22661  15.722   6.959   0.493 -0.0282  0.3485 -0.3028
 7193W        W22662   4.028   9.565  15.785  0.2334  0.1476  0.1069
 7194W        W22663  16.133   2.340  13.833 -0.1552  0.0820  0.1104
 7195W        W22664   2.362   6.674   0.408 -0.0114  0.0497  0.3738
 7196W        W22665  17.319  10.539   2.625 -0.0372  0.0879  0.0614
 7197W        W22666   7.009  14.682   1.557 -0.2084  0.0698  0.1828
 7198W        W22667   4.944  12.658   3.109 -0.0410  0.1550  0.0985
 7199W        W22668  12.240  14.396  11.731 -0.0910  0.2158 -0.2196
 7200W        W22669   6.462  11.838   3.962  0.0506 -0.1210  0.0199
 7201W        W22670   2.752  17.553  15.044  0.3149  0.2158  0.0442
 7202W        W22671   6.882  16.532  11.931  0.1749 -0.2433 -0.0413
 7203W        W22672  17.355   0.403  16.260  0.0463  0.3843 -0.0649
 7204W        W22673  14.951  12.771   5.087 -0.1578 -0.0951 -0.4365
 7205W        W22674   7.722   6.584   3.731 -0.3254  0.0583  0.1982
 7206W        W22675   1.734   3.350   4.781  0.1550  0.0578 -0.2251
 7207W        W22676  13.702  10.103   1.601  0.0630 -0.1005 -0.2325
 7208W        W22677  11.505  16.283  15.335  0.2924 -0.3243 -0.1758
 7209W        W22678   6.623  16.840  11.584  0.2313  0.1331 -0.0138
 7210W        W22679  11.653   9.120   0.205 -0.1486  0.1925 -0.3626
 7211W        W22680  12.258  14.442  14.130  0.3837 -0.1154  0.1893
 7212W        W22681  17.569   9.295   0.371 -0.0777  0.1008  0.0274
 7213W        W22682   8.564  15.209   1.075  0.4109  0.2504  0.0916
 7214W        W22683   7.945  16.191  16.027 -0.3071  0.3416 -0.1460
 7215W        W22684   9.585   5.126  15.704  0.0316 -0.3881 -0.4360
 7216W        W22685   8.047   8.696   0.701 -0.1081  0.1174 -0.1761
 7217W        W22686   5.363   5.470  14.058 -0.0679  0.0683 -0.2294
 7218W        W22687   1.475  13.517  13.014  0.1050 -0.1433 -0.0360
 7219W        W22688   5.076   4.514   3.030  0.2269  0.0397  0.0694
 7220W        W22689   7.371   2.792  15.629 -0.3649 -0.0937 -0.3470
 7221W        W22690  13.184   5.632   3.171 -0.2066  0.0324 -0.2636
 7222W        W22691   2.277  15.981  12.556 -0.2520 -0.1016 -0.1463
 7223W        W22692  16.200  17.694  14.362  0.0986 -0.1087 -0.0498
 7224W        W22693   6.469  14.943  13.499  0.0550  0.0535 -0.0913
 7225W        W22694  10.850   5.437   2.045  0.0103  0.1473 -0.2295
 7226W        W22695  16.836   7.613  12.378 -0.2858 -0.1486 -0.0903
 7227W        W22696   0.880   0.994   3.579 -0.0306  0.0476  0.0840
 7228W        W22697  14.442   3.207   4.987  0.0174 -0.2023 -0.0616
 7229W        W22698  10.432  13.104   2.634  0.1151 -0.2578 -0.0783
 7230W        W22699  14.975  13.977   1.384 -0.2324 -0.0252 -0.0799
 7231W        W22700   0.705   4.975   0.743  0.0853  0.1983 -0.1545
 7232W        W22701   2.237  12.889   0.956 -0.1480  0.1414  0.3688
 7233W        W22702  12.056  12.111   3.664 -0.0037 -0.0942  0.2338
 7234W        W22703  13.592  15.515  14.048  0.2027 -0.1562  0.2929
 7235W        W22704  17.856  10.603   6.117  0.2411  0.2915 -0.1463
 7236W        W22705   2.437  17.939   2.813 -0.0361 -0.0871 -0.1365
 7237W        W22706   8.884  17.125   3.235  0.0037  0.0824 -0.0777
 7238W        W22707  16.878  16.602   1.794 -0.5179  0.1284  0.0112
 7239W        W22708   2.253  15.880  14.849  0.0877 -0.0331 -0.0873
 7240W        W22709  12.491  15.906   4.051 -0.1697  0.0134  0.2950
 7241W        W22710  16.819  13.886  16.098 -0.3796 -0.3872 -0.1058
 7242W        W22711   6.698   2.876   3.792 -0.0017  0.0099  0.0364
 7243W        W22712  10.344   5.873   3.142 -0.1395  0.0685 -0.1678
 7244W        W22713  11.173   9.405   5.160  0.0467  0.3471 -0.0469
 7245W        W22714  12.970   7.948   1.081  0.2812  0.0248 -0.1522
 7246W        W22715  13.503   1.698   2.994  0.1298  0.2718  0.0948
 7247W        W22716  14.866  15.462   0.035  0.1872  0.1428  0.4267
 7248W        W22717  16.699   1.438   1.705  0.1388  0.1096  0.1460
 7249W        W22718   1.835  15.831   4.029  0.1100 -0.0431 -0.0134
 7250W        W22719   5.147   5.050  13.117 -0.0488  0.0012 -0.0485
 7251W        W22720   0.997   0.070   1.966 -0.1900 -0.1790  0.2081
 7252W        W22721  17.074  17.678   2.933  0.3089  0.1035 -0.2538
 7253W        W22722   6.437  15.691   2.090 -0.1748  0.0620  0.0119
 7254W        W22723  11.435   1.327  13.800  0.0034  0.0871 -0.1841
 7255W        W22724   4.497  16.627   0.955 -0.0487  0.4252 -0.2916
 7256W        W22725  12.477  12.344   3.850 -0.1365  0.2352  0.1917
 7257W        W22726   4.290   0.408  16.041  0.3380 -0.0608  0.1947
 7258W        W22727  17.296  16.228   2.541 -0.1394 -0.1116  0.1286
 7259W        W22728   5.167  12.518   1.040  0.0051  0.0826  0.0603
 7260W        W22729   0.334   9.107   4.668 -0.0768  0.0844  0.1049
 7261W        W22730   1.187  14.437   5.656 -0.0329 -0.0206 -0.3951
 7262W        W22731   6.473  12.876  13.963 -0.2797 -0.0677 -0.1456
 7263W        W22732   0.296  16.935   0.768 -0.0700  0.1449  0.0483
 7264W        W22733  17.076  16.937   0.983  0.0179  0.0572 -0.0893
 7265W        W22734  12.288   8.018   0.352 -0.0932  0.2150 -0.2702
 7266W        W22735   4.847   3.233  10.948  0.3396 -0.0049 -0.0809
 7267W        W22736  17.139   8.843  10.711 -0.5208  0.0893 -0.1634
 7268W        W22737  11.062  16.477   2.103 -0.1143  0.2424 -0.0349
 7269W        W22738   6.554   7.754  15.611  0.1010 -0.2086 -0.0807
 7270W        W22739   6.127  16.331   4.696  0.1887  0.0924  0.0146
 7271W        W22740  10.207  12.831   2.258 -0.2603 -0.0679  0.1405
 7272W        W22741   3.875   3.373  14.294 -0.2027 -0.0163  0.0739
 7273W        W22742  13.531  14.380  14.855  0.2483 -0.1544 -0.3600
 7274W        W22743  15.567  10.488  14.192 -0.0610 -0.1197 -0.1461
 7275W        W22744  17.862  16.233   4.783  0.0430 -0.1081 -0.3180
 7276W        W22745   4.289   6.315  12.907  0.0597 -0.2959 -0.0371
 7277W        W22746   0.167   7.094   3.804 -0.1564  0.1520 -0.0362
 7278W        W22747   5.986   2.096   4.847 -0.0280  0.2967  0.1384
 7279W        W22748  13.450   6.290   0.125  0.0263 -0.0948 -0.0035
 7280W        W22749   7.846  14.226  12.300  0.0608  0.0458  0.0021
 7281W        W22750  11.392   5.552   0.256  0.1608 -0.0903 -0.1253
 7282W        W22751  17.521  17.474   1.351 -0.1449  0.3571  0.0281
 7283W        W22752   9.327   4.094   1.365 -0.4000 -0.2605  0.2533
 7284W        W22753  14.776  16.868  12.606  0.4831  0.0449 -0.0521
 7285W        W22754  15.448  17.910   1.877 -0.2402  0.2325 -0.3957
 7286W        W22755   7.561   7.130   0.200  0.1786 -0.0567  0.3315
 7287W        W22756   1.064  13.930  14.525 -0.0225 -0.2100  0.0962
 7288W        W22757   3.015   0.938   5.054 -0.0010 -0.3790 -0.1886
 7289W        W22758   5.559  11.426   3.486  0.2861  0.0982  0.0472
 7290W        W22759  11.521   9.104   5.154 -0.2183 -0.0861 -0.2363
 7291W        W22760   1.690   2.930  13.493  0.1660  0.0300  0.0632
 7292W        W22761  12.454   1.931  14.026 -0.1829  0.3096 -0.0689
 7293W        W22762   7.815  15.097  11.761 -0.0665 -0.0916  0.0916
 7294W        W22763  17.722   7.263   2.295  0.1963 -0.1183  0.1108
 7295W        W22764   8.998  11.334   2.396  0.2408  0.0659  0.0574
 7296W        W22765   0.524  13.466  13.370  0.0013  0.0814  0.2331
 7297W        W22766  13.596   7.080   3.242 -0.2093  0.0770 -0.0812
 7298W        W22767  14.917  18.020   4.156  0.1287  0.2339  0.1328
 7299W        W22768  15.739   4.995   1.568 -0.1384 -0.1295 -0.2276
 7300W        W22769  12.216  17.463   1.946 -0.3386  0.1826 -0.0302
 7301W        W22770   1.174   3.291   4.153 -0.0567 -0.0068 -0.1481
 7302W        W22771  10.838  12.911   0.739 -0.2003 -0.1025 -0.0387
 7303W        W22772  12.259  10.773  16.045 -0.3366 -0.1788 -0.3668
 7304W        W22773  10.874   1.746  11.641  0.0241 -0.2218  0.1246
 7305W        W22774   1.215   1.187   4.494 -0.3707  0.0388 -0.1349
 7306W        W22775   3.699  13.126   1.821 -0.0993  0.0779 -0.1625
 7307W        W22776   9.167   8.727  15.743 -0.2553 -0.1647 -0.1932
 7308W        W22777  16.200   4.219   3.423  0.2198  0.3751 -0.1587
 7309W        W22778  17.827   6.771  13.256  0.0162  0.0704  0.2898
 7310W        W22779   4.714   5.327  11.469  0.1005 -0.0916  0.2025
 7311W        W22780  13.669   7.066  12.003 -0.0212 -0.1618  0.2810
 7312W        W22781  16.984   8.647   1.252  0.4309  0.1890  0.1094
 7313W        W22782   1.228   5.230  12.357  0.2614 -0.1342  0.1020
 7314W        W22783   9.091   2.590   0.847  0.1409  0.3229  0.1332
 7315W        W22784   5.888  17.620   0.799 -0.0648  0.2141 -0.2043
 7316W        W22785  17.426   3.648  14.644 -0.0817 -0.2870  0.0977
 7317W        W22786  11.723   2.033   5.489 -0.0658  0.0113  0.2016
 7318W        W22787  12.167   5.374   5.395 -0.0393 -0.0289 -0.2774
 7319W        W22788   5.330  10.593  11.817 -0.0560 -0.1201 -0.0080
 7320W        W22789   4.949  14.159   3.796 -0.0873 -0.3421  0.2227
 7321W        W22790  17.378   0.519   2.322 -0.0413  0.1880  0.2528
 7322W        W22791  13.236   8.840   2.732  0.2372  0.0824  0.0468
 7323W        W22792   7.066   8.051   0.249  0.0501 -0.0282  0.2315
 7324W        W22793  13.161  15.383  15.645  0.0203  0.3074  0.0337
 7325W        W22794   3.458   2.940   0.202 -0.1243  0.0481  0.0964
 7326W        W22795   5.925   8.184  14.682 -0.0490 -0.0074  0.0141
 7327W        W22796   5.193  10.824   1.663 -0.1400 -0.2626 -0.0032
 7328W        W22797  17.478   3.086   2.811  0.1380  0.1640 -0.0310
 7329W        W22798   6.960   0.277   1.782 -0.0704  0.3723 -0.2828
 7330W        W22799   1.276   3.920   3.368 -0.0353  0.1452 -0.0112
 7331W        W22800  13.094  18.041   4.532  0.1263  0.1645  0.3577
 7332W        W22801  14.331  10.652   3.592 -0.2203 -0.1443  0.1039
 7333W        W22802  11.224   9.683  15.583  0.0346 -0.2666 -0.0340
 7334W        W22803  13.414   5.677  15.452 -0.2076 -0.2004  0.2448
 7335W        W22804   0.897  14.382   4.248 -0.2080 -0.2095  0.0941
 7336W        W22805   0.280   7.082   5.634 -0.0169 -0.0205 -0.0931
 7337W        W22806   4.460  11.056  14.528 -0.0917 -0.1082 -0.2741
 7338W        W22807   9.252  13.513  10.805 -0.0139 -0.0328  0.1808
 7339W        W22808   4.947  13.804   5.346 -0.0599  0.0173  0.1350
 7340W        W22809   2.026  11.598   2.357  0.2129 -0.3164  0.0599
 7341W        W22810   7.148  18.097   2.700  0.0992  0.2886 -0.0157
 7342W        W22811   1.575   5.896   3.007 -0.2938 -0.1555  0.1486
 7343W        W22812  12.147  10.905   2.041 -0.3766 -0.3780  0.1607
 7344W        W22813  16.932  16.444  15.567 -0.0091 -0.1469 -0.0524
 7345W        W22814   1.013   5.953  15.652  0.1900  0.0421  0.3644
 7346W        W22815   2.890   7.400   4.990 -0.0524 -0.0183 -0.0035
 7347W        W22816   3.653   9.097   1.177  0.0993 -0.1405 -0.0364
 7348W        W22817   9.002  17.675   6.134 -0.2880 -0.0535  0.1675
 7349W        W22818   3.994   1.668   3.865  0.2428  0.2656 -0.3419
 7350W        W22819   5.835  16.004   0.891 -0.0464 -0.0510 -0.3109
 7351W        W22820   4.951   3.493   5.103 -0.1267  0.0900 -0.0878
 7352W        W22821   0.431   4.833   0.332  0.1769  0.1100 -0.1628
 7353W        W22822   9.052   1.009   5.169  0.2005 -0.0608 -0.0044
 7354W        W22823   7.809   9.517   4.038  0.2134  0.0213  0.1391
 7355W        W22824   4.359  16.544  14.237  0.2968  0.0713  0.3604
 7356W        W22825   6.324   7.237   2.686  0.4070  0.2826  0.0372
 7357W        W22826   9.187   0.777  12.623 -0.0862 -0.1122  0.2059
 7358W        W22827   0.095  14.566   2.585 -0.0244 -0.0508  0.1532
 7359W        W22828  13.091  16.672  13.596  0.1162  0.0012 -0.1510
 7360W        W22829   2.059   8.342   5.306  0.1614 -0.1327  0.2225
 7361W        W22830   8.258  14.928  12.877 -0.1501  0.0065 -0.1291
 7362W        W22831  16.030  11.531  12.239 -0.0218 -0.1370  0.0185
 7363W        W22832   1.669  13.803  12.385  0.2144  0.0724 -0.1181
 7364W        W22833   2.522   5.073  11.940 -0.2055  0.1393 -0.0305
 7365W        W22834   9.034   2.980   4.600  0.1433  0.0257  0.0905
 7366W        W22835   1.941   1.923   3.460 -0.1611  0.0694  0.0518
 7367W        W22836  17.339   3.597  11.372  0.0562  0.1356 -0.5030
 7368W        W22837  14.322  15.515   4.090 -0.0772 -0.3180  0.1908
 7369W        W22838  16.703   0.773  14.584 -0.2640 -0.1151 -0.0622
 7370W        W22839   4.413  13.310  16.006 -0.3330  0.1845 -0.1454
 7371W        W22840   0.748   2.492   5.455 -0.1139 -0.0510 -0.1394
 7372W        W22841   2.344   2.725  15.811  0.2134 -0.1476 -0.1368
 7373W        W22842   4.731   5.821   3.948  0.0152 -0.3125  0.0494
 7374W        W22843  14.653  14.105   5.786  0.1838 -0.0231  0.1403
 7375W        W22844  17.754   1.521   4.727  0.1595 -0.3076 -0.0383
 7376W        W22845   5.858   4.292  11.006  0.0849 -0.0783  0.0577
 7377W        W22846  12.833   9.262   5.271 -0.0401  0.2473  0.2475
 7378W        W22847  10.789   3.172  11.658  0.1905 -0.0160 -0.0713
 7379W        W22848  10.679  10.592   4.602  0.0232 -0.2167  0.2651
 7380W        W22849  14.397  17.381   3.056  0.0492  0.0866 -0.2883
 7381W        W22850  12.981   7.343   4.538  0.3646  0.1318  0.2223
 7382W        W22851   5.698  13.003   3.444 -0.2400 -0.2047 -0.3739
 7383W        W22852  13.124  11.321  15.338 -0.1358  0.1252  0.0527
 7384W        W22853   8.128  11.847   4.803  0.0620  0.0505 -0.0657
 7385W        W22854  15.243   6.158  13.148  0.3042 -0.3852 -0.0343
 7386W        W22855  14.983   7.722  14.586  0.1698  0.0618  0.0051
 7387W        W22856  10.903  11.177  15.850  0.1016 -0.2540 -0.1164
 7388W        W22857   6.711  17.642   1.432  0.0068 -0.0184 -0.2340
 7389W        W22858   4.734  11.365   0.363  0.1637 -0.1894 -0.2467
 7390W        W22859   5.444  16.147   5.151 -0.0617 -0.0917 -0.0482
 7391W        W22860   9.783  10.313  10.582 -0.2232 -0.2078 -0.0034
 7392W        W22861  17.343  15.114   4.406  0.1202  0.1012 -0.1329
 7393W        W22862   7.809  16.313   3.432  0.1756  0.0700  0.2987
 7394W        W22863   2.183  10.729  15.205 -0.1401  0.1717 -0.1097
 7395W        W22864   9.928  15.341  13.994 -0.0885 -0.3246 -0.3326
 7396W        W22865  17.057  10.862   4.504 -0.4332 -0.2292  0.0233
 7397W        W22866  15.051   3.011  10.452 -0.3673 -0.3843  0.0918
 7398W        W22867  17.478  18.057   3.595  0.0936  0.0203 -0.1847
 7399W        W22868   1.228  13.513  11.484 -0.1349 -0.1435 -0.0385
 7400W        W22869  14.948  12.312   4.266 -0.0013 -0.0592 -0.3045
 7401W        W22870  10.799   9.939  12.619 -0.1378 -0.1102 -0.0011
 7402W        W22871  14.927  10.393  13.623  0.3767 -0.2876 -0.3119
 7403W        W22872  14.983   2.084  15.957 -0.1091  0.2267  0.0497
 7404W        W22873  16.041   7.840   2.751 -0.1644 -0.0554 -0.0080
 7405W        W22874   0.280  15.605   2.147  0.1511  0.0437  0.1142
 7406W        W22875   5.236  12.402   1.557 -0.1045  0.0075 -0.0007
 7407W        W22876   0.220   3.866   1.886  0.2990 -0.2147 -0.0075
 7408W        W22877  17.418  12.017  13.500 -0.0768  0.0077 -0.2094
 7409W        W22878   0.481   7.217   0.082  0.1211 -0.0766 -0.0095
 7410W        W22879   9.541  11.361  13.239 -0.2125 -0.1546  0.3157
 7411W        W22880  11.230  13.247   4.880  0.1274  0.2186  0.0224
 7412W        W22881  16.564   4.552  14.709  0.2237 -0.1113  0.1976
 7413W        W22882   3.155  12.423   3.231  0.0601 -0.0412  0.0943
 7414W        W22883  13.989  13.450   3.312 -0.2484  0.1525 -0.2277
 7415W        W22884   2.665  14.672   3.686  0.2265  0.5038 -0.0228
 7416W        W22885   9.285   4.533   5.047 -0.2475 -0.3654 -0.1602
 7417W        W22886  12.927   2.218  13.937 -0.1665 -0.1183  0.0381
 7418W        W22887   6.075  14.110   0.030  0.1022  0.0913  0.2916
 7419W        W22888  13.602   4.536   0.581  0.1848  0.0472 -0.1380
 7420W        W22889  13.308   0.792   3.611  0.0986 -0.0221 -0.1538
 7421W        W22890   3.145   8.275   5.945  0.0623  0.5845  0.0090
 7422W        W22891   0.005  10.848   0.481  0.0242  0.1099  0.2758
 7423W        W22892   9.615   0.601  11.558  0.0726  0.1215 -0.1738
 7424W        W22893  12.879   2.816  11.932  0.1013  0.2701 -0.1416
 7425W        W22894  13.136  12.844   0.738  0.0372 -0.0251  0.1750
 7426W        W22895   8.690   5.463  11.943 -0.0765 -0.0532  0.0174
 7427W        W22896  13.476   5.646   5.614  0.2605 -0.1653 -0.0637
 7428W        W22897   4.499  17.270   2.293 -0.0491 -0.1209 -0.0419
 7429W        W22898  17.638  11.052   0.148  0.0068 -0.1898  0.0674
 7430W        W22899  14.913   5.388  12.536  0.2016 -0.2089  0.0548
 7431W        W22900  11.592  15.040   5.912 -0.0609 -0.0478 -0.3118
 7432W        W22901   6.229  16.540  13.593  0.3676 -0.0101  0.0290
 7433W        W22902   0.292  14.102   0.627 -0.0135 -0.0339 -0.1398
 7434W        W22903   0.156   6.451   3.825 -0.0568 -0.0305  0.1348
 7435W        W22904   5.487   7.321   3.485  0.0085 -0.1166  0.0292
 7436W        W22905  11.480  12.711  14.653 -0.1209 -0.1631 -0.0824
 7437W        W22906  13.470  13.323  12.939 -0.1757  0.0131 -0.2271
 7438W        W22907   8.225   3.417   6.291 -0.0939 -0.3184 -0.4159
 7439W        W22908   3.028  13.141   4.518  0.0871  0.0087 -0.1086
 7440W        W22909   5.556  10.885   5.196  0.2400 -0.1978 -0.0631
 7441W        W22910  13.402  16.334  12.865 -0.1098  0.0687  0.2871
 7442W        W22911   9.993  10.952   3.261 -0.0687  0.1728 -0.1188
 7443W        W22912   7.782   8.355   0.371  0.1606 -0.3965 -0.1099
 7444W        W22913  15.967  15.916   3.701 -0.2465 -0.1443 -0.0561
 7445W        W22914   7.997  11.157  15.263 -0.3139 -0.2067 -0.1543
 7446W        W22915  15.410  10.222   2.139  0.0044  0.4604  0.1488
 7447W        W22916  16.816   7.912  14.155 -0.0269 -0.1100  0.1926
 7448W        W22917   2.567  12.703   4.805  0.0154 -0.2360  0.2453
 7449W        W22918   9.938   7.802  11.671 -0.1202 -0.0708  0.1601
 7450W        W22919   7.339  13.845  15.716  0.0318  0.0180 -0.1075
 7451W        W22920  17.219   4.285  15.371 -0.2333  0.0298 -0.0500
 7452W        W22921  16.170   6.945   2.570 -0.2517 -0.1462  0.1288
 7453W        W22922  14.877   9.010   1.955 -0.0197 -0.1766  0.1624
 7454W        W22923  13.197  13.208   2.343  0.3195  0.0716 -0.0392
 7455W        W22924   8.772  12.776   2.461 -0.1219  0.1616  0.0291
 7456W        W22925  16.659  13.341  14.133 -0.0539  0.2153  0.0337
 7457W        W22926   0.330   0.354  10.827 -0.1098 -0.0651 -0.2760
 7458W        W22927   9.950  10.651  12.238  0.0760 -0.1345  0.0550
 7459W        W22928  15.640  12.997   0.160 -0.0325  0.2075  0.2887
 7460W        W22929   1.493   8.981  14.568 -0.3227 -0.1630 -0.1727
 7461W        W22930  10.157   2.586  12.217 -0.2236 -0.0562 -0.0595
 7462W        W22931   2.117   8.248  11.973 -0.0237  0.1335  0.4599
 7463W        W22932  12.215  12.052  14.431 -0.1984 -0.0374 -0.0090
 7464W        W22933   5.013   4.571   5.082 -0.0114 -0.1070  0.0633
 7465W        W22934   4.977   2.608  14.261 -0.0207 -0.0647  0.2243
 7466W        W22935   0.679   2.945   1.774 -0.1126 -0.1355 -0.0188
 7467W        W22936   3.963  11.778   4.317  0.0710 -0.2273 -0.1710
 7468W        W22937  11.086   7.406  11.946 -0.1775  0.1872  0.1358
 7469W        W22938   5.952   8.466  14.260  0.0311 -0.0027 -0.2346
 7470W        W22939   8.589   9.592  11.642  0.1295 -0.2521 -0.0142
 7471W        W22940   3.562  10.815  13.026 -0.2347 -0.2399  0.1077
 7472W        W22941  10.199   9.442  10.912  0.0372  0.1908  0.0813
 7473W        W22942   9.096  13.310   3.181  0.1190  0.4549  0.1453
 7474W        W22943  12.492   7.347   5.843  0.2784 -0.0039  0.0174
 7475W        W22944  13.131   2.990   3.191  0.0037  0.0948  0.1158
 7476W        W22945   1.562  16.872   0.311  0.0840 -0.1385 -0.1297
 7477W        W22946  14.747  14.864   3.518 -0.0195  0.0196 -0.3059
 7478W        W22947  13.277  16.861   1.100 -0.2793  0.3079 -0.2158
 7479W        W22948   2.892   8.078  15.361 -0.3102  0.2002 -0.1081
 7480W        W22949  14.880   9.685   0.728  0.0103  0.0378  0.1681
 7481W        W22950  14.630   1.893   2.990  0.3066  0.0411 -0.2294
 7482W        W22951  16.119   8.097   1.308  0.0546  0.0568 -0.1377
 7483W        W22952  15.896   6.920  16.303  0.2164 -0.0749 -0.3200
 7484W        W22953   8.071  16.461   1.424  0.0968  0.2774  0.1644
 7485W        W22954  15.958   1.243  15.473  0.0158 -0.3011 -0.3287
 7486W        W22955   7.032   8.751  12.700  0.0181 -0.1745 -0.0085
 7487W        W22956  15.198   7.286  12.415 -0.0562 -0.0894  0.0708
 7488W        W22957  15.408  14.202  15.895 -0.1784 -0.1545 -0.3639
 7489W        W22958   3.445   3.191  14.384  0.1335 -0.1745 -0.0084
 7490W        W22959   6.027  16.624  14.034  0.3549  0.1956 -0.1577
 7491W        W22960  13.989   8.232  13.382 -0.1557  0.0627  0.0737
 7492W        W22961   3.148   7.592   1.671  0.1517  0.0674  0.2396
 7493W        W22962   3.728  11.888  11.999  0.1768  0.2594  0.1144
 7494W        W22963  14.317   5.505  15.756  0.1295 -0.2797  0.0055
 7495W        W22964   2.998  15.766  11.998 -0.2969 -0.0886 -0.1223
 7496W        W22965  11.241  17.514  13.121  0.0249  0.2836  0.0852
 7497W        W22966   1.655   9.187   3.164 -0.4458 -0.1914 -0.1077
 7498W        W22967  16.236   6.210   5.272  0.0370  0.2173 -0.0886
 7499W        W22968   9.222  14.339  13.578 -0.2705 -0.1674  0.0311
 7500W        W22969  18.034   4.727  12.744  0.0051  0.0057  0.1280
 7501W        W22970   1.196  13.291  13.903 -0.0175  0.0237  0.2245
 7502W        W22971   7.937  10.682   0.635  0.0417 -0.1184  0.1046
 7503W        W22972  16.694  17.998   1.870  0.1867 -0.1336 -0.0897
 7504W        W22973   9.926   4.981   4.381  0.0932  0.1121 -0.0863
 7505W        W22974   4.534   9.365   2.392 -0.1706 -0.0565 -0.2034
 7506W        W22975   6.819  15.640   5.582 -0.0130  0.2273 -0.1077
 7507W        W22976   2.180  18.093   1.211  0.1840  0.0420  0.1895
 7508W        W22977   5.173  10.494   3.602 -0.0812  0.0583  0.0872
 7509W        W22978   7.357  13.097  14.938  0.2386 -0.4973 -0.1102
 7510W        W22979   6.564   4.612   3.239 -0.3115  0.0917 -0.4235
 7511W        W22980  12.490  12.100  13.779  0.0063  0.1156  0.1144
 7512W        W22981   2.031   4.517  13.264  0.1749  0.1198  0.0775
 7513W        W22982  11.890   6.750  14.225  0.0224 -0.1686  0.0196
 7514W        W22983  12.752   0.212   4.082  0.2725  0.4541 -0.1275
 7515W        W22984  17.153  14.142   4.259  0.2236 -0.1300  0.0331
 7516W        W22985   8.138   1.105  14.785 -0.0415  0.1125 -0.1323
 7517W        W22986   7.013  12.046   2.760  0.1374 -0.1016  0.0994
 7518W        W22987   7.695   1.247  11.996  0.1647 -0.2485  0.2412
 7519W        W22988  12.142   8.043  12.247 -0.0356 -0.1215  0.0953
 7520W        W22989  15.344   9.387   4.882 -0.1277 -0.2125 -0.1561
 7521W        W22990   2.141  15.470  11.698  0.0820 -0.1786 -0.0619
 7522W        W22991   8.549   8.008   2.925  0.0021 -0.0491 -0.0184
 7523W        W22992   5.418  13.765  15.707 -0.1703 -0.0681 -0.0270
 7524W        W22993  12.426  17.177  14.704 -0.0972  0.0954 -0.2209
 7525W        W22994  17.348  16.885  15.379  0.2757 -0.4064  0.0709
 7526W        W22995  12.253  10.703  15.543 -0.0142  0.2456 -0.0334
 7527W        W22996  10.084  16.662   3.676  0.1907 -0.0519 -0.1968
 7528W        W22997   6.310   0.842   0.565  0.2631  0.1265 -0.0653
 7529W        W22998  13.311   0.147   2.279  0.3074 -0.0978 -0.3169
 7530W        W22999  16.458   4.677   3.564  0.0011 -0.2201 -0.1942
 7531W        W23000  14.235  11.616  10.790  0.1613  0.0380  0.1923
 7532W        W23001   5.745   0.694   3.225 -0.0928 -0.2524  0.0625
 7533W        W23002   9.555   4.879  16.114 -0.0849 -0.3674  0.0644
 7534W        W23003   5.266   3.540   4.157  0.2225 -0.4030 -0.1584
 7535W        W23004   1.441  14.246  14.432  0.0623 -0.0444  0.0040
 7536W        W23005  11.187   7.425  11.476 -0.1391 -0.2858  0.2469
 7537W        W23006   5.777  13.619   4.539 -0.0088  0.0997 -0.0317
 7538W        W23007   2.456   7.330   0.232 -0.2244 -0.0394 -0.0856
 7539W        W23008   1.361  14.752   4.878 -0.1571 -0.0939  0.2076
 7540W        W23009   7.579   8.143  16.280 -0.0395 -0.0119  0.0977
 7541W        W23010   3.716   9.055   0.076 -0.2138 -0.2014 -0.1184
 7542W        W23011  11.063  15.765  12.834 -0.1283 -0.0754 -0.2075
 7543W        W23012  13.578  12.331  14.346 -0.2135  0.2179  0.0571
 7544W        W23013   8.995   2.593  12.251  0.1013 -0.0474 -0.0528
 7545W        W23014  12.234   2.230  13.238  0.0109 -0.1231 -0.1025
 7546W        W23015   2.898  11.122  11.174 -0.3196 -0.0451 -0.0426
 7547W        W23016   2.117   0.821   4.058  0.1855  0.3259 -0.1022
 7548W        W23017   2.372   0.573   2.435  0.0410 -0.3010  0.2338
 7549W        W23018  13.713   3.274   2.030  0.0843 -0.1796 -0.0883
 7550W        W23019   6.568   8.345   3.558  0.1858  0.2018  0.1248
 7551W        W23020  11.723   6.153  12.107 -0.0707 -0.0400  0.0347
 7552W        W23021  17.149  12.788   2.939 -0.0923 -0.0873 -0.1866
 7553W        W23022   9.939   0.603  11.937  0.0199  0.0990 -0.0973
 7554W        W23023   3.040   8.680   1.363  0.0743 -0.2241  0.3713
 7555W        W23024  13.729  13.619  12.540  0.3267  0.0584 -0.2548
 7556W        W23025   0.738   3.365  15.397  0.1078 -0.0112 -0.0132
 7557W        W23026   6.110  15.429   4.766  0.0331 -0.0133 -0.0883
 7558W        W23027  12.336   7.466   6.324 -0.0116 -0.3047 -0.0264
 7559W        W23028  16.581  17.147  13.814 -0.0959  0.1039  0.1346
 7560W        W23029  14.967   8.052  12.145  0.1790 -0.1246  0.0225
 7561W        W23030  16.870  12.925   1.703 -0.3151  0.0986 -0.1597
 7562W        W23031  14.979   2.252   2.910 -0.0342 -0.1763 -0.1045
 7563W        W23032  13.641  14.151   3.195  0.1582 -0.0672 -0.1015
 7564W        W23033   6.319   2.491   0.745 -0.1867 -0.1796  0.0669
 7565W        W23034   3.104  17.159   3.336 -0.2561 -0.1459 -0.0762
 7566W        W23035  17.560   1.445  11.958 -0.0599  0.1827 -0.1828
 7567W        W23036  18.039   0.675   3.115 -0.1529  0.0877  0.3308
 7568W        W23037   3.076  17.080   2.725  0.0290  0.2104 -0.1072
 7569W        W23038   3.336   7.986  11.171 -0.2407  0.2940 -0.3014
 7570W        W23039   2.730  10.620   2.684 -0.2412 -0.4848 -0.1381
 7571W        W23040  13.396   7.416   6.455  0.4074  0.1000 -0.1562
 7572W        W23041   7.540   9.631  11.577 -0.1090 -0.1630  0.3049
 7573W        W23042   8.045   6.922  11.539 -0.1355 -0.0957  0.1761
 7574W        W23043  16.606  14.830  15.256 -0.1578 -0.0241 -0.2019
 7575W        W23044  15.335   2.241  13.932 -0.0775  0.1322  0.0438
 7576W        W23045  14.790   7.786   3.485 -0.0473 -0.0393 -0.0571
 7577W        W23046   5.841  17.645   4.195 -0.0978  0.0607  0.0927
 7578W        W23047   5.060   5.179   2.811  0.1063  0.1793  0.2261
 7579W        W23048   1.987   7.181   0.329  0.0297  0.2113 -0.3348
 7580W        W23049   4.561   2.191   0.641 -0.0768 -0.1776  0.2360
 7581W        W23050   5.127   9.839   5.199  0.0297  0.0846 -0.1818
 7582W        W23051   9.353  16.852   1.848  0.1354 -0.1446 -0.1410
 7583W        W23052   8.451  16.257   1.174 -0.1387  0.2625 -0.0355
 7584W        W23053   6.381   5.149  15.210  0.1272 -0.1975 -0.1474
 7585W        W23054   9.755   3.159   4.535 -0.0907 -0.0617 -0.0752
 7586W        W23055   8.873   8.036  13.623 -0.1297 -0.0920 -0.0170
 7587W        W23056  13.157  14.588   1.531  0.0567  0.1675 -0.3203
 7588W        W23057  17.109   4.903   0.582 -0.1259 -0.0508 -0.0118
 7589W        W23058   6.804   8.213  13.148 -0.0714  0.1915 -0.1649
 7590W        W23059  16.731  13.871   0.843 -0.0767  0.1036 -0.3149
 7591W        W23060  11.180   2.598  12.532  0.1365  0.3192 -0.0711
 7592W        W23061   4.335  12.400  13.382  0.0588 -0.1014  0.4181
 7593W        W23062  17.443  10.466  10.820  0.0592 -0.1518 -0.0884
 7594W        W23063   6.315   5.054   3.156  0.3868 -0.0286  0.0177
 7595W        W23064   4.180  15.472   3.149 -0.0329  0.2261  0.0824
 7596W        W23065   4.057  17.449  13.158 -0.2134  0.0550  0.0600
 7597W        W23066  10.650   3.402  12.497  0.2437  0.0911  0.0134
 7598W        W23067   7.359   4.486   5.239 -0.0715 -0.0026 -0.0825
 7599W        W23068  15.330   3.970  13.456 -0.2119 -0.2861  0.1946
 7600W        W23069  14.201   2.637  15.174 -0.0570 -0.1093 -0.1086
 7601W        W23070   7.633   0.704  11.393 -0.2783  0.0039  0.1842
 7602W        W23071  17.618  16.096  15.016 -0.0767 -0.1609 -0.2164
 7603W        W23072  15.274  16.635   3.852 -0.2339 -0.2962  0.2089
 7604W        W23073   1.842  14.578   2.032 -0.1560  0.0395  0.1930
 7605W        W23074  14.520   7.244   5.003 -0.1048 -0.2057  0.1668
 7606W        W23075   5.739   5.199   5.390 -0.2248  0.2473  0.4183
 7607W        W23076   9.074   6.064   4.241 -0.0626  0.0778 -0.1637
 7608W        W23077   1.310   3.802  11.338 -0.0481 -0.1764 -0.0308
 7609W        W23078   5.987   4.847  12.145  0.1285  0.3098  0.1462
 7610W        W23079   7.823   7.044   3.825 -0.2585 -0.0172  0.3001
 7611W        W23080   3.700   0.731   5.419 -0.0031 -0.0312  0.2465
 7612W        W23081  10.793   0.932  13.072  0.0741  0.0970  0.1600
 7613W        W23082  15.210   7.337   2.263 -0.2523 -0.0312 -0.1491
 7614W        W23083   7.835   9.839  12.492 -0.3397 -0.1741  0.1597
 7615W        W23084  11.714   0.107  12.643 -0.3106 -0.0787 -0.3172
 7616W        W23085  14.781  10.584   0.950 -0.1289  0.0624  0.2804
 7617W        W23086  10.779  12.979   3.995  0.0561  0.0885 -0.1790
 7618W        W23087   8.179   8.755  11.279 -0.1685 -0.1645 -0.0477
 7619W        W23088   6.853   6.915  12.254 -0.0090 -0.0553  0.0368
 7620W        W23089   3.085  15.873  14.381 -0.1761  0.1013  0.2271
 7621W        W23090  16.129   3.698   0.293  0.0499  0.1112  0.1908
 7622W        W23091  11.830   4.991  13.326  0.0746 -0.1353  0.4266
 7623W        W23092  13.243   0.396   3.966 -0.0791  0.1170  0.1272
 7624W        W23093   9.195  12.860   0.616  0.2221  0.0160  0.1832
 7625W        W23094   7.844   4.653   1.383  0.1079  0.1865  0.2594
 7626W        W23095  17.796  11.657   0.872 -0.1901 -0.0134  0.1123
 7627W        W23096  17.962   4.271  13.062  0.0821 -0.0324 -0.2200
 7628W        W23097   1.655   7.351   4.718  0.1154  0.1506 -0.0212
 7629W        W23098  13.865  14.985  11.504 -0.1114  0.0575 -0.1998
 7630W        W23099  17.086  17.422  16.238  0.0850  0.3760 -0.1069
 7631W        W23100  11.742  15.710  13.650  0.0001  0.2537 -0.0932
 7632W        W23101   8.519  17.780   1.470 -0.0516  0.2064 -0.1343
 7633W        W23102  17.505  13.095   1.789 -0.2228  0.0172  0.0582
 7634W        W23103  13.282   4.382  15.103  0.2237 -0.2458 -0.0662
 7635W        W23104  15.011   1.323   1.264 -0.0161  0.1236 -0.1230
 7636W        W23105   5.642  14.793  13.023  0.2061 -0.0317 -0.0956
 7637W        W23106  12.029   0.396   4.931  0.1493 -0.2280  0.1013
 7638W        W23107   6.816  16.108  14.779  0.3719 -0.2528 -0.3378
 7639W        W23108   6.576  14.417  12.761  0.3060 -0.1720 -0.1617
 7640W        W23109  18.089   3.164   4.243 -0.0434  0.0047 -0.0905
 7641W        W23110  12.633   3.467  13.144 -0.2284 -0.1136  0.0822
 7642W        W23111  16.260   4.358  11.830 -0.1373  0.3556  0.0740
 7643W        W23112   3.817   6.031  15.910  0.0243  0.1938 -0.4147
 7644W        W23113   8.560   9.432  14.891 -0.1551  0.0330  0.1526
 7645W        W23114   5.195  13.071   3.247  0.1889 -0.0326 -0.2798
 7646W        W23115  13.819  17.704   5.522  0.0134  0.2541 -0.0772
 7647W        W23116   3.337   1.321  14.701  0.0680  0.0392  0.0521
 7648W        W23117   8.502   8.083   1.426 -0.1029  0.1928 -0.1022
 7649W        W23118   6.251   7.513  15.248  0.1472 -0.5080  0.0727
 7650W        W23119  14.931   9.744   5.562 -0.0523  0.1511 -0.0564
 7651W        W23120   9.707   0.143  12.272  0.0460  0.4792 -0.0531
 7652W        W23121   4.125   2.167  12.481 -0.0085 -0.2411  0.0360
 7653W        W23122   6.312  17.213   3.477  0.2474 -0.1245  0.0603
 7654W        W23123  16.100  11.028  13.436 -0.3257 -0.0290 -0.0922
 7655W        W23124   1.337   8.003  10.804  0.2293 -0.0820  0.0294
 7656W        W23125  12.757   0.802  12.491  0.1036  0.1523  0.0748
 7657W        W23126  11.678   5.410   2.128  0.0869  0.2050 -0.1827
 7658W        W23127  15.616   1.371  14.077  0.0873 -0.0430  0.1044
 7659W        W23128  14.658  15.687   0.868  0.1096  0.1669  0.1712
 7660W        W23129   9.977   1.412   4.808  0.0997  0.0296 -0.4184
 7661W        W23130   5.691   4.144   0.646 -0.3435 -0.0353 -0.1290
 7662W        W23131   1.624  11.730   0.366  0.2041  0.3046 -0.1456
 7663W        W23132  11.355   9.293   1.932 -0.1402  0.1929  0.0145
 7664W        W23133   9.475  17.407   2.372  0.3021  0.1115  0.1349
 7665W        W23134   2.768   5.825   5.334  0.1907  0.3979 -0.1864
 7666W        W23135  13.195  16.369   0.674  0.1245  0.1903  0.1809
 7667W        W23136  14.500   5.949  12.294  0.0563 -0.0195  0.1064
 7668W        W23137   2.079   1.801  15.434  0.1385 -0.1521 -0.3008
 7669W        W23138  13.323   9.732  14.023 -0.0843  0.1858  0.3209
 7670W        W23139   8.414  14.631   6.058  0.2744 -0.3641 -0.0627
 7671W        W23140  14.439   6.297  13.618  0.0824  0.0683 -0.1904
 7672W        W23141  10.155  10.532  10.994 -0.0062  0.1187 -0.0361
 7673W        W23142  11.009   3.056   5.189 -0.0184  0.4813 -0.1428
 7674W        W23143   0.757   6.622  11.588 -0.3778  0.0780  0.1785
 7675W        W23144   3.596   1.709  14.466 -0.1449 -0.1499 -0.0562
 7676W        W23145   0.694   7.631   5.304  0.1784 -0.0730 -0.1701
 7677W        W23146   4.217  14.504   3.521  0.0385  0.0039  0.0114
 7678W        W23147  10.394   9.511  13.041 -0.1993  0.0992  0.1071
 7679W        W23148  14.581   0.569  10.223  0.0704 -0.1271  0.1729
 7680W        W23149   0.212  12.060   4.471 -0.3597 -0.2719  0.1199
 7681W        W23150   9.853   5.356   1.726 -0.2621 -0.1549 -0.0524
 7682W        W23151   4.775   2.318   1.070  0.1402  0.0274 -0.3601
 7683W        W23152   5.583   6.733   2.982 -0.1818 -0.2831 -0.1178
 7684W        W23153   3.522  10.645   5.546 -0.0205  0.2751 -0.1825
 7685W        W23154  11.942   7.383  12.983  0.0422 -0.1284 -0.0004
 7686W        W23155  10.173   7.536   5.357 -0.0180  0.0146  0.5150
 7687W        W23156   1.230  13.220  15.287  0.0410  0.1510 -0.1208
 7688W        W23157   4.380  11.496   5.146 -0.1131 -0.0594 -0.0125
 7689W        W23158   3.694   1.913  13.207  0.1499 -0.1758 -0.0963
 7690W        W23159  12.906  11.004   1.630  0.2741 -0.0039  0.0621
 7691W        W23160   1.334   0.290   0.929  0.1863  0.0004  0.1734
 7692W        W23161   6.637   3.365   1.496 -0.0674  0.1213  0.1598
 7693W        W23162  13.555  13.186   4.826  0.1570 -0.1743  0.1820
 7694W        W23163   1.981   1.333  14.106 -0.0837  0.1020  0.1045
 7695W        W23164  16.391  12.572   4.248  0.1187  0.0218  0.0235
 7696W        W23165   1.840  10.278  15.399 -0.0039  0.1147 -0.0174
 7697W        W23166   1.672   7.680  15.640  0.1255 -0.1659 -0.2851
 7698W        W23167  15.117   6.576   5.168 -0.2804  0.2246  0.1929
 7699W        W23168   9.473  17.476   2.895 -0.0174 -0.1380 -0.0885
 7700W        W23169  14.639  10.300  16.254 -0.1409  0.0503 -0.4596
 7701W        W23170  11.391  13.036   0.691  0.0877 -0.0194  0.1870
 7702W        W23171  11.906  12.393  14.175  0.4413  0.3309 -0.2305
 7703W        W23172  13.404   0.151  14.896 -0.1185  0.1265  0.0583
 7704W        W23173  12.753  15.617   1.260 -0.2083 -0.2245 -0.3128
 7705W        W23174   9.745   8.543   1.822 -0.0902 -0.2514  0.3790
 7706W        W23175   7.227   6.126   4.245 -0.1957  0.1167 -0.0432
 7707W        W23176  16.497   7.264  12.469  0.2244  0.2494  0.0984
 7708W        W23177   5.941  14.866  15.681  0.1665  0.0698 -0.0421
 7709W        W23178  12.535  12.009   3.421  0.3268 -0.0850 -0.0103
 7710W        W23179  14.202  12.341  14.475 -0.1556  0.2291  0.0879
 7711W        W23180   4.273  17.159   6.283  0.0409  0.1804 -0.0013
 7712W        W23181   7.871   1.853   5.154  0.1621  0.0452  0.2054
 7713W        W23182  13.084  14.534   2.181  0.0936  0.1985  0.0475
 7714W        W23183   1.397  11.673   0.855  0.1473 -0.0515  0.0768
 7715W        W23184   9.947  15.633  14.539 -0.2951  0.1290  0.0124
 7716W        W23185   7.129   7.196  11.810 -0.2181  0.0754 -0.1035
 7717W        W23186   5.057  12.390  12.333  0.0712  0.1107  0.2031
 7718W        W23187  16.579   9.281  13.721 -0.1333 -0.0407 -0.0396
 7719W        W23188   2.346   5.209   2.097  0.1833 -0.1468  0.1531
 7720W        W23189   3.052  15.572  11.431  0.0332 -0.1080  0.1531
 7721W        W23190  13.719   1.580   0.972  0.2379  0.1685 -0.0363
 7722W        W23191   7.503   2.579   0.059 -0.1137 -0.0821  0.1685
 7723W        W23192   4.480  10.540   1.421  0.2234  0.0273 -0.0913
 7724W        W23193   6.386  17.437   5.100 -0.2576  0.1337 -0.0139
 7725W        W23194   4.383   3.229  15.468  0.1968 -0.0338  0.0012
 7726W        W23195   1.330   5.094  15.379 -0.0800  0.1260 -0.1161
 7727W        W23196   5.034   8.970  15.846 -0.0785  0.1549  0.3468
 7728W        W23197  11.339   0.814   3.621 -0.0943 -0.2658  0.0853
 7729W        W23198   2.273  17.076   2.531  0.0027  0.0119 -0.1558
 7730W        W23199  16.658  16.618  11.454  0.0345 -0.3287 -0.0263
 7731W        W23200   2.287   0.939   1.033  0.0020 -0.1597  0.2517
 7732W        W23201   7.946   9.153   1.008  0.0728  0.1038 -0.0158
 7733W        W23202  14.032  14.641   4.153 -0.0235  0.0009  0.1883
 7734W        W23203  13.313   9.951   4.779 -0.0287 -0.1554  0.0541
 7735W        W23204   8.869   2.049   6.098 -0.0920 -0.0145  0.0299
 7736W        W23205   3.004   2.372  14.168 -0.2663  0.1057  0.3069
 7737W        W23206   1.973   1.850   0.792  0.0599 -0.1911 -0.1650
 7738W        W23207   4.420   7.731   4.125  0.3892  0.0167  0.1230
 7739W        W23208   4.878   7.010  10.991 -0.1621 -0.0722  0.0468
 7740W        W23209  17.941  15.854   4.350  0.2222  0.3109 -0.3675
 7741W        W23210   5.521   8.970  15.582 -0.0786  0.0238 -0.0538
 7742W        W23211   3.226   6.423  12.793 -0.6226 -0.0380  0.2037
 7743W        W23212  17.268   8.024  15.436 -0.2264 -0.3173  0.0987
 7744W        W23213   4.291   0.294  15.566 -0.0586  0.0036  0.1348
 7745W        W23214  16.218  10.187  10.139 -0.0500 -0.2294  0.2437
 7746W        W23215  16.005   3.298   2.472 -0.0875  0.0603 -0.0903
 7747W        W23216   7.603   2.864   4.589  0.3298  0.1661 -0.2023
 7748W        W23217   6.173   5.760  12.057 -0.2307  0.0753 -0.0373
 7749W        W23218  15.147   5.000   3.870 -0.1622 -0.1685  0.1358
 7750W        W23219   3.751   9.713   5.581 -0.2439 -0.1304  0.0160
 7751W        W23220   1.372  17.050  14.591 -0.0190 -0.1417 -0.0598
 7752W        W23221  14.870   7.509  11.478 -0.1057 -0.1405  0.1475
 7753W        W23222  13.117   0.944  14.128  0.0495 -0.2820  0.1757
 7754W        W23223   5.149   7.437   4.883  0.1236 -0.2713  0.0705
 7755W        W23224   2.501  13.026   0.531 -0.0904  0.0212  0.1912
 7756W        W23225  13.360  11.564   1.097 -0.0943  0.2382 -0.1705
 7757W        W23226   5.334  15.387   4.135  0.0427  0.1850 -0.0733
 7758W        W23227   3.552  11.147   5.478  0.1137  0.1029  0.2945
 7759W        W23228   8.141   7.656  12.888 -0.0545 -0.2469  0.1760
 7760W        W23229   5.006   9.280  14.878 -0.1318  0.0685  0.3450
 7761W        W23230   8.634   7.291   1.002 -0.1083 -0.4097 -0.0710
 7762W        W23231  10.628  15.847   5.207 -0.2919  0.1409 -0.3195
 7763W        W23232   5.825  11.832   3.411 -0.0720  0.2644  0.2435
 7764W        W23233   2.820   9.182   3.693 -0.3698 -0.0163  0.1278
 7765W        W23234  15.825   4.436   3.702 -0.3316  0.2015  0.2322
 7766W        W23235  15.353  14.771  11.427 -0.0327 -0.1484  0.2247
 7767W        W23236  12.465   2.923   4.237 -0.3919 -0.1372  0.0542
 7768W        W23237   7.030  14.826  11.428 -0.2580 -0.0251 -0.3677
 7769W        W23238  16.259  15.543   1.082  0.3840  0.4123 -0.0530
 7770W        W23239  13.632   6.109   3.618 -0.3198 -0.0047 -0.1658
 7771W        W23240   0.414  16.117   1.113  0.0424 -0.3147 -0.1894
 7772W        W23241  15.959  14.987   5.666 -0.0111  0.0585 -0.3295
 7773W        W23242  14.295  17.690   0.367 -0.0666  0.1036 -0.1239
 7774W        W23243   2.569   9.175  13.240 -0.1972  0.1659 -0.0469
 7775W        W23244  17.196   8.619   4.547 -0.2348  0.3702  0.0893
 7776W        W23245  12.228   5.696  15.827  0.0953  0.1195 -0.1425
 7777W        W23246   7.256  15.714   3.272  0.1493  0.0826  0.0948
 7778W        W23247  14.841   3.082   6.257  0.1001 -0.1105  0.2918
 7779W        W23248  13.301   3.412  12.934  0.0952  0.0178 -0.2474
 7780W        W23249  12.871  16.471   4.985 -0.1619 -0.1823 -0.0854
 7781W        W23250   4.902  14.035  14.450  0.2043  0.0091  0.2229
 7782W        W23251  14.720   8.998  12.348  0.1686 -0.1618 -0.0923
 7783W        W23252   9.464   8.709   0.523  0.1495 -0.0591  0.0059
 7784W        W23253   2.722  17.988  14.571  0.2049  0.0776 -0.0957
 7785W        W23254  17.359  17.552  11.688 -0.0162 -0.2923  0.3920
 7786W        W23255   6.282  15.171  16.153 -0.0530  0.2215  0.2833
 7787W        W23256  11.532   9.978  13.825  0.1958  0.1500 -0.2006
 7788W        W23257   7.537  11.175   0.799 -0.1774  0.0843  0.0278
 7789W        W23258  15.725   8.668  15.798  0.0026  0.0434 -0.0659
 7790W        W23259  17.512   8.488  10.463 -0.0325  0.0839  0.2973
 7791W        W23260  12.522   4.116  15.521  0.0303 -0.0721 -0.0635
 7792W        W23261   5.149  12.265  11.500  0.1916  0.6186  0.0582
 7793W        W23262   2.944  13.445   3.678 -0.1017  0.0216  0.0632
 7794W        W23263  17.742  16.510   1.702  0.3606  0.2053  0.0512
 7795W        W23264   6.573  17.958  13.924 -0.2499 -0.2599 -0.1039
 7796W        W23265   6.155  15.090  11.561  0.0174 -0.0149  0.2838
 7797W        W23266  12.871  10.966  12.415 -0.1718 -0.3030 -0.0178
 7798W        W23267  14.616  15.056  16.141 -0.1775  0.0441 -0.1116
 7799W        W23268   1.709   3.449  16.145 -0.0169  0.0300  0.0913
 7800W        W23269   1.339  14.531   2.323 -0.1740  0.0864 -0.4030
 7801W        W23270   5.569   9.753  15.819  0.1465 -0.0170 -0.1634
 7802W        W23271   9.727   6.409  12.945 -0.0058  0.0884  0.2911
 7803W        W23272   9.490  11.452   0.160  0.1545 -0.0313  0.0130
 7804W        W23273   5.564   0.959  14.294  0.0168  0.2856  0.0618
 7805W        W23274   5.266  13.258   1.435 -0.0103 -0.0749 -0.1805
 7806W        W23275   4.671   8.979   2.115 -0.2372  0.1643  0.0747
 7807W        W23276  13.127  15.832   2.580  0.0685  0.1714  0.3324
 7808W        W23277   4.758   7.368   0.379 -0.1903  0.1110 -0.1963
 7809W        W23278  17.705  17.044  12.800  0.1068 -0.0713 -0.0974
 7810W        W23279   8.718  15.099   3.661  0.2983  0.0043  0.3996
 7811W        W23280   5.303  11.331   4.040 -0.0545  0.0808  0.5789
 7812W        W23281   5.916   2.318  15.524 -0.0061  0.2721 -0.0589
 7813W        W23282  11.615  13.640   6.147 -0.0931  0.1825 -0.5070
 7814W        W23283  13.583  10.695   2.875  0.2572 -0.2272  0.1114
 7815W        W23284  16.650  15.383   5.959  0.2300 -0.0680  0.2077
 7816W        W23285   9.580   3.954  12.112 -0.0349  0.3635  0.0532
 7817W        W23286  15.859  10.361   1.010  0.2198 -0.1190  0.0140
 7818W        W23287   0.509  10.383   0.493  0.1365 -0.2145  0.2563
 7819W        W23288   4.504   1.323  14.231 -0.1379 -0.1356 -0.0786
 7820W        W23289  15.587   1.927   3.539  0.1025  0.0251  0.0133
 7821W        W23290   6.088   5.859   4.155 -0.3187 -0.1735  0.2131
 7822W        W23291   0.809  11.078   2.927 -0.1625  0.0996 -0.0457
 7823W        W23292  11.825   7.997   3.339 -0.1950 -0.0949 -0.0831
 7824W        W23293   4.640  14.239  15.305  0.1813 -0.2989  0.2237
 7825W        W23294   8.343  16.975  15.905  0.0122 -0.0624 -0.0277
 7826W        W23295  10.838   6.574  14.927 -0.3795  0.2056 -0.0078
 7827W        W23296  14.976   2.209   1.382 -0.1939  0.1085 -0.1410
 7828W        W23297   1.141   3.305  14.880  0.0827  0.0138  0.4650
 7829W        W23298   7.307   9.432  11.155  0.0702 -0.3244  0.0746
 7830W        W23299  16.058   0.443  14.560 -0.2853  0.0114  0.0414
 7831W        W23300   3.427   8.405  11.454  0.0686  0.0142  0.0888
 7832W        W23301   4.645  13.865  12.430  0.1786 -0.2091  0.1201
 7833W        W23302  12.358   3.306   5.311  0.5259 -0.0985  0.1410
 7834W        W23303   8.982   2.242   1.169  0.1051 -0.2532  0.0965
 7835W        W23304   9.552  11.010   5.367  0.1906 -0.0579 -0.1998
 7836W        W23305   6.609  12.008  13.421  0.4966 -0.1431 -0.2526
 7837W        W23306  12.453   3.920   0.774  0.2635  0.1507  0.2469
 7838W        W23307  17.482  14.332  13.525  0.4183  0.1309  0.1217
 7839W        W23308  16.352  14.346  12.962  0.0093 -0.0431 -0.0346
 7840W        W23309   6.562   0.199   0.745 -0.4095 -0.2755  0.0800
 7841W        W23310  10.744   3.559  12.008 -0.1554  0.0925  0.1289
 7842W        W23311   0.651   9.980   1.881  0.1047 -0.1249  0.0348
 7843W        W23312   6.029   7.122  14.880 -0.1241  0.1066  0.0256
 7844W        W23313   2.501   3.946   1.745  0.0801  0.0464 -0.2284
 7845W        W23314  11.365   5.074   4.475 -0.0068  0.1041  0.0933
 7846W        W23315  14.170   1.328  15.091  0.2023 -0.1176  0.1095
 7847W        W23316   7.957  11.515  10.910  0.2403 -0.0917 -0.0176
 7848W        W23317  12.992  16.869  11.414 -0.0052  0.0216 -0.1168
 7849W        W23318  16.583  13.909  15.319 -0.0158  0.3431 -0.0195
 7850W        W23319  12.993  17.467   5.032  0.1543  0.2299  0.0280
 7851W        W23320   6.867  10.474   0.443 -0.0125 -0.0835 -0.1123
 7852W        W23321  15.135  16.117   1.096 -0.0820 -0.0072 -0.0567
 7853W        W23322   2.745   8.982  15.086  0.0709 -0.0482 -0.1681
 7854W        W23323   5.930   1.792   2.880 -0.2748  0.1326 -0.1657
 7855W        W23324   8.166  16.506   5.243  0.2033  0.0443 -0.1584
 7856W        W23325   0.609   4.222  15.534  0.1434 -0.1611  0.0227
 7857W        W23326  16.725   4.278   3.620 -0.0792  0.0011  0.0769
 7858W        W23327  10.146   1.231  15.080  0.0191  0.1184 -0.1319
 7859W        W23328  13.980   2.282  14.932  0.1711  0.2458  0.4435
 7860W        W23329  11.764   6.954   1.043 -0.1739 -0.1194 -0.1881
 7861W        W23330   8.211  12.796  12.225  0.1371  0.1324  0.1520
 7862W        W23331   0.011   5.636   0.524 -0.0163  0.0359  0.0635
 7863W        W23332  10.814   0.649   4.708  0.0771 -0.1834  0.3373
 7864W        W23333  16.250  16.507   2.757  0.1413  0.4126 -0.1056
 7865W        W23334   8.336   9.001   5.251 -0.1977 -0.2101  0.2467
 7866W        W23335   5.340  10.387  14.071 -0.2099  0.0679  0.0519
 7867W        W23336   9.953   3.867  15.298  0.1659  0.1215 -0.2824
 7868W        W23337   8.461  14.111  13.700 -0.2902  0.3500 -0.2046
 7869W        W23338  16.027   3.797  15.260 -0.0106 -0.0887 -0.1496
 7870W        W23339  11.084  17.632   6.336  0.1004 -0.1248 -0.2334
 7871W        W23340   3.144  17.910   0.889 -0.0003  0.2640 -0.1543
 7872W        W23341  10.518   6.350   1.214 -0.0144 -0.1325  0.1337
 7873W        W23342   7.982   5.483  15.122 -0.0616 -0.2289 -0.1619
 7874W        W23343   7.725  13.763   5.640  0.0726 -0.0210  0.0862
 7875W        W23344   9.707  16.775   1.160 -0.0961  0.0772  0.0475
 7876W        W23345  13.504  13.114  15.037  0.2487  0.4002  0.2950
 7877W        W23346  10.506  16.740   1.433 -0.0316  0.0149  0.1670
 7878W        W23347  12.612   0.445  11.638  0.1034  0.3395 -0.1065
 7879W        W23348  15.502  17.763  11.844  0.2520 -0.1313 -0.2036
 7880W        W23349  14.535   5.618   5.466 -0.3248 -0.0119  0.3329
 7881W        W23350  12.301  15.248  10.637  0.3143  0.0709  0.4078
 7882W        W23351  14.652   9.680   3.728 -0.1646 -0.2191 -0.0853
 7883W        W23352  17.293   6.748  13.356 -0.0051  0.0507  0.0783
 7884W        W23353  16.624   2.514   1.050  0.1562 -0.0383 -0.0441
 7885W        W23354   7.821   7.127   2.034 -0.1827 -0.0084  0.0061
 7886W        W23355  15.625   6.100   0.433  0.1704 -0.0196 -0.1029
 7887W        W23356   1.181   0.544  15.133  0.1659 -0.2858 -0.0711
 7888W        W23357   3.683  13.241   2.601 -0.3631  0.0374 -0.0174
 7889W        W23358  11.281   7.243  14.805 -0.2142 -0.2024  0.0642
 7890W        W23359   4.416   9.010  11.935  0.0163  0.2495  0.2447
 7891W        W23360  16.159  16.916  10.140  0.1286 -0.2296  0.1267
 7892W        W23361  16.422   0.706   1.199  0.0678 -0.0268 -0.0445
 7893W        W23362   6.430  12.897   1.938 -0.2100 -0.4456 -0.3330
 7894W        W23363   2.913   3.283  12.815  0.0742 -0.2210  0.0608
 7895W        W23364   8.105  15.358  16.114 -0.0805 -0.2405 -0.2603
 7896W        W23365   4.657  11.438  10.789 -0.0817 -0.0964 -0.3585
 7897W        W23366   4.244   7.456   0.432  0.1626 -0.2507 -0.0307
 7898W        W23367   4.067  10.043   4.829 -0.2148  0.2119 -0.0189
 7899W        W23368   9.241   8.870  13.771 -0.2006  0.2712  0.2526
 7900W        W23369   1.923  14.196  12.552 -0.1215  0.1599 -0.0114
 7901W        W23370   0.667  11.300   2.010 -0.0290  0.1335  0.2732
 7902W        W23371   9.003  17.771   1.651  0.1060  0.1195 -0.0493
 7903W        W23372  12.714   1.367   1.349 -0.1936  0.0186 -0.2558
 7904W        W23373  10.387   8.138  16.031  0.1447  0.1479 -0.2129
 7905W        W23374  11.080   5.106  14.046  0.0869  0.0057  0.1904
 7906W        W23375   4.558   1.232  12.341 -0.2722 -0.1418  0.0572
 7907W        W23376   1.260   9.756   0.289  0.1944  0.0693 -0.1472
 7908W        W23377  10.297  11.267   1.971 -0.0074  0.1276  0.0646
 7909W        W23378  16.477  16.588  13.898 -0.1801 -0.0940  0.1438
 7910W        W23379   0.966  13.491  14.910 -0.1418 -0.2612  0.1770
 7911W        W23380  14.711   5.713  11.583  0.0086 -0.0330  0.0945
 7912W        W23381   7.315  13.080  12.696  0.1128 -0.0998  0.0848
 7913W        W23382   8.749   7.126  12.524  0.2663 -0.1475 -0.1938
 7914W        W23383   9.609   2.610  13.645  0.2890  0.1170  0.1303
 7915W        W23384   5.838  13.015   2.914  0.0827 -0.0125  0.0489
 7916W        W23385  17.448  12.816  11.744 -0.0194  0.0232  0.1495
 7917W        W23386   3.353  11.727  15.731  0.0099  0.1125  0.2526
 7918W        W23387   2.349  14.340  15.047  0.1479  0.2859 -0.2806
 7919W        W23388   9.685   5.013  11.803  0.0365  0.0496 -0.1337
 7920W        W23389   5.014  12.656   0.091 -0.0906  0.0639  0.0923
 7921W        W23390   4.145  16.091  15.610 -0.0943 -0.0684 -0.4313
 7922W        W23391   8.312  16.126   5.530  0.0954  0.2351 -0.1836
 7923W        W23392  16.388  13.561   2.201  0.1094  0.0895  0.0715
 7924W        W23393   4.061  10.872   1.272 -0.0355  0.1039 -0.3829
 7925W        W23394   9.175   7.301   0.172 -0.1476  0.1617 -0.0923
 7926W        W23395   6.927   4.706   0.626  0.1896 -0.0867 -0.0260
 7927W        W23396  13.422  13.589  13.395  0.1733 -0.0288 -0.0116
 7928W        W23397  10.873  10.179   0.052  0.2834 -0.0669 -0.5632
 7929W        W23398  13.122   1.204  12.253 -0.0042  0.3496 -0.1220
 7930W        W23399   9.212  11.228   4.109  0.1015  0.2436  0.1007
 7931W        W23400  14.378   9.914   4.125  0.2379  0.1471 -0.0355
 7932W        W23401  14.742   0.589  11.101  0.0321 -0.2768 -0.1016
 7933W        W23402  14.084  17.416   4.315 -0.3787  0.1858  0.2991
 7934W        W23403  16.371  15.578  12.955  0.1369 -0.0770  0.1138
 7935W        W23404  10.510  10.225  15.709 -0.0845 -0.1397  0.1165
 7936W        W23405  17.290   8.427   5.077  0.1609  0.0272 -0.0801
 7937W        W23406   0.224  14.636   0.627 -0.3334  0.1398  0.0469
 7938W        W23407   5.744  15.144  14.837 -0.1979  0.2812  0.3690
 7939W        W23408  17.655   6.588  14.497 -0.1796  0.0733  0.0010
 7940W        W23409  13.046  13.916  15.237 -0.2145 -0.0447 -0.2899
 7941W        W23410  12.181   6.369  15.792 -0.0596  0.0284  0.0367
 7942W        W23411  15.785   4.261  11.666 -0.3597  0.2536 -0.2518
 7943W        W23412   9.046  15.456  14.418  0.1974  0.0586  0.1177
 7944W        W23413   1.844  17.938  12.923  0.0213 -0.1038  0.1889
 7945W        W23414   9.438  12.917   2.958 -0.0347 -0.3023  0.0112
 7946W        W23415  16.928   1.602   0.715  0.1493  0.2070 -0.1220
 7947W        W23416  14.389  14.666   5.622 -0.1428 -0.1683  0.1099
 7948W        W23417   5.576   6.381   5.347  0.1800  0.0955  0.0886
 7949W        W23418  10.829  11.352  13.833 -0.2840 -0.1359  0.0207
 7950W        W23419   8.946  13.749  14.917  0.2121  0.0446  0.2591
 7951W        W23420  15.184   3.932  11.209 -0.0401  0.1445  0.4222
 7952W        W23421  16.703   2.250   4.701 -0.0602  0.0338 -0.0914
 7953W        W23422   2.829  10.403   3.190 -0.0192 -0.1066  0.0574
 7954W        W23423  17.342   6.331  11.249  0.1140  0.1395  0.1369
 7955W        W23424   6.676  17.104  14.161  0.0107 -0.0933  0.0720
 7956W        W23425  10.633   8.444  14.784 -0.1251  0.0207  0.2391
 7957W        W23426  17.295   0.423  12.717 -0.0557  0.0960  0.0751
 7958W        W23427   1.161  16.946  10.482  0.2204 -0.0866  0.0398
 7959W        W23428   3.814   3.394  11.885 -0.1045 -0.0601 -0.0284
 7960W        W23429   2.267  13.906  16.252 -0.1110  0.1646 -0.0754
 7961W        W23430   6.739   8.174  15.817 -0.0807 -0.3576 -0.1209
 7962W        W23431   7.380  12.302   1.539  0.1390  0.5684 -0.1221
 7963W        W23432  16.024  17.846  13.883  0.3307 -0.2690 -0.2971
 7964W        W23433   5.693  17.698   9.869  0.2559 -0.0531 -0.0997
 7965W        W23434  10.522  16.465   3.417 -0.0238 -0.2288 -0.1777
 7966W        W23435   4.457  14.776  16.003  0.0685 -0.0235 -0.0593
 7967W        W23436   8.389  10.563   1.344 -0.3222  0.0179 -0.3219
 7968W        W23437   2.557   8.617  15.361 -0.1023 -0.0271  0.2335
 7969W        W23438   7.344   3.516  10.115  0.0545  0.3317  0.0760
 7970W        W23439   6.064   8.578  13.731 -0.3251  0.0035  0.2730
 7971W        W23440  12.014   4.910   4.234 -0.0838  0.2068  0.1399
 7972W        W23441  17.165   4.801  16.001  0.2374 -0.0256  0.2368
 7973W        W23442  12.519   5.400   3.092  0.1392  0.0756  0.0337
 7974W        W23443  10.576   3.326   0.617  0.0527 -0.0740 -0.0450
 7975W        W23444   6.226  15.266  12.099 -0.3898 -0.0912 -0.2238
 7976W        W23445   0.759   4.503   0.637 -0.0934  0.0794 -0.1052
 7977W        W23446  17.918   7.627   0.007 -0.1150  0.0296 -0.0269
 7978W        W23447  10.011   0.383   1.776 -0.2285 -0.0253 -0.3476
 7979W        W23448  16.319  10.465  11.324 -0.0350  0.0942  0.0842
 7980W        W23449   2.466  15.986   3.793  0.3773  0.1185 -0.1446
 7981W        W23450   9.381  10.995  12.330  0.1072 -0.1764  0.0103
 7982W        W23451  11.138  12.271   1.134 -0.1417 -0.0529  0.2382
 7983W        W23452   0.269  15.496   4.536  0.1634  0.0519  0.2928
 7984W        W23453   4.335   9.555  14.962 -0.0168  0.1260 -0.0652
 7985W        W23454  11.965   7.544  13.602 -0.0186  0.0456 -0.4323
 7986W        W23455   3.876   5.179   3.271 -0.0684 -0.1219 -0.0014
 7987W        W23456   9.154  11.009  16.179 -0.2587 -0.1031  0.1036
 7988W        W23457   3.817  15.708  13.276 -0.2196  0.0585 -0.0967
 7989W        W23458   0.853  13.984   5.560  0.3851 -0.0697  0.2396
 7990W        W23459   9.639  16.439   4.406  0.2075  0.3042 -0.1351
 7991W        W23460  14.347  14.270   4.023 -0.2134 -0.0371  0.2265
 7992W        W23461   0.390  10.209   4.528 -0.1317 -0.2877 -0.2111
 7993W        W23462   5.273  11.618   6.168 -0.2552 -0.0362  0.1507
 7994W        W23463   8.421  11.894   3.525  0.1885 -0.2765 -0.3108
 7995W        W23464   5.723  12.517  13.121 -0.3186  0.2061 -0.0321
 7996W        W23465   1.539   8.665  15.589  0.3452 -0.0789  0.2304
 7997W        W23466   6.735  15.338  14.615 -0.1433  0.0194  0.0413
 7998W        W23467   3.407   1.975  14.843  0.0322  0.1947 -0.0646
 7999W        W23468  10.056   1.769   4.500 -0.0862  0.0092  0.1741
 8000W        W23469   2.230   6.914   1.190  0.1075  0.0575  0.2570
 8001W        W23470   2.471  14.383  13.970  0.0337 -0.1312  0.0993
 8002W        W23471  17.326   9.076   3.811 -0.0312  0.3486  0.0247
 8003W        W23472   7.987  13.605  16.093 -0.2071  0.2499  0.1769
 8004W        W23473   8.905   1.139   3.877  0.1511  0.1793  0.0257
 8005W        W23474  12.177   0.150   0.762 -0.1017 -0.1392 -0.0650
 8006W        W23475  14.625   5.227  11.514  0.0581 -0.0147  0.0120
 8007W        W23476  15.309   4.100   4.848 -0.1256  0.2336  0.0797
 8008W        W23477  17.854   8.247  11.591 -0.1849  0.0564  0.1689
 8009W        W23478   6.956   2.589   0.010 -0.0061  0.0868  0.0612
 8010W        W23479  10.530   0.298  13.656 -0.0033  0.0943  0.0625
 8011W        W23480  16.308  13.408  12.882 -0.0535  0.1275  0.0916
 8012W        W23481   8.214   1.097   2.643 -0.3287 -0.0782 -0.0712
 8013W        W23482  17.347   8.613  11.310 -0.1412  0.1235  0.0091
 8014W        W23483  10.175   8.308  14.570  0.0292 -0.1349 -0.0473
 8015W        W23484   3.532  12.966   3.708  0.2182  0.2390  0.2873
 8016W        W23485   6.265  16.996   2.612  0.1356 -0.1365  0.2109
 8017W        W23486  12.462   6.934   4.625 -0.1974 -0.1571 -0.0818
 8018W        W23487   9.217   8.299  16.052 -0.0449 -0.2596 -0.2663
 8019W        W23488   4.660   5.622   3.513  0.0635 -0.1150 -0.0210
 8020W        W23489   8.434  10.001  15.659 -0.0162 -0.0222  0.1365
 8021W        W23490   9.636   2.663   6.637  0.1045  0.1244  0.1253
 8022W        W23491  17.086  13.542   0.906 -0.1165 -0.1157  0.0471
 8023W        W23492   8.017   5.715   1.307 -0.1418  0.0595 -0.3025
 8024W        W23493  17.983   0.506  10.981 -0.0033  0.0307 -0.0024
 8025W        W23494   6.496   6.584  13.203  0.1052  0.1757 -0.1765
 8026W        W23495   2.172   2.977   4.989  0.3007 -0.0376  0.0990
 8027W        W23496  17.800   9.931   5.312  0.1698  0.0055  0.1779
 8028W        W23497  10.815   5.062   1.635 -0.1393 -0.3169 -0.3533
 8029W        W23498   9.344  10.538  16.140  0.3761 -0.1007 -0.2549
 8030W        W23499   0.500  10.843   2.280 -0.0014  0.1625  0.0299
 8031W        W23500   6.969  12.435  13.363  0.2614  0.2285 -0.1061
 8032W        W23501   9.684  10.696   2.314  0.1235  0.0772 -0.1589
 8033W        W23502  10.698  16.014  12.557  0.2265  0.0119 -0.0952
 8034W        W23503   4.200   5.626  11.850 -0.0784 -0.1509 -0.0821
 8035W        W23504   8.448   4.499   1.133 -0.1868  0.2841  0.1446
 8036W        W23505   3.626   2.031  11.646 -0.3061 -0.0008 -0.1949
 8037W        W23506   6.179   9.513  11.105 -0.2855  0.0417  0.1808
 8038W        W23507  11.900   3.644   0.336  0.0100 -0.0719 -0.0479
 8039W        W23508  10.409  14.825  14.657 -0.1925 -0.0320 -0.2339
 8040W        W23509   7.254   2.996  16.208  0.2073  0.0659 -0.2383
 8041W        W23510  15.861   1.898  11.358  0.2424  0.0881 -0.0119
 8042W        W23511   3.914   9.034  14.252 -0.1795 -0.0244  0.0293
 8043W        W23512   3.996   0.982   6.205 -0.1157 -0.2139 -0.0281
 8044W        W23513   2.240   5.977  12.193 -0.0060  0.2030 -0.1144
 8045W        W23514  10.032  10.653   4.065 -0.0037  0.0826  0.0735
 8046W        W23515  10.604   4.206   0.431 -0.3227  0.0119  0.1493
 8047W        W23516   3.680  12.756   0.386 -0.0430  0.0662 -0.3101
 8048W        W23517   5.669   4.248  12.681  0.1601 -0.1183  0.1413
 8049W        W23518   0.273  15.060   5.187  0.0563 -0.1238  0.0024
 8050W        W23519   6.104   1.094  12.853 -0.0140 -0.0759 -0.1092
 8051W        W23520   6.867  15.590   2.982  0.0834 -0.2029  0.1120
 8052W        W23521  10.284   2.483  14.164 -0.0955  0.0630 -0.0375
 8053W        W23522   6.213  11.121  15.594 -0.0718 -0.0773  0.1907
 8054W        W23523   5.822   3.920   1.944 -0.1449 -0.0877  0.0507
 8055W        W23524   3.756   2.894   4.460  0.1625 -0.2188  0.0497
 8056W        W23525   3.405   5.995  14.053  0.0570  0.1469 -0.0309
 8057W        W23526   5.194   9.543  11.137  0.0052 -0.1417 -0.1356
 8058W        W23527   7.838   4.981   4.128 -0.0436  0.2301  0.0527
 8059W        W23528  13.421  17.774   2.164 -0.2728  0.4082 -0.0427
 8060W        W23529  15.698   3.455  12.509  0.1706  0.1538 -0.0074
 8061W        W23530  11.689  16.939  11.427  0.1224  0.0263  0.1739
 8062W        W23531  11.440   3.879  14.356  0.1212  0.1983  0.0309
 8063W        W23532  10.810  10.099   2.078  0.1934  0.1113 -0.0744
 8064W        W23533  13.856  10.976  11.572  0.0083 -0.2328  0.1247
 8065W        W23534   7.561  10.142   5.501 -0.3439  0.0906 -0.1225
 8066W        W23535  14.379   5.911   4.583 -0.2561 -0.1309 -0.1736
 8067W        W23536  17.333   5.823  12.950 -0.0473  0.0693  0.0834
 8068W        W23537   8.093   4.184   5.765  0.3246  0.1300  0.1909
 8069W        W23538   7.434   4.834   3.797  0.2073  0.0786  0.0572
 8070W        W23539   1.009   0.293   3.305  0.0060  0.1870  0.0560
 8071W        W23540   5.300   0.955   0.509  0.2268 -0.0277  0.0258
 8072W        W23541   4.567  16.666   3.698 -0.0683 -0.1133  0.3411
 8073W        W23542  10.654  12.473   3.949 -0.1299 -0.0537 -0.1192
 8074W        W23543  17.074   9.306   0.301 -0.2731  0.0061 -0.1514
 8075W        W23544  13.314  14.620  10.285 -0.0641 -0.5426  0.2534
 8076W        W23545  12.036   9.674  14.726  0.0419  0.0636 -0.0550
 8077W        W23546   1.470  16.147  14.702 -0.1548 -0.0371 -0.2207
 8078W        W23547   1.486   2.976   2.120 -0.3157  0.0551 -0.2493
 8079W        W23548  16.306   8.309   4.602 -0.2548 -0.1831 -0.1830
 8080W        W23549  11.129   4.928   0.165  0.1167 -0.3907 -0.1502
 8081W        W23550   9.019  11.646   3.176  0.0800  0.0712  0.0712
 8082W        W23551  13.053  14.939   3.235 -0.0811 -0.2056 -0.2162
 8083W        W23552   8.895  16.453  11.316  0.0960  0.5404  0.2870
 8084W        W23553   1.811   8.859  11.562  0.3074  0.0351  0.0405
 8085W        W23554   4.337   8.944   2.468  0.2049 -0.1536 -0.0709
 8086W        W23555   5.415   6.829  15.555  0.1702 -0.1160 -0.2206
 8087W        W23556  11.053   0.422  15.881 -0.0487 -0.0365 -0.2713
 8088W        W23557   7.554  17.271  15.437 -0.0160  0.0159  0.2649
 8089W        W23558   1.990  15.259   4.204 -0.0760  0.1736  0.2302
 8090W        W23559   1.940   2.726   1.943  0.2646 -0.0222 -0.2714
 8091W        W23560   3.032   0.891   3.923  0.0403  0.1279 -0.1690
 8092W        W23561  13.903   7.479   3.365  0.0868 -0.1030  0.1573
 8093W        W23562   6.985   0.908  13.843  0.0220  0.1015 -0.1902
 8094W        W23563   2.965   8.699   5.313  0.1860 -0.1921 -0.2885
 8095W        W23564  17.925  15.377  14.403  0.0063  0.4394  0.1288
 8096W        W23565   9.331  10.584   1.841  0.4037  0.1962  0.1222
 8097W        W23566  14.111   2.712   2.837 -0.0063  0.2603 -0.0308
 8098W        W23567   7.184  15.090  15.547 -0.2699 -0.2121 -0.0195
 8099W        W23568   0.879   6.816  13.447  0.1226  0.1632  0.1026
 8100W        W23569  12.044  11.456  13.374 -0.2868 -0.1684 -0.1781
 8101W        W23570  14.262  17.065  14.612 -0.3805 -0.0577 -0.0168
 8102W        W23571   4.063   6.816   2.138  0.1323  0.3146  0.0609
 8103W        W23572   9.526  16.814  14.801 -0.0732 -0.0473  0.0902
 8104W        W23573   4.311   8.153  11.544  0.1110 -0.1352  0.1237
 8105W        W23574  14.012   4.802   1.061 -0.2515  0.0896 -0.1466
 8106W        W23575  14.533   5.716   3.718  0.1842 -0.1737  0.0724
 8107W        W23576  13.878  10.656   4.177 -0.1704  0.1561 -0.1175
 8108W        W23577   0.068   4.641   4.061  0.3949 -0.3293 -0.0925
 8109W        W23578  11.727  10.256  12.873  0.1266  0.1147 -0.1464
 8110W        W23579   6.948  17.667  13.680  0.0954  0.0699  0.2391
 8111W        W23580   9.740  14.126   2.989 -0.0131  0.1494 -0.0498
 8112W        W23581   1.875  12.785   4.169  0.0479  0.1146  0.2382
 8113W        W23582  13.700  10.388  10.777 -0.1692  0.0070 -0.1685
 8114W        W23583   5.731   8.889   1.279  0.2272  0.1923  0.1673
 8115W        W23584   2.336   4.418  15.431 -0.1399  0.1707  0.0287
 8116W        W23585  11.948  16.706   1.409 -0.3182 -0.2838 -0.0428
 8117W        W23586  18.072  15.232  13.943  0.0719 -0.1828 -0.0146
 8118W        W23587   8.062   2.064  12.393  0.1503  0.0504  0.2045
 8119W        W23588   5.751   8.539   2.596 -0.0099  0.2135 -0.1280
 8120W        W23589   8.174  14.717  12.404  0.1298 -0.0396 -0.3387
 8121W        W23590  17.217  12.476  16.117  0.2173 -0.0622  0.4510
 8122W        W23591  16.546   9.696   4.695 -0.2544 -0.1659 -0.0809
 8123W        W23592   4.038   3.868  14.639  0.0751 -0.1609  0.1707
 8124W        W23593   9.933  12.995  11.072 -0.0863  0.0007 -0.1143
 8125W        W23594   5.278   7.241  10.705 -0.1315 -0.1105 -0.0595
 8126W        W23595   2.395   1.569   5.521  0.1335  0.3289  0.1498
 8127W        W23596  16.233   1.440  13.231 -0.0302  0.2404  0.0049
 8128W        W23597   3.732  10.230  15.125  0.0393  0.2930  0.0055
 8129W        W23598   0.048  12.794   6.341  0.1060 -0.2532 -0.0057
 8130W        W23599  10.345   8.028  13.447  0.2847 -0.0040  0.0222
 8131W        W23600   2.317  13.864   1.887 -0.1227  0.2080  0.1241
 8132W        W23601  15.967  13.933   0.948 -0.3929 -0.1559 -0.0136
 8133W        W23602  13.649  10.322   4.525 -0.0632  0.1120  0.1070
 8134W        W23603  14.944   8.731   0.146 -0.0465 -0.0976  0.1992
 8135W        W23604   0.300   9.467   2.853 -0.0165  0.0643  0.1220
 8136W        W23605  16.876   5.693   3.680 -0.1955 -0.0934  0.1164
 8137W        W23606  14.672   6.687  13.454  0.0727 -0.4722  0.1368
 8138W        W23607   5.339   8.680   0.997  0.2003  0.1507 -0.1120
 8139W        W23608  13.958   7.453   1.388  0.2795  0.2020  0.0464
 8140W        W23609  10.203   8.549   3.798  0.0251 -0.2163 -0.1222
 8141W        W23610   5.495   8.388   3.539 -0.1144 -0.3618 -0.3863
 8142W        W23611  10.022   8.893   5.552 -0.3873 -0.0173 -0.2087
 8143W        W23612   1.255   2.432  15.496  0.1074  0.1949 -0.0489
 8144W        W23613   6.983  14.885  13.459  0.2780  0.0376 -0.0614
 8145W        W23614  16.870   9.264   4.060 -0.1124  0.3550 -0.2675
 8146W        W23615   5.251   0.071  14.388 -0.0910 -0.0643 -0.0463
 8147W        W23616   4.431   2.598   3.431 -0.3927 -0.2566 -0.3229
 8148W        W23617  11.816   6.688   4.806  0.2548  0.1122 -0.3843
 8149W        W23618   5.988  16.943  14.979  0.1066 -0.2959  0.0428
 8150W        W23619   8.820   4.979  12.705  0.0751  0.1544 -0.2287
 8151W        W23620   9.059  12.377  10.175 -0.1935 -0.0831 -0.1423
 8152W        W23621  13.063   3.477   4.014  0.1677  0.1604 -0.2525
 8153W        W23622  17.219   1.757   1.116  0.2410 -0.0593  0.0085
 8154W        W23623  15.772  15.337  15.258  0.1115 -0.1233 -0.0106
 8155W        W23624   5.767  12.701   0.259  0.2716 -0.0799  0.0911
 8156W        W23625   1.328   5.877   1.498 -0.0882 -0.3098 -0.2380
 8157W        W23626  17.412   6.956  11.914  0.0384 -0.1695  0.1245
 8158W        W23627   3.835  10.722  11.409 -0.0691 -0.2669 -0.0039
 8159W        W23628   4.146   5.108  14.779 -0.3525 -0.0359  0.1143
 8160W        W23629   1.205  14.119  13.649  0.3268  0.0187 -0.1526
 8161W        W23630   7.699  17.276  14.218 -0.0986 -0.1397  0.1055
 8162W        W23631  17.821   3.448   0.521 -0.3924 -0.1323  0.1258
 8163W        W23632  17.921  12.698  12.667  0.0582  0.2726 -0.1038
 8164W        W23633   8.018  12.713   0.911 -0.1007  0.0457 -0.0889
 8165W        W23634   7.630  14.746  16.133  0.0774  0.1714 -0.0504
 8166W        W23635   7.756  10.916   1.620  0.0059  0.1272 -0.0287
 8167W        W23636   1.846   5.193  15.490 -0.0036 -0.1888 -0.1323
 8168W        W23637   9.955  17.968   5.201 -0.0446 -0.1450 -0.2527
 8169W        W23638   2.513   7.031   5.069  0.0627  0.2072  0.1444
 8170W        W23639   1.365   2.631  16.002  0.0283  0.1077 -0.1042
 8171W        W23640  16.165   1.913  15.055 -0.0370  0.2202  0.0878
 8172W        W23641   5.672   5.566  16.061  0.0015 -0.3163  0.3041
 8173W        W23642   0.928   1.970   5.555 -0.0765  0.3672  0.0907
 8174W        W23643   3.019   7.738  10.783 -0.2875  0.1367  0.2505
 8175W        W23644   3.591   0.795  15.842 -0.0236 -0.1060 -0.0898
 8176W        W23645   2.597   6.483   3.427  0.2404 -0.0302 -0.0773
 8177W        W23646   9.042   9.464  15.058 -0.0622  0.4275  0.1103
 8178W        W23647  16.314  15.696  11.452  0.1221 -0.1863 -0.2174
 8179W        W23648   1.913  17.796   0.475  0.0427 -0.0239 -0.3246
 8180W        W23649   9.514  15.880  14.448 -0.0718  0.0152  0.0038
 8181W        W23650   1.014  10.865   5.909  0.0421 -0.0380  0.1253
 8182W        W23651   7.618  12.786   4.321 -0.0386 -0.1193  0.2056
 8183W        W23652  15.905  15.382   3.986 -0.2349 -0.1083  0.0330
 8184W        W23653  11.113   4.290  14.442  0.1896 -0.0399 -0.1888
 8185W        W23654   0.292   8.998  12.075 -0.1651 -0.2811  0.0763
 8186W        W23655   0.148  13.979   1.404  0.0623  0.2035  0.4069
 8187W        W23656  11.338   5.422   4.839 -0.0728 -0.3534  0.0983
 8188W        W23657   9.401  15.638  13.994  0.0102  0.1960 -0.0025
 8189W        W23658   7.658   6.636   2.015  0.1755  0.1988 -0.0981
 8190W        W23659  12.060  15.537  14.791 -0.4107  0.3246  0.0163
 8191W        W23660   1.502   5.948   1.040  0.0177 -0.0446 -0.0821
 8192W        W23661   4.574  14.683  13.000  0.0001  0.1711 -0.1934
 8193W        W23662   1.885  12.681   3.544  0.4536 -0.3356  0.4181
 8194W        W23663   0.353  12.235   0.569 -0.1185 -0.3761  0.0369
 8195W        W23664  15.884   3.342  15.188 -0.0300 -0.1022  0.3558
 8196W        W23665   7.798  13.963  14.851 -0.0021 -0.0325 -0.1901
 8197W        W23666   3.170   8.608   2.267  0.0334  0.1256  0.1350
 8198W        W23667   1.526  13.623   3.360  0.1163  0.0202  0.2202
 8199W        W23668  12.260  12.948   1.398  0.1112 -0.3277 -0.1566
 8200W        W23669  16.222  12.494   1.925  0.0568 -0.3199  0.2315
 8201W        W23670   2.722  14.333   4.623 -0.0877 -0.0931 -0.2452
 8202W        W23671   0.726  10.492   3.548  0.1701  0.4191  0.2153
 8203W        W23672   6.737   8.468  16.298  0.0902  0.1117 -0.0662
 8204W        W23673  12.171   7.314   0.656 -0.6024 -0.1761 -0.1685
 8205W        W23674   3.346  13.591  13.832 -0.0998  0.0243 -0.1402
 8206W        W23675   3.040   2.919  13.138  0.1724  0.2016 -0.0734
 8207W        W23676  13.345  12.803   1.221  0.1470  0.0842 -0.1335
 8208W        W23677   4.969  17.988   0.705  0.2316 -0.2810 -0.2189
 8209W        W23678  15.966   6.882  15.086 -0.2590 -0.0455 -0.1673
 8210W        W23679   3.708  17.626  12.243 -0.0656 -0.2825 -0.0348
 8211W        W23680   5.282  11.506  13.218 -0.1468 -0.0333  0.3521
 8212W        W23681   2.668   2.839  10.551  0.1268 -0.0804 -0.0270
 8213W        W23682  12.502   4.029  13.317 -0.1002  0.3170  0.0428
 8214W        W23683  15.209  11.419  12.688 -0.2745 -0.0439 -0.0146
 8215W        W23684   9.585   6.110  12.439 -0.2493 -0.0319  0.1620
 8216W        W23685  12.280   6.940   0.213 -0.2516  0.1517  0.2783
 8217W        W23686  10.239   7.625  14.336 -0.0250 -0.0506  0.2888
 8218W        W23687   3.555   7.354   3.021 -0.1591  0.2055 -0.0463
 8219W        W23688   2.863  10.303  13.348  0.0672  0.1565  0.0731
 8220W        W23689   7.793  11.026   3.155  0.2624  0.0825  0.1554
 8221W        W23690  15.617   4.410  13.611 -0.0085  0.1525  0.1437
 8222W        W23691   1.969  14.191   1.730 -0.1817 -0.1329 -0.1482
 8223W        W23692   2.184   9.921  12.094 -0.0267 -0.0728 -0.1247
 8224W        W23693  13.859   9.974  16.174  0.2947  0.0985 -0.0578
 8225W        W23694   9.651  13.698  15.344 -0.0762 -0.1993  0.1406
 8226W        W23695   0.539   7.885  14.632 -0.0116 -0.1177  0.1602
 8227W        W23696  17.707  17.934  14.521 -0.0900  0.3048 -0.2118
 8228W        W23697   7.678   0.346  15.412  0.2383 -0.0645 -0.2540
 8229W        W23698   5.269  12.465   4.404  0.1649  0.0618  0.1028
 8230W        W23699  11.343   3.438   5.367  0.2229  0.2209  0.0488
 8231W        W23700  11.780   6.021   6.100  0.0277  0.0346  0.0780
 8232W        W23701  12.261   3.735  12.815 -0.2982  0.3580 -0.1064
 8233W        W23702  15.642   5.143  13.427  0.2559 -0.1657 -0.0127
 8234W        W23703  11.266   7.617  15.640  0.0027  0.0656  0.5897
 8235W        W23704   1.190  18.022   4.669  0.0906 -0.2600  0.0376
 8236W        W23705   0.145  10.414   0.067 -0.3090 -0.3288  0.2309
 8237W        W23706  17.413  13.912  12.162  0.2743  0.0182  0.1123
 8238W        W23707  11.882   4.956   3.765 -0.3987  0.0212  0.0571
 8239W        W23708   8.434  11.624  11.857 -0.0491 -0.0040 -0.0533
 8240W        W23709   8.981   1.778   4.746 -0.1533 -0.0518  0.1245
 8241W        W23710  13.908  10.934   3.204 -0.1341  0.2355  0.1736
 8242W        W23711  16.748   1.301   3.647 -0.1694 -0.0736  0.1030
 8243W        W23712  10.631   5.678  14.308  0.0295 -0.0127  0.0161
 8244W        W23713  10.277   9.620   6.019  0.0071 -0.0670  0.0938
 8245W        W23714   5.773   8.380  16.198 -0.0048  0.2363 -0.3274
 8246W        W23715   5.966  14.363  14.456  0.4114 -0.0952 -0.1654
 8247W        W23716   5.219   1.459  12.881 -0.1853 -0.0587  0.2687
 8248W        W23717  10.916  10.218   0.917 -0.1116 -0.1156 -0.1696
 8249W        W23718   2.727   1.109  13.170 -0.0142  0.0585 -0.0047
 8250W        W23719   2.405  12.192   2.663  0.2317 -0.0340  0.1099
 8251W        W23720   2.590   9.714  12.356 -0.2859 -0.2027  0.0424
 8252W        W23721   3.456  17.132  15.312  0.2376 -0.3973  0.0438
 8253W        W23722   7.277   2.081   1.133 -0.3410  0.1304 -0.0929
 8254W        W23723  16.509  11.237   0.794 -0.1156 -0.1266 -0.2096
 8255W        W23724   3.153   4.618   5.317  0.1565  0.0237 -0.0068
 8256W        W23725   8.245  17.755  11.768 -0.2648 -0.1530  0.1661
 8257W        W23726   9.904  17.430   3.258 -0.2702  0.1682  0.0119
 8258W        W23727   4.521   9.137   5.804 -0.0167 -0.0296 -0.0401
 8259W        W23728  15.622  16.809  11.293 -0.0923 -0.2736  0.1301
 8260W        W23729  14.050   1.077  12.900  0.0068  0.0934  0.0290
 8261W        W23730  13.851   5.437   2.505  0.2378 -0.3708  0.2654
 8262W        W23731   1.856   2.484  16.094 -0.0451 -0.0824  0.1685
 8263W        W23732   3.925  11.957   2.815 -0.4768  0.3068  0.0461
 8264W        W23733   2.339   2.656   1.471  0.1279  0.0153 -0.0483
 8265W        W23734   4.757   0.009   2.180 -0.2934  0.1895  0.1445
 8266W        W23735   7.003   6.804  15.005 -0.1644  0.0122  0.0246
 8267W        W23736   5.647   8.249  12.950 -0.0128  0.5277  0.3578
 8268W        W23737   4.811   1.388   0.096 -0.0600  0.0939  0.0177
 8269W        W23738   0.187   6.669  12.321  0.1515 -0.0474  0.1356
 8270W        W23739   9.330   9.669   6.100  0.1115 -0.0816 -0.0016
 8271W        W23740  15.626   9.246   2.595 -0.1162  0.1324  0.1070
 8272W        W23741   3.044   7.425  12.895  0.0166  0.2685 -0.1088
 8273W        W23742   3.328  17.279  15.822 -0.0913 -0.0321 -0.1126
 8274W        W23743   4.989   6.338  11.999  0.3029  0.2218 -0.2230
 8275W        W23744   5.858   9.927   2.683 -0.3266 -0.3000  0.0336
 8276W        W23745   5.508   4.895  14.833 -0.0510  0.1544 -0.0259
 8277W        W23746   8.797  12.877  13.850  0.2270  0.2158 -0.2028
 8278W        W23747   0.303  16.794   4.605 -0.3505  0.1188  0.1839
 8279W        W23748  11.142  17.469  13.615 -0.4058 -0.4095  0.0618
 8280W        W23749   8.023  12.054  11.858  0.2660  0.2052  0.0281
 8281W        W23750  10.620  12.283   1.062 -0.1694  0.0132 -0.2303
 8282W        W23751  16.272  17.783   0.275 -0.2132 -0.0155  0.1299
 8283W        W23752  13.221  17.309   1.388 -0.3336  0.0700  0.0307
 8284W        W23753   2.178   1.328  14.664  0.1974 -0.2358  0.1163
 8285W        W23754   2.233  14.345   3.725 -0.3610 -0.2519  0.3469
 8286W        W23755  13.499   4.382   4.130 -0.0126  0.1652 -0.3437
 8287W        W23756  16.913  11.525   1.823 -0.0364 -0.1210 -0.0174
 8288W        W23757   9.640   5.027   3.965  0.0201  0.0121  0.0295
 8289W        W23758   7.803  14.486   4.450  0.2825 -0.3098  0.1646
 8290W        W23759  10.149   7.106   1.673 -0.0018  0.0010 -0.0938
 8291W        W23760  14.283   0.811   1.904  0.0131  0.5110 -0.2075
 8292W        W23761   8.217  10.953   0.355  0.0662 -0.1400 -0.0960
 8293W        W23762  15.158  17.553   1.538 -0.2046 -0.1263 -0.1165
 8294W        W23763  16.221  13.270  10.620  0.0777 -0.0015 -0.3645
 8295W        W23764  17.200   5.657  13.367 -0.1125 -0.0216  0.0451
 8296W        W23765   9.917  11.029  10.993 -0.3083  0.2116  0.2659
 8297W        W23766   4.549   8.174   4.567  0.0518  0.2077  0.2167
 8298W        W23767  14.510  13.193  14.801 -0.1833  0.1626  0.1565
 8299W        W23768   7.041  10.326  14.064  0.0937 -0.0050 -0.1930
 8300W        W23769  11.216  11.042  13.354  0.0658  0.1063 -0.0152
 8301W        W23770   1.892   8.710  12.843 -0.1976  0.2507  0.0955
 8302W        W23771  10.309   0.611  15.106  0.0053 -0.1052  0.2051
 8303W        W23772  17.083  13.657  14.014 -0.0425 -0.1689  0.0278
 8304W        W23773   4.177  13.358   5.551  0.0230  0.2330  0.1107
 8305W        W23774  10.085   6.250   5.702  0.2529 -0.0271 -0.0244
 8306W        W23775  12.706  14.280  14.468 -0.2651 -0.0674  0.3883
 8307W        W23776  16.899   5.572   1.313 -0.0905  0.1343 -0.1028
 8308W        W23777   3.061   1.470  10.997  0.0794 -0.1321  0.1471
 8309W        W23778  12.104  12.459   1.303  0.0437 -0.0801 -0.1164
 8310W        W23779  15.557   4.912   5.277 -0.4046 -0.0869  0.0909
 8311W        W23780  10.909   8.661   4.766 -0.1405 -0.0161 -0.1450
 8312W        W23781  17.636  16.255  14.098 -0.2219  0.0713 -0.2166
 8313W        W23782   3.709   9.024   4.078 -0.0433  0.3075  0.0056
 8314W        W23783   1.132  12.476   4.151 -0.0955  0.0105 -0.2101
 8315W        W23784  17.704  12.710  16.304 -0.0499  0.0438 -0.2251
 8316W        W23785   4.099   2.944  15.879 -0.2957 -0.0418 -0.0853
 8317W        W23786  15.298   8.305   2.425  0.1349 -0.1973  0.1480
 8318W        W23787   4.672   0.792   5.444 -0.1945 -0.1875 -0.0357
 8319W        W23788   4.035  12.754  12.121 -0.2561  0.3084  0.1066
 8320W        W23789   9.015   8.880   4.491 -0.1619 -0.0414 -0.0644
 8321W        W23790   1.359   3.698  15.850 -0.1436 -0.0355  0.1170
 8322W        W23791   5.933   7.955   0.138 -0.0071 -0.0753  0.1716
 8323W        W23792   2.666   6.737  14.987  0.0036  0.1856  0.3110
 8324W        W23793  17.077   1.410  12.104  0.0927  0.2050 -0.0436
 8325W        W23794  13.300  11.392   3.659  0.0096 -0.2767 -0.1165
 8326W        W23795   6.262  15.129   2.907  0.0698  0.0845  0.1398
 8327W        W23796   3.491   1.295  10.993  0.0561  0.0449 -0.1742
 8328W        W23797   0.508   2.565   3.239 -0.0846  0.0525 -0.5955
 8329W        W23798  11.070   2.926  14.040 -0.1502 -0.0740 -0.1372
 8330W        W23799   6.431  15.300  12.645  0.1557  0.0181  0.0421
 8331W        W23800   7.928   1.680   0.268  0.1184 -0.0680  0.0579
 8332W        W23801   0.618   6.080  16.088 -0.3588  0.1018  0.0940
 8333W        W23802   7.619   3.179  14.876  0.0980  0.1668 -0.0326
 8334W        W23803   2.882   1.197  14.530 -0.0828 -0.0973 -0.1566
 8335W        W23804   6.127   0.919  15.956  0.0069 -0.0505  0.0555
 8336W        W23805  12.089   6.915  15.483  0.1938  0.0576 -0.1898
 8337W        W23806   7.250   6.065  11.312 -0.1287 -0.3014  0.1019
 8338W        W23807  15.557  13.663   0.805 -0.0764 -0.0510  0.1256
 8339W        W23808   5.504   7.918  16.200  0.1761  0.0411  0.1020
 8340W        W23809   4.913  10.626   4.317 -0.0003  0.4467  0.0671
 8341W        W23810  12.239  11.997   5.867 -0.2756 -0.1590  0.0340
 8342W        W23811   0.024  11.508   2.593  0.1201  0.0405 -0.0869
 8343W        W23812   1.593   4.325   2.157  0.0097  0.0002 -0.3103
 8344W        W23813  12.196   4.517  13.394 -0.0527  0.0194  0.0895
 8345W        W23814   0.487  14.635   4.379  0.1199  0.1789 -0.0077
 8346W        W23815  10.229  14.442  11.245  0.2121  0.0258  0.1740
 8347W        W23816   3.121  10.484  11.971 -0.2104  0.1923 -0.3281
 8348W        W23817  10.030  11.309  16.298 -0.2459  0.3034 -0.2423
 8349W        W23818   2.270  16.931   0.826 -0.0321  0.2797  0.0837
 8350W        W23819  14.629   9.437   2.296 -0.4339  0.3302 -0.1759
 8351W        W23820   9.198   8.021   1.046 -0.0223  0.0498  0.2237
 8352W        W23821  16.816   3.352  15.359  0.3027 -0.2138  0.1107
 8353W        W23822   6.213  11.085   4.501  0.0959  0.3685 -0.0256
 8354W        W23823   8.278  13.456  15.620 -0.1215 -0.4257  0.0575
 8355W        W23824  14.056   1.210   1.021 -0.1997  0.1102 -0.1831
 8356W        W23825   8.686  15.270   0.581  0.3510  0.0937  0.2147
 8357W        W23826  16.618   5.109   1.752 -0.4844  0.3061 -0.0074
 8358W        W23827  10.589   1.295   1.974  0.2708  0.0703 -0.0704
 8359W        W23828   2.702   7.083  12.501  0.0588  0.0114 -0.0037
 8360W        W23829   8.146   6.435   1.766  0.0431 -0.0416  0.3266
 8361W        W23830   8.468   6.355   0.861 -0.0033 -0.1015  0.0272
 8362W        W23831  11.321  14.519  12.805  0.1845  0.0965  0.0971
 8363W        W23832   3.541   0.982   1.400  0.4268  0.1523 -0.2514
 8364W        W23833   2.167   2.822   0.513  0.1691 -0.2403  0.2140
 8365W        W23834   3.650  10.855  15.903  0.3635  0.0410 -0.1316
 8366W        W23835  17.383   8.941  16.293 -0.1078 -0.1390  0.4693
 8367W        W23836   3.054  13.943  12.581 -0.1691  0.0699 -0.4274
 8368W        W23837  12.030   0.457  12.011 -0.3967 -0.2142  0.0228
 8369W        W23838  11.153   1.706  12.646 -0.0644  0.0306 -0.0411
 8370W        W23839   5.537   2.654   2.594 -0.0850  0.0849 -0.2944
 8371W        W23840   3.304  16.132  14.730  0.2642 -0.0803  0.2843
 8372W        W23841   4.536   9.820  15.954  0.1713 -0.0712  0.0502
 8373W        W23842   3.496   0.427   4.595  0.0058  0.1572 -0.1016
 8374W        W23843  16.577  14.772   0.281 -0.1269  0.0336  0.0188
 8375W        W23844   3.153  16.635  15.464 -0.0121 -0.1267  0.0974
 8376W        W23845  12.862  16.774   4.149 -0.2408  0.0334 -0.1021
 8377W        W23846   6.149   1.240  13.320  0.1768 -0.2144 -0.1039
 8378W        W23847  15.507  11.670  11.919 -0.1007  0.2323  0.1044
 8379W        W23848  10.789   6.822   2.248 -0.1139  0.0061  0.0135
 8380W        W23849  10.575   3.031   3.328 -0.0704  0.2383  0.1201
 8381W        W23850   2.717   5.456  11.631 -0.0335  0.1358  0.3572
 8382W        W23851  15.761  17.639  14.618 -0.1010 -0.4272  0.2477
 8383W        W23852   4.650   1.791   4.036 -0.1517  0.0770 -0.2026
 8384W        W23853   4.058   6.916  16.047 -0.1424  0.1469 -0.2021
 8385W        W23854  17.514  12.533   4.721  0.0292 -0.2136 -0.2038
 8386W        W23855   9.920   5.989  13.237  0.1412 -0.1604 -0.1037
 8387W        W23856  12.835   5.356   4.070 -0.1154 -0.0401  0.0550
 8388W        W23857  14.063   8.632  16.178 -0.2270  0.0192  0.2421
 8389W        W23858   3.015  17.161  12.738  0.2201  0.3212  0.0721
 8390W        W23859   1.661   9.766  14.748 -0.0485  0.1770 -0.0792
 8391W        W23860  10.554  12.682  14.343 -0.0879 -0.2156  0.0976
 8392W        W23861  13.883   3.065   0.609  0.2219 -0.1671 -0.0238
 8393W        W23862  16.349   5.881   0.623 -0.0151  0.1647  0.3324
 8394W        W23863   7.767   0.227   1.438  0.0794 -0.0594  0.0614
 8395W        W23864  12.431  17.807  13.871  0.1767 -0.0423  0.0071
 8396W        W23865  17.088   1.887   4.089 -0.1454  0.1451  0.1025
 8397W        W23866   7.402   0.580   5.498 -0.2809  0.0113  0.1495
 8398W        W23867   4.805  16.255  14.822  0.0808 -0.0571  0.1797
 8399W        W23868   0.431   6.780   1.702 -0.2101  0.0066 -0.1018
 8400W        W23869   1.903  17.239   2.167 -0.0326 -0.0993 -0.0459
 8401W        W23870   9.969   7.460   4.580 -0.0014 -0.2216  0.0778
 8402W        W23871   0.980  10.201   0.506 -0.0370  0.2419 -0.0284
 8403W        W23872  12.930  17.015   2.944 -0.3370 -0.1004 -0.0886
 8404W        W23873  14.945   9.485   1.877 -0.0043  0.2867 -0.1828
 8405W        W23874   8.026  15.348  10.745 -0.1574  0.0133 -0.0457
 8406W        W23875   0.050  13.619   0.533 -0.1878 -0.1004 -0.2681
 8407W        W23876  14.012   8.300   2.516 -0.2962  0.2682  0.0725
 8408W        W23877  14.690  13.622   5.639  0.0324  0.0624  0.1211
 8409W        W23878   6.073   5.590   2.367 -0.2450 -0.1255 -0.0692
 8410W        W23879  14.553   4.241   0.805 -0.1603  0.1326 -0.1307
 8411W        W23880   2.308  12.627   5.235  0.2717  0.0578  0.1199
 8412W        W23881   8.055   5.690  15.705  0.0817  0.0950 -0.1854
 8413W        W23882   6.757   5.837   1.672  0.0088  0.1539 -0.0073
 8414W        W23883   3.095   1.289   5.895 -0.3594  0.1246  0.1739
 8415W        W23884  10.225   9.456   4.619  0.2891 -0.2687 -0.2713
 8416W        W23885   3.641  15.734   4.924 -0.1618  0.1379 -0.2328
 8417W        W23886  17.988   0.546  10.478  0.0285  0.0091 -0.0400
 8418W        W23887   0.654  12.328  15.039 -0.1011 -0.0503  0.2164
 8419W        W23888   8.105  17.774   3.186  0.2128 -0.0845 -0.1955
 8420W        W23889  16.734  14.514   2.004  0.1921 -0.3493 -0.0217
 8421W        W23890  11.858   7.555   1.119 -0.2267  0.0405  0.1664
 8422W        W23891   1.813   0.115  12.489 -0.2102 -0.0396  0.0407
 8423W        W23892   6.926  10.487   4.832 -0.0000 -0.0068 -0.2930
 8424W        W23893   4.494  11.513  14.886 -0.1361  0.0525 -0.1491
 8425W        W23894  12.513  11.270   2.723 -0.0045 -0.0711  0.1744
 8426W        W23895  14.531   5.730  14.832 -0.1689  0.2749 -0.0089
 8427W        W23896   9.156   7.018  14.341  0.3226 -0.0008 -0.2770
 8428W        W23897  10.232  17.594   4.985 -0.0109  0.0759  0.1799
 8429W        W23898   8.472  14.308  15.556 -0.1598 -0.0909 -0.0914
 8430W        W23899   6.365  12.080  14.682 -0.1385 -0.2852 -0.0202
 8431W        W23900  13.988  13.658  15.029 -0.1570 -0.1947 -0.0862
 8432W        W23901  15.226  17.812   4.539  0.0810  0.0617  0.2677
 8433W        W23902   7.410   7.429   1.885 -0.1168  0.1446  0.2302
 8434W        W23903  12.690  11.980   2.005  0.0620 -0.1340 -0.1135
 8435W        W23904  12.194  10.394   5.551  0.2212 -0.3424  0.3527
 8436W        W23905  11.269  15.109   0.052  0.3722  0.1111  0.2527
 8437W        W23906   7.794  11.575   0.979 -0.0887  0.3438 -0.1265
 8438W        W23907  18.074  11.974  15.245  0.0362  0.0881 -0.0475
 8439W        W23908  15.263   1.683  16.052 -0.1908 -0.1206 -0.0674
 8440W        W23909  16.043   2.978   3.426  0.3481 -0.2492 -0.2648
 8441W        W23910   4.160  10.226   2.945 -0.2810  0.0300  0.3438
 8442W        W23911   6.625   2.127   0.797 -0.0743 -0.3010  0.0837
 8443W        W23912   1.880  14.337   1.219  0.0481  0.1830  0.0795
 8444W        W23913   6.744  13.942   4.450 -0.1683 -0.1092  0.2169
 8445W        W23914  14.790   1.098  14.446  0.0658 -0.0408 -0.0512
 8446W        W23915  14.156  11.389  15.622  0.1500  0.2970 -0.1084
 8447W        W23916   4.492   6.876  12.667  0.0298 -0.0289 -0.0193
 8448W        W23917   4.017  16.917  13.987 -0.1721 -0.4856  0.2456
 8449W        W23918   7.371  13.315   1.539  0.2686  0.2675  0.0091
 8450W        W23919   3.271  14.231   5.405 -0.1017 -0.1670 -0.0971
 8451W        W23920   0.101  11.854  12.026  0.0131  0.0504 -0.0945
 8452W        W23921  18.018   5.198   2.228 -0.1450  0.0118  0.0919
 8453W        W23922   9.917  14.990   4.473  0.1691 -0.1917  0.3017
 8454W        W23923  12.417   5.154   4.401  0.0227 -0.0632 -0.0953
 8455W        W23924   1.451   8.997   0.588 -0.0434 -0.2795 -0.1514
 8456W        W23925   4.216   6.578   0.762  0.0112  0.2965  0.0216
 8457W        W23926  11.078   6.922   0.921 -0.0558 -0.2550  0.0716
 8458W        W23927  16.229  12.308   3.770  0.1556 -0.3539  0.2843
 8459W        W23928  10.649   3.327   2.893 -0.0160  0.0504 -0.1553
 8460W        W23929   0.646  17.345  10.116  0.0367  0.1762  0.1482
 8461W        W23930   8.391   1.940  15.509  0.1991 -0.2362  0.1901
 8462W        W23931   4.311  16.346   1.436  0.1061  0.0516  0.0594
 8463W        W23932   6.679   4.745   1.059  0.0241 -0.2524 -0.2088
 8464W        W23933   0.208   3.479  13.989  0.0819  0.0353 -0.0831
 8465W        W23934  10.791  14.695  12.856  0.0008 -0.0136  0.0953
 8466W        W23935   8.636  13.448  12.292  0.2300 -0.2657  0.3095
 8467W        W23936  15.411   1.828  11.574  0.0480  0.1202  0.1036
 8468W        W23937   1.312   6.386   1.195  0.2611 -0.1115  0.0499
 8469W        W23938   6.964   1.026  13.330 -0.2308  0.0340  0.0583
 8470W        W23939   6.858   6.835  10.578 -0.0581  0.0530  0.1594
 8471W        W23940   2.905   7.208  11.969  0.1828  0.0544 -0.0190
 8472W        W23941  14.738   2.714  15.704 -0.1332  0.0265 -0.1146
 8473W        W23942   4.619   2.650  12.455  0.0365 -0.1338 -0.0921
 8474W        W23943  16.224   7.843   3.203 -0.0466  0.1707 -0.2945
 8475W        W23944  16.540  10.686   1.587  0.2394  0.0004  0.0218
 8476W        W23945   9.953   2.831  12.641 -0.0798 -0.1361 -0.1187
 8477W        W23946   2.539  12.572  13.522  0.2050  0.0338  0.4634
 8478W        W23947   7.661   0.886   1.904 -0.1471 -0.1070  0.0247
 8479W        W23948   1.202  15.172  12.218 -0.1953  0.2571  0.1754
 8480W        W23949  15.658  17.322   5.165 -0.0487 -0.0509 -0.2118
 8481W        W23950  15.448   6.989   1.847 -0.1403  0.3456  0.0316
 8482W        W23951   5.512  15.085   3.639  0.2742  0.2421 -0.0083
 8483W        W23952   0.968   5.070   2.351 -0.0590  0.0460  0.3379
 8484W        W23953   9.811   8.263  16.092 -0.1504 -0.2768  0.2304
 8485W        W23954  11.653  17.773  15.603 -0.0241  0.1161  0.0210
 8486W        W23955   1.784   7.229  11.985  0.1078  0.3404  0.2787
 8487W        W23956   0.779  16.585   1.266 -0.2920 -0.0057  0.3366
 8488W        W23957   6.270  17.799   1.092 -0.0390  0.2264 -0.0410
 8489W        W23958   3.311   7.064  14.463  0.0594  0.4128  0.0716
 8490W        W23959   7.247   7.403   1.026  0.0903  0.0853  0.0319
 8491W        W23960   7.420   5.619  12.467  0.1844  0.0189 -0.0265
 8492W        W23961   1.676   8.871   0.167 -0.1002  0.0846  0.0593
 8493W        W23962   7.739  17.530  12.929 -0.0308 -0.2774  0.0227
 8494W        W23963   7.072   9.971   3.642  0.0112 -0.3293 -0.0732
 8495W        W23964  12.792  17.277   4.612 -0.0257 -0.1239 -0.1867
 8496W        W23965  10.378  13.308  14.971  0.0287  0.1235 -0.0313
 8497W        W23966   7.483  14.713   1.469 -0.4826 -0.2906  0.0456
 8498W        W23967  12.989  14.316   3.948  0.0689 -0.0406  0.0781
 8499W        W23968  17.379   3.276  12.861  0.2991 -0.0931  0.2102
 8500W        W23969   2.155   3.206  15.718 -0.1035  0.1300 -0.2215
 8501W        W23970   0.882   7.852   1.998  0.0119  0.0554 -0.1451
 8502W        W23971  14.134   8.407  15.371 -0.0814 -0.0118 -0.0619
 8503W        W23972  12.320   3.173   1.125 -0.2510 -0.1729  0.0960
 8504W        W23973  13.375   7.078   3.772 -0.1115 -0.2035  0.3029
 8505W        W23974  16.187   4.564  16.221 -0.1737  0.0014  0.3621
 8506W        W23975  15.640  14.202   2.558 -0.2202  0.1486  0.1560
 8507W        W23976   7.056   3.389   5.566  0.1153 -0.0994  0.1116
 8508W        W23977  15.493   4.971   4.719  0.2866 -0.0396  0.0465
 8509W        W23978  10.161   9.151   0.007 -0.1145 -0.1099 -0.1340
 8510W        W23979   5.162  14.885  13.753  0.2568  0.1364 -0.0652
 8511W        W23980  15.658  10.187   0.622  0.1876 -0.2135  0.0447
 8512W        W23981  12.104   6.430   3.087  0.1268  0.0611  0.1920
 8513W        W23982  16.921  17.469  14.279  0.0641  0.1230 -0.2025
 8514W        W23983   9.532   2.016  15.872 -0.2598  0.0112  0.0281
 8515W        W23984  16.098   5.499  11.952  0.0394 -0.1001 -0.0287
 8516W        W23985  14.100   9.604  15.102  0.2236  0.0881  0.0351
 8517W        W23986   5.964  10.664   4.977 -0.0333  0.1787  0.1175
 8518W        W23987  18.018  17.782  15.308  0.1102 -0.0372  0.1596
 8519W        W23988   9.893  13.732  13.248  0.1048  0.0885  0.4018
 8520W        W23989  13.802   2.738  12.940  0.1315 -0.2379 -0.2602
 8521W        W23990   2.780  16.987   4.244 -0.2150 -0.1165  0.1342
 8522W        W23991   8.333  16.153  12.024 -0.1800 -0.2490 -0.3189
 8523W        W23992   4.065  10.000   3.402  0.1614 -0.3147 -0.1647
 8524W        W23993  12.353   0.746  14.720  0.0510 -0.0962  0.2820
 8525W        W23994   8.923   5.693   2.379 -0.1946  0.0620 -0.1396
 8526W        W23995   1.579   0.428  12.859  0.3312 -0.0005  0.2325
 8527W        W23996  15.312   7.244   2.991 -0.0788 -0.1599  0.1183
 8528W        W23997   2.937  16.622  10.926 -0.1349 -0.1780 -0.1620
 8529W        W23998   6.378   7.459   5.572  0.0562  0.0129  0.1051
 8530W        W23999   2.544   7.811   3.703  0.4561 -0.1681 -0.0709
 8531W        W24000  17.389  17.618   4.496  0.1719  0.1550 -0.0538
 8532W        W24001  15.320   3.612  12.887 -0.0783  0.1015 -0.0306
 8533W        W24002  12.782   4.135  15.052  0.2368 -0.1322 -0.1009
 8534W        W24003   1.636   7.771   4.998  0.0218  0.3599 -0.1702
 8535W        W24004  17.058  10.907  14.423  0.2998  0.0449  0.0330
 8536W        W24005  10.308   3.202   1.424 -0.1769  0.0325  0.1426
 8537W        W24006  15.542   8.000   2.744 -0.0298  0.1116 -0.1077
 8538W        W24007  15.389   4.114   3.619  0.1562 -0.0345  0.0366
 8539W        W24008   4.019  13.550  12.196  0.0550  0.0276  0.0793
 8540W        W24009   4.633  13.400   0.257  0.2301 -0.2263  0.3011
 8541W        W24010  14.503  10.600  15.873  0.3807 -0.1712 -0.2151
 8542W        W24011  10.895  12.908  15.608 -0.1389  0.0130  0.0203
 8543W        W24012   1.982  11.861  15.031  0.1034 -0.0103  0.0730
 8544W        W24013   8.053  12.635   3.606 -0.2037  0.2414  0.1336
 8545W        W24014   6.382  11.737   0.955 -0.0264  0.0478  0.1389
 8546W        W24015   8.225   9.000   2.318 -0.1918 -0.0927  0.1716
 8547W        W24016   0.230  17.417   0.984 -0.0744 -0.0510  0.0826
 8548W        W24017   3.536   5.029   2.935  0.1837  0.1297  0.1705
 8549W        W24018   9.027   7.671  13.145  0.0163 -0.0810 -0.1153
 8550W        W24019   1.231  10.312   0.097  0.0343  0.2978 -0.1011
 8551W        W24020  16.432  13.147  11.716 -0.0838 -0.2466 -0.0233
 8552W        W24021   2.180  11.871   4.321 -0.0331  0.0087  0.0612
 8553W        W24022  17.034   8.227  14.461  0.1097 -0.3780  0.3309
 8554W        W24023   6.710  17.674   2.956  0.1963 -0.0400  0.2212
 8555W        W24024   3.458   0.392  14.786 -0.0098  0.1279  0.1618
 8556W        W24025  15.156   1.319  14.193  0.1601  0.2228 -0.0343
 8557W        W24026   0.727  16.615  11.358 -0.0958 -0.0131 -0.1473
 8558W        W24027  16.883  17.627  11.800 -0.0595  0.0540  0.2268
 8559W        W24028  11.009   3.565   2.365 -0.1202  0.0393 -0.0439
 8560W        W24029  11.838   4.944   3.266 -0.1403  0.0425  0.1072
 8561W        W24030   6.396   7.431   3.903  0.0190 -0.1975  0.2120
 8562W        W24031   0.937  17.460  15.901 -0.1787  0.1954  0.0224
 8563W        W24032  17.685  13.364  13.392  0.0606  0.0746  0.0572
 8564W        W24033   7.726   9.795  12.001 -0.1114 -0.0797 -0.0134
 8565W        W24034  15.326   4.919  11.339 -0.2691 -0.3581 -0.0409
 8566W        W24035   9.229   8.784   1.362  0.1828  0.0137  0.0193
 8567W        W24036   2.407   7.847  14.644 -0.3223  0.0779  0.0333
 8568W        W24037  10.121   2.545   5.498  0.1779 -0.2745  0.0717
 8569W        W24038   5.767   8.186   4.061 -0.0998 -0.0638  0.1385
 8570W        W24039   7.997  17.613   3.654 -0.1206 -0.1217 -0.1473
 8571W        W24040   9.755  15.913   5.495  0.1422 -0.0002  0.1172
 8572W        W24041  13.957   0.325   4.462 -0.2019  0.2425  0.2473
 8573W        W24042  11.117  15.549   0.837 -0.1839 -0.0293  0.1912
 8574W        W24043   5.802   3.357  13.403  0.4016 -0.1497  0.0345
 8575W        W24044   7.347  17.023  10.877  0.3269 -0.3321  0.0486
 8576W        W24045   5.049  15.804   1.459 -0.0170 -0.0334 -0.1133
 8577W        W24046   0.810   2.163   3.086  0.0119  0.0657 -0.2020
 8578W        W24047  11.881   1.490   4.322 -0.2143  0.4738  0.0808
 8579W        W24048   8.625  17.110   0.959 -0.1777  0.1262  0.0069
 8580W        W24049   3.999  16.065  12.900  0.0558  0.0740 -0.0263
 8581W        W24050   2.379  13.833  11.229 -0.0582 -0.1765  0.0989
 8582W        W24051   5.750   7.155  13.455 -0.1620  0.2616 -0.1912
 8583W        W24052  14.054   6.578  15.057  0.2940 -0.2756 -0.2435
 8584W        W24053  15.613   9.260   2.112 -0.0334 -0.0620 -0.1432
 8585W        W24054   8.559  11.999   0.662 -0.1618  0.0493 -0.1003
 8586W        W24055   8.439  17.497  15.907  0.4238  0.0632 -0.2595
 8587W        W24056  12.837  17.612  14.112 -0.2713  0.0112 -0.0305
 8588W        W24057  10.962   2.052   1.662 -0.1144  0.1925  0.0096
 8589W        W24058  15.508  16.561   0.087  0.0729 -0.4214 -0.1334
 8590W        W24059  16.310   1.221  11.968 -0.3065  0.1270  0.0453
 8591W        W24060  14.158  17.322   1.172  0.2391 -0.1712  0.0644
 8592W        W24061   4.966  16.403   5.208 -0.1941  0.0439  0.0008
 8593W        W24062   8.252   3.863  12.403  0.0368  0.0757 -0.0126
 8594W        W24063   9.397   0.062   0.539  0.1214  0.0474 -0.1346
 8595W        W24064   4.148  10.329  12.031  0.1420  0.0379  0.2145
 8596W        W24065   6.324  11.634  14.958 -0.1246 -0.2969 -0.1332
 8597W        W24066  13.965  13.231  12.281 -0.3752  0.0257  0.1219
 8598W        W24067  10.900  11.805  11.646  0.0868 -0.0721  0.2232
 8599W        W24068  11.630   6.327   5.720 -0.2078 -0.2040  0.0090
 8600W        W24069   2.839   1.644  11.434  0.1419  0.1127  0.0656
 8601W        W24070  11.454   8.803  11.327 -0.0507  0.0606  0.2338
 8602W        W24071  16.481   3.819  11.158 -0.1661 -0.0921  0.1400
 8603W        W24072   9.763  17.259  13.226  0.0833  0.0708  0.0610
 8604W        W24073   6.094   5.486   4.597  0.1003 -0.4347 -0.1394
 8605W        W24074  15.070   9.574   3.493 -0.0068  0.2499  0.0179
 8606W        W24075   3.774   7.884  12.311  0.2358  0.1750  0.0786
 8607W        W24076  12.432  16.739  11.637 -0.2885 -0.1181  0.1755
 8608W        W24077   1.458   4.557   1.220  0.0687 -0.5063  0.1060
 8609W        W24078   4.670   2.944   0.384 -0.0877 -0.2780 -0.1917
 8610W        W24079   4.248  10.679   2.652 -0.0268  0.0278  0.0867
 8611W        W24080   0.023   1.079   2.877  0.0715  0.0038  0.0572
 8612W        W24081   3.597  13.793   4.034 -0.2598 -0.2701 -0.3388
 8613W        W24082  12.774  16.737  14.667  0.1970 -0.0427  0.4800
 8614W        W24083  18.028  11.670   4.634  0.2628  0.3228  0.1407
 8615W        W24084  12.013  11.577   3.723 -0.0934 -0.0669 -0.0860
 8616W        W24085  11.927   3.214   5.023 -0.1130 -0.1139 -0.0945
 8617W        W24086  12.967  15.615  11.643 -0.4083  0.0832 -0.3194
 8618W        W24087  11.135   8.636  10.210 -0.2747 -0.0679 -0.1840
 8619W        W24088   6.840   5.338  11.950  0.3136 -0.1645 -0.0726
 8620W        W24089   8.258   5.791   3.582  0.1988 -0.1576  0.0520
 8621W        W24090  12.201  17.147  12.897 -0.0540  0.0140 -0.2960
 8622W        W24091  13.592  10.270  13.134 -0.2283  0.1841 -0.0530
 8623W        W24092   8.593  12.889   4.885 -0.4204  0.0250  0.1452
 8624W        W24093  12.860   1.775  12.840 -0.3170  0.0972 -0.1709
 8625W        W24094  17.070   5.804  15.096 -0.1989  0.0937  0.0798
 8626W        W24095  11.817   6.111   5.243 -0.2978  0.0136  0.2793
 8627W        W24096  17.599   5.945   1.047  0.0858 -0.1647  0.0912
 8628W        W24097   8.842  10.718   3.648 -0.1088  0.0027 -0.2996
 8629W        W24098  16.661  16.199   3.018  0.0434  0.1161  0.1082
 8630W        W24099   5.803   9.220  14.482 -0.0828 -0.0099 -0.0595
 8631W        W24100  10.651   7.293   0.810  0.0768 -0.3662 -0.2360
 8632W        W24101   5.760  15.010  16.098  0.2222 -0.0920 -0.1346
 8633W        W24102   0.444  14.569   5.414 -0.3129  0.1009 -0.0462
 8634W        W24103   6.479   6.997  14.526  0.1839  0.1465  0.1358
 8635W        W24104   3.354  10.243   0.225 -0.1854  0.2058 -0.1495
 8636W        W24105   1.112   1.006   3.010 -0.1498 -0.0528 -0.2430
 8637W        W24106   9.199  10.055   0.430  0.0603 -0.1061 -0.1555
 8638W        W24107  14.841   9.484  13.514  0.0366 -0.1230  0.0322
 8639W        W24108   9.432  13.309  11.808 -0.0579  0.0122 -0.0716
 8640W        W24109   4.322   2.298  13.325  0.2976  0.0555 -0.1860
 8641W        W24110   4.990  15.463   2.247 -0.1548 -0.1072 -0.1405
 8642W        W24111   7.953  14.633   5.824 -0.0896 -0.3274  0.0027
 8643W        W24112  14.363   2.053  12.540 -0.2031 -0.0336  0.0904
 8644W        W24113  17.081   4.153   2.334 -0.0037 -0.0781 -0.2261
 8645W        W24114  18.032  14.892  13.094 -0.2993 -0.1468 -0.1354
 8646W        W24115  17.936   6.939  11.516  0.1421 -0.0819  0.0892
 8647W        W24116   9.828  15.896   4.960  0.2223  0.0003 -0.0272
 8648W        W24117  16.054  18.009  15.563 -0.2539 -0.1971 -0.0474
 8649W        W24118  12.665   5.059   0.841  0.0753 -0.3207  0.1500
 8650W        W24119   0.865  11.738   2.373 -0.0957 -0.0551 -0.1167
 8651W        W24120   0.422  17.706   1.372 -0.0470 -0.0293 -0.0475
 8652W        W24121  15.441   5.385  11.220 -0.1087 -0.2768  0.1436
 8653W        W24122   1.492   5.178   0.067  0.1937  0.0166 -0.0962
 8654W        W24123   2.776  13.957   1.593  0.2782  0.1896 -0.0680
 8655W        W24124  12.990   3.875   3.198  0.3247 -0.1576  0.0979
 8656W        W24125  14.099  15.524  15.873 -0.1399  0.3135 -0.2893
 8657W        W24126   1.627   5.937  15.009  0.1845  0.1648 -0.1882
 8658W        W24127   0.525  11.100  12.539 -0.1280 -0.1707  0.4285
 8659W        W24128   7.632   8.390  14.738  0.0146  0.2024 -0.1794
 8660W        W24129   0.062   3.986   0.986 -0.3150 -0.1804 -0.2420
 8661W        W24130  11.677  17.585   0.985 -0.1988 -0.0569  0.4791
 8662W        W24131  17.564   7.966  13.547  0.1677 -0.0992  0.0523
 8663W        W24132  14.685  17.363  15.895 -0.0468 -0.1693  0.0062
 8664W        W24133   6.051  14.793   0.608  0.2203  0.1683  0.0639
 8665W        W24134   7.360  16.795  12.097  0.1989  0.0088  0.0768
 8666W        W24135   8.580  11.362   2.130 -0.2233 -0.1896  0.0080
 8667W        W24136   0.524  13.661  14.518  0.1539 -0.1894  0.1228
 8668W        W24137  10.592   5.816   2.370 -0.3042 -0.0345 -0.1089
 8669W        W24138   3.615   6.601  15.249  0.0524 -0.0401 -0.2874
 8670W        W24139   3.205   4.874   1.794 -0.2631  0.1358 -0.0395
 8671W        W24140   8.188   9.295  15.334  0.0611 -0.1072 -0.0385
 8672W        W24141   9.271   0.902  11.391 -0.2742  0.0515  0.1806
 8673W        W24142   9.800  12.581   0.202  0.0330  0.1077 -0.1423
 8674W        W24143   7.016   4.553  15.912 -0.1744  0.3169 -0.1785
 8675W        W24144   6.491  16.085  15.256  0.1141 -0.1363  0.3977
 8676W        W24145   6.147  11.810   2.275  0.0674  0.0972 -0.0988
 8677W        W24146  12.861   6.492  11.557  0.3801 -0.1614 -0.3838
 8678W        W24147   4.041   3.165   1.950 -0.0106  0.1473 -0.1543
 8679W        W24148   5.637   6.858   3.467  0.2259 -0.1372 -0.1926
 8680W        W24149  16.780  15.161  13.585 -0.1356 -0.3232  0.0552
 8681W        W24150   2.013  16.516  11.737  0.2204  0.1184  0.1729
 8682W        W24151   9.213   4.360  12.118  0.0311 -0.0520 -0.1762
 8683W        W24152  10.193  17.712  15.665  0.3540 -0.1666 -0.1642
 8684W        W24153   0.298  13.570  14.971  0.1135 -0.3016 -0.1543
 8685W        W24154   5.706  17.643  10.857  0.1017  0.0971  0.0679
 8686W        W24155  14.255   9.603   4.529 -0.1195 -0.1097  0.0472
 8687W        W24156   8.775  16.697  15.796  0.3373  0.1483  0.2660
 8688W        W24157   1.832  11.307  12.471  0.1382  0.1222 -0.0119
 8689W        W24158   6.048   7.980  15.449 -0.1145  0.2015  0.4008
 8690W        W24159   8.757   5.646  14.699 -0.0993  0.1408 -0.1004
 8691W        W24160  17.752   5.619   1.380  0.0649 -0.1243  0.0755
 8692W        W24161   5.346  13.374  11.134 -0.0386  0.2607 -0.0249
 8693W        W24162  16.908   9.761   0.089  0.0698  0.1832 -0.2043
 8694W        W24163  14.900  12.327  12.815  0.0564  0.3454 -0.1870
 8695W        W24164  17.884   8.943   3.992 -0.1677  0.0511  0.1105
 8696W        W24165   5.463   4.256  15.002  0.0379  0.1630  0.0204
 8697W        W24166  12.974   5.900  15.331  0.1956 -0.2336  0.1671
 8698W        W24167  16.420  14.557   3.079  0.1096  0.1615  0.0825
 8699W        W24168   6.433   3.111  12.167  0.0928 -0.0313  0.0255
 8700W        W24169  10.634   9.151  10.241  0.0428  0.2102 -0.1660
 8701W        W24170  16.124  15.480   5.795 -0.1161  0.0963 -0.0714
 8702W        W24171   6.271  16.491   2.316  0.0509  0.0972 -0.1395
 8703W        W24172   6.670  17.619  10.446  0.2114 -0.0197 -0.0406
 8704W        W24173  12.041  11.176   0.482 -0.2753  0.1466  0.2293
 8705W        W24174  16.753  14.561  13.745 -0.2154 -0.1335  0.0500
 8706W        W24175  18.022   6.320  11.777  0.0497 -0.0000 -0.1387
 8707W        W24176  16.919   9.322  11.380  0.0362 -0.1167 -0.1166
 8708W        W24177  17.582  14.013   3.002 -0.2846 -0.0835 -0.1787
 8709W        W24178   1.617  15.873  13.368  0.0180 -0.0656  0.0836
 8710W        W24179  13.063  12.476  12.895 -0.0928 -0.1510  0.4082
 8711W        W24180   7.529   9.505  16.048  0.0261 -0.2183 -0.0964
 8712W        W24181  10.480   3.906  14.434  0.1459 -0.1000 -0.1848
 8713W        W24182   3.821  13.497   5.018 -0.4292 -0.1044 -0.3365
 8714W        W24183   8.144   6.937   0.290  0.4304 -0.0193  0.0579
 8715W        W24184   3.262   1.563   4.508  0.1499 -0.1906 -0.2761
 8716W        W24185   2.206   7.331   2.535 -0.1882  0.1217 -0.0487
 8717W        W24186   5.879  10.120   1.881 -0.0690  0.0043 -0.2545
 8718W        W24187   0.944  15.035  14.708 -0.1999 -0.1651 -0.0577
 8719W        W24188  12.785   4.730  16.309 -0.0917  0.1186 -0.3287
 8720W        W24189   3.734   7.674  15.228  0.0469 -0.0567 -0.0032
 8721W        W24190   9.752   4.577  15.067  0.2742  0.1642 -0.1798
 8722W        W24191  13.911  10.052   3.420 -0.3249 -0.0573 -0.0636
 8723W        W24192  18.031   7.609  12.700 -0.0939  0.1266 -0.0492
 8724W        W24193   8.226   1.125   3.623 -0.1158 -0.0922  0.0412
 8725W        W24194  16.285   4.959   0.271 -0.0324 -0.1472  0.0087
 8726W        W24195   1.044  16.305   4.985 -0.1693 -0.0650 -0.3050
 8727W        W24196  10.090   5.003  14.996  0.0941  0.0320 -0.1014
 8728W        W24197   7.531   3.012  11.372 -0.1036  0.1291 -0.1353
 8729W        W24198   0.704  17.390   0.018 -0.0604  0.3227 -0.0322
 8730W        W24199   9.322  16.863   4.519  0.0835 -0.0985 -0.2559
 8731W        W24200  10.476   1.154  12.434  0.0444 -0.0169  0.0841
 8732W        W24201   2.242  13.427  10.619 -0.0414 -0.1406 -0.0782
 8733W        W24202  13.522  11.126  11.944  0.0635  0.1730 -0.3362
 8734W        W24203   4.768   9.567   3.326  0.0036  0.0386 -0.2769
 8735W        W24204  15.520  15.691   5.272 -0.3278 -0.2019 -0.0328
 8736W        W24205   0.281   1.994   3.804 -0.1179 -0.1526  0.2375
 8737W        W24206  16.250   2.051   4.582 -0.0480  0.0613 -0.0728
 8738W        W24207   1.146   0.811   4.810 -0.0319 -0.0944  0.0047
 8739W        W24208  17.345  13.522   6.002 -0.0586  0.0054 -0.1744
 8740W        W24209   8.827  10.594   5.458  0.1528  0.3611  0.0327
 8741W        W24210   0.626  15.030  12.261  0.1510  0.1546  0.0807
 8742W        W24211  17.978   0.465  16.017 -0.0021  0.1256 -0.0969
 8743W        W24212   4.193   5.741   5.635 -0.0966  0.2458  0.2512
 8744W        W24213   2.980  15.032  11.491 -0.2953 -0.1796  0.0591
 8745W        W24214  12.168   1.297   2.193  0.1034 -0.3640 -0.0103
 8746W        W24215   2.905  11.786   3.912 -0.0718 -0.1517  0.0875
 8747W        W24216  14.166   1.096   5.599  0.0143  0.0896  0.2617
 8748W        W24217  10.026  11.565   5.798 -0.0942 -0.1640  0.2987
 8749W        W24218   3.392   0.406   0.051 -0.1624 -0.0290 -0.0107
 8750W        W24219  17.660   8.030   4.358  0.0609  0.0687  0.1018
 8751W        W24220   3.931   9.663  15.195 -0.2303 -0.0810  0.0295
 8752W        W24221   2.398   9.975  13.771  0.0894  0.3654  0.1199
 8753W        W24222   1.546   6.830   1.044  0.0903 -0.0101  0.0105
 8754W        W24223  12.922  10.319  15.889  0.1086  0.0650 -0.1624
 8755W        W24224  13.463   3.717   1.774  0.3222 -0.0804  0.2787
 8756W        W24225  16.803  10.480  12.814  0.0842 -0.0240 -0.3437
 8757W        W24226  14.776  11.828  15.448 -0.0670 -0.0520  0.0762
 8758W        W24227   3.693  12.276   0.250 -0.2556  0.1907  0.0396
 8759W        W24228  15.611  12.116  13.027 -0.2477  0.2834 -0.1709
 8760W        W24229  12.526  17.004   3.278  0.0487 -0.2525  0.0194
 8761W        W24230   2.928   9.559   4.077  0.0968  0.0847 -0.0800
 8762W        W24231   2.258  12.518  10.580 -0.0485 -0.4315 -0.0774
 8763W        W24232   9.005   1.132   3.067 -0.1840 -0.1230  0.0140
 8764W        W24233   0.068   9.017   1.767 -0.2550 -0.1184  0.0337
 8765W        W24234   0.464   8.546  12.220 -0.0861 -0.2156 -0.3754
 8766W        W24235   3.479   5.357   0.457 -0.3779 -0.2887  0.1194
 8767W        W24236  17.705  15.842  13.603  0.2362 -0.0298  0.1473
 8768W        W24237   8.733   4.025  14.327 -0.0841  0.0336  0.2019
 8769W        W24238  14.604  15.899  11.068  0.3029  0.0866 -0.1693
 8770W        W24239   9.869  13.397  12.843 -0.1771  0.1533 -0.1915
 8771W        W24240   4.454   9.501  12.242 -0.0330  0.1788  0.0430
 8772W        W24241   3.160  16.903  13.154 -0.0673 -0.0457  0.0922
 8773W        W24242  10.640  12.679   2.597 -0.2705 -0.2750 -0.0049
 8774W        W24243   6.134   1.202  13.834  0.2721  0.0849  0.0337
 8775W        W24244   1.381   6.006  11.832  0.0432  0.2374 -0.3279
 8776W        W24245  15.728  12.891  15.985  0.1343 -0.0641 -0.0602
 8777W        W24246   7.519   6.740  15.328 -0.2270  0.2545  0.0452
 8778W        W24247  11.990   6.158  11.677 -0.0512  0.0080 -0.2470
 8779W        W24248   9.509  13.622   5.035  0.2373 -0.1490  0.3435
 8780W        W24249   1.341  10.535   2.237 -0.2204 -0.1669  0.0724
 8781W        W24250   1.967  15.860   4.556 -0.1506  0.0322 -0.0454
 8782W        W24251   3.536   8.727  12.360  0.3375 -0.1288  0.1206
 8783W        W24252  15.864   5.610   6.323  0.3527 -0.0962  0.0808
 8784W        W24253   5.863  12.173  14.527 -0.2590 -0.1460 -0.1491
 8785W        W24254   5.938  12.836  13.448  0.2166 -0.1899  0.1867
 8786W        W24255   1.567   1.933  15.334  0.0415 -0.1208  0.0572
 8787W        W24256  12.548   3.047   4.934 -0.1779  0.1127  0.1992
 8788W        W24257   5.303   4.836  15.360  0.1113  0.1357  0.2424
 8789W        W24258   6.259  15.445   5.279 -0.1461  0.0015  0.3870
 8790W        W24259  11.685  15.762   3.638  0.1522  0.0535  0.2049
 8791W        W24260  11.370   8.854   0.812  0.1021 -0.0001 -0.0745
 8792W        W24261  16.941   5.941  16.062  0.1371 -0.1284 -0.1745
 8793W        W24262   7.216  10.311  11.011  0.0089  0.2950 -0.1810
 8794W        W24263   8.265  13.201   0.834  0.1122  0.0294 -0.1362
 8795W        W24264   3.129  17.073   1.266 -0.1002  0.1771 -0.2025
 8796W        W24265   6.060  11.228  11.891  0.3012 -0.2755 -0.1765
 8797W        W24266  10.770  17.555  12.770 -0.0665  0.0139 -0.1158
 8798W        W24267  15.879  13.345  14.641 -0.1400 -0.1197  0.1250
 8799W        W24268  14.168   0.378  16.283  0.0999  0.0462 -0.0371
 8800W        W24269   5.277   0.021   0.250 -0.1248 -0.0820 -0.0903
 8801W        W24270  12.197   7.682   1.496 -0.1275  0.2863  0.0607
 8802W        W24271  10.256  16.294  14.982 -0.1732  0.0902  0.0449
 8803W        W24272  16.256  13.134   1.042  0.2158  0.0633  0.5036
 8804W        W24273   9.669  12.467   2.944  0.0649  0.2789  0.2591
 8805W        W24274   0.424   6.040  10.639 -0.0309  0.0155  0.0071
 8806W        W24275   8.482  10.641  16.286  0.0887 -0.1833  0.0644
 8807W        W24276   6.491  13.507   4.442  0.0443  0.2401 -0.2026
 8808W        W24277  14.275  16.611   4.416 -0.2159 -0.0002 -0.1530
 8809W        W24278   9.708  16.905  15.887 -0.2014 -0.3086  0.0614
 8810W        W24279   6.341  13.178  12.635  0.1530 -0.3608 -0.2292
 8811W        W24280   9.446  12.618   1.293  0.1462  0.1630  0.3146
 8812W        W24281   9.834   8.184  15.605  0.2055 -0.0495  0.1743
 8813W        W24282  16.516   2.412  13.012  0.0212  0.3761 -0.1693
 8814W        W24283   5.987  17.820   5.589 -0.1318 -0.0369  0.1988
 8815W        W24284  11.364   4.636  15.922  0.0813 -0.0690 -0.3085
 8816W        W24285  17.560  14.028  10.181  0.1575  0.1732 -0.0352
 8817W        W24286  10.191  10.567  15.337  0.1556  0.0848  0.2132
 8818W        W24287   9.089   7.708   5.288  0.0698 -0.3486 -0.3759
 8819W        W24288  12.412   4.331  11.095  0.0273  0.2041  0.0107
 8820W        W24289   9.744   3.561   0.204 -0.0393 -0.0054  0.2736
 8821W        W24290   6.001   7.861  15.991  0.1351  0.0710  0.2432
 8822W        W24291   9.016   8.421  11.987  0.2494  0.2865 -0.0779
 8823W        W24292   7.150   4.150  13.783  0.0964  0.1997  0.1480
 8824W        W24293   3.496  10.173   5.727 -0.3431  0.2056 -0.1199
 8825W        W24294   4.356  13.907   1.919  0.2558 -0.0262  0.2569
 8826W        W24295  16.985   7.623  15.678  0.2911  0.1340 -0.3183
 8827W        W24296  16.850   1.468   5.044 -0.2804  0.4796 -0.0849
 8828W        W24297   9.462  12.561  12.258  0.2500  0.2386 -0.1856
 8829W        W24298  12.318   0.603   5.704 -0.1227  0.3055  0.0687
 8830W        W24299   0.621  12.740   4.520  0.1020  0.0714 -0.1207
 8831W        W24300   0.324  10.107   3.608 -0.2640 -0.1166 -0.0596
 8832W        W24301  13.846   4.030  13.364  0.0872  0.0173 -0.0356
 8833W        W24302  13.611   3.462  14.167 -0.2648 -0.2931 -0.0409
 8834W        W24303  12.532   2.156  15.524  0.1085  0.2395 -0.1354
 8835W        W24304   0.515   0.003  14.481  0.0004  0.2159  0.3123
 8836W        W24305   3.922  17.654   2.247 -0.1313  0.2087  0.1661
 8837W        W24306   9.047  12.427   1.761 -0.1014  0.0070 -0.1505
 8838W        W24307   1.106   9.618   5.133  0.2099 -0.1467  0.1333
 8839W        W24308   2.270   4.495  10.125  0.0213  0.2426  0.0681
 8840W        W24309   4.334  16.961  13.110  0.3770 -0.0805 -0.2640
 8841W        W24310   3.140   3.339   3.579 -0.2137 -0.3082 -0.0524
 8842W        W24311  13.404  11.857  14.357  0.3476 -0.1332  0.0432
 8843W        W24312   7.430   1.312  13.684  0.1018 -0.3068  0.0225
 8844W        W24313  10.764  17.695  13.261 -0.0623  0.3186  0.1155
 8845W        W24314   3.047  17.502   2.384  0.0626  0.0816  0.1884
 8846W        W24315   5.747   4.048  14.176  0.2782 -0.1792 -0.0331
 8847W        W24316  17.220   8.269   4.209  0.2271 -0.0817 -0.0531
 8848W        W24317  13.427  14.874   3.895 -0.2361  0.1677 -0.1224
 8849W        W24318  15.237  10.880   3.101 -0.1546 -0.0676  0.0785
 8850W        W24319   4.962  16.588  12.609 -0.1326 -0.0147 -0.1461
 8851W        W24320  13.477   9.751   1.982 -0.0267  0.4396  0.0838
 8852W        W24321  10.607  11.070  12.973 -0.0243  0.1077 -0.1262
 8853W        W24322  15.151   4.526  15.393  0.0892  0.0284  0.0550
 8854W        W24323   4.179  13.043  13.860 -0.3908 -0.2015 -0.0952
 8855W        W24324  13.751   0.465  12.317  0.3075 -0.0309  0.2204
 8856W        W24325   2.966  14.117  13.939  0.1015 -0.4840 -0.1020
 8857W        W24326   9.662   1.416   4.356 -0.1660 -0.2183 -0.1436
 8858W        W24327   1.258   1.551  15.388 -0.1546  0.0809 -0.1099
 8859W        W24328   8.777  15.587  15.887  0.1175 -0.1293 -0.0288
 8860W        W24329  17.163  15.889  12.284 -0.0103  0.3367 -0.1337
 8861W        W24330  12.031  15.925   2.387  0.1462 -0.0650 -0.0324
 8862W        W24331   6.385   4.799  14.478  0.0805 -0.1484  0.0281
 8863W        W24332   2.829  11.756   2.056  0.0154  0.0309  0.1480
 8864W        W24333  13.376  10.554   2.442 -0.1788 -0.0707 -0.0994
 8865W        W24334   0.817  13.186   0.294  0.3759  0.2356  0.1521
 8866W        W24335  16.454  18.051  16.223 -0.0017 -0.1331  0.0448
 8867W        W24336  12.831  17.114  16.178 -0.0892  0.0663 -0.1442
 8868W        W24337   7.216  14.681  11.022  0.0708  0.3276  0.2613
 8869W        W24338   0.137  12.821   2.158  0.0896 -0.2565 -0.0061
 8870W        W24339   5.371  10.267  12.730 -0.1425 -0.0713 -0.2118
 8871W        W24340  17.897   9.390  12.176  0.0025 -0.0483  0.0282
 8872W        W24341  13.646  17.656  12.738 -0.1030  0.0492 -0.0501
 8873W        W24342  12.253   8.594   0.599 -0.0378  0.4040 -0.3755
 8874W        W24343   9.752   2.127  15.417 -0.0772  0.4584  0.3718
 8875W        W24344  15.467  15.242  13.888 -0.5163  0.3052  0.3258
 8876W        W24345   6.412   5.527   0.846  0.0507 -0.0527 -0.0403
 8877W        W24346  12.161  14.372   4.900 -0.2325 -0.3152  0.0924
 8878W        W24347  11.532  10.970   3.515 -0.0342  0.0344  0.0150
 8879W        W24348  17.443  12.673   4.240 -0.0874 -0.1793  0.0092
 8880W        W24349   4.811  10.891   0.527 -0.2191 -0.0122 -0.1572
 8881W        W24350   3.421   0.414   2.024  0.1829 -0.1244  0.0368
 8882W        W24351  17.982   6.631  12.752 -0.3032 -0.1110 -0.1799
 8883W        W24352   8.647   6.046   3.871 -0.1060  0.2326  0.1275
 8884W        W24353   8.739   7.995   4.603 -0.1731 -0.2897 -0.2193
 8885W        W24354   4.251  17.682  15.770  0.2919  0.2184 -0.0559
 8886W        W24355   3.339   1.730  14.021  0.2537 -0.0223  0.1808
 8887W        W24356  14.190   3.148   1.981 -0.0895 -0.1396  0.0064
 8888W        W24357   5.803   2.489  13.077  0.2061  0.1749 -0.0665
 8889W        W24358   0.264   0.758  16.157 -0.1931 -0.0092  0.1195
 8890W        W24359  17.604   6.964   1.303 -0.0235  0.0516  0.1883
 8891W        W24360   1.933  11.665   3.145 -0.1968  0.3736 -0.1143
 8892W        W24361  14.487   9.013  12.891 -0.2080  0.0106 -0.0881
 8893W        W24362   1.512  12.682  13.050  0.0700 -0.0823 -0.0510
 8894W        W24363  11.510  15.045   3.944 -0.1028 -0.2264  0.1928
 8895W        W24364   1.695  14.853  13.195 -0.2160 -0.2324  0.0808
 8896W        W24365   2.913   8.524  11.723 -0.2552  0.0324  0.2934
 8897W        W24366   5.311   1.199  16.193 -0.1673  0.0427  0.2287
 8898W        W24367   3.290   6.116  15.057  0.1899  0.0373 -0.2101
 8899W        W24368  16.268   6.443   3.273  0.2156  0.1205  0.1520
 8900W        W24369   5.064   9.357   0.359 -0.1567 -0.0813 -0.1062
 8901W        W24370   7.946  11.817  11.369  0.1996  0.0984  0.1547
 8902W        W24371   1.240   0.523  13.438 -0.0690  0.0730  0.0018
 8903W        W24372   5.886  13.787  13.101 -0.0800  0.0241  0.0659
 8904W        W24373   6.875  12.628  11.361 -0.1083  0.2482  0.0542
 8905W        W24374  12.959   7.953   2.024  0.0258 -0.0097 -0.2879
 8906W        W24375   9.212  12.944  14.138 -0.1601  0.3295 -0.0952
 8907W        W24376   8.597  15.426  16.316  0.1050 -0.2521 -0.1129
 8908W        W24377   0.235   7.409   4.290  0.1857 -0.1381  0.1907
 8909W        W24378   9.225  13.692   4.085  0.0717  0.1450  0.1286
 8910W        W24379   2.663  15.568   1.986 -0.1046 -0.1843  0.0995
 8911W        W24380   7.897   3.202  14.328 -0.3458 -0.0317 -0.3255
 8912W        W24381   2.560  16.769   0.399  0.0399  0.1065 -0.1181
 8913W        W24382  14.007   3.992  11.616 -0.1121 -0.2510 -0.0158
 8914W        W24383  12.717  16.412  15.366 -0.4498 -0.0119  0.3418
 8915W        W24384  11.817   4.667   1.101 -0.2084 -0.1495  0.0277
 8916W        W24385   8.700  17.620  15.261 -0.1321  0.1278 -0.0852
 8917W        W24386   2.161  10.448   0.638  0.2880 -0.1203 -0.0420
 8918W        W24387  17.685  11.267   2.193  0.1376 -0.0862  0.4716
 8919W        W24388   8.115   1.619  11.542  0.2153  0.1747 -0.0883
 8920W        W24389   1.258   6.348  10.896  0.0827  0.0577 -0.1627
 8921W        W24390  13.270   6.157   1.148  0.1009 -0.2377  0.0952
 8922W        W24391  16.932   3.715  13.836 -0.1303  0.1934 -0.0742
 8923W        W24392   3.861   2.675   2.016  0.0616  0.1623  0.1376
 8924W        W24393  10.049   8.581  15.342 -0.3081  0.1928  0.2295
 8925W        W24394   1.069   4.337   0.987  0.2386  0.2849 -0.2086
 8926W        W24395   8.060  10.049   2.857 -0.1550  0.0064  0.0348
 8927W        W24396  14.480   0.728  14.271  0.1279 -0.1485 -0.0899
 8928W        W24397   7.495   3.375  10.596  0.0228  0.4143  0.2443
 8929W        W24398   7.415   7.472   3.015 -0.1151  0.0485  0.0321
 8930W        W24399   7.322   2.789   0.944 -0.1073  0.1175  0.0887
 8931W        W24400   9.775   9.355   4.241  0.1929 -0.0620  0.3079
 8932W        W24401   8.732   6.214   2.373 -0.1526 -0.0183 -0.4179
 8933W        W24402  14.226   3.603  15.936  0.2949  0.2146 -0.2523
 8934W        W24403   7.030  14.277  11.647  0.3511 -0.1523  0.0805
 8935W        W24404  16.997   7.738  11.497 -0.2261 -0.2290  0.1843
 8936W        W24405   3.697   1.866  12.733 -0.1964 -0.2516 -0.0549
 8937W        W24406   2.135   0.262   4.385  0.1644 -0.0104 -0.3694
 8938W        W24407  15.170   4.455  14.498 -0.0059 -0.2482  0.0623
 8939W        W24408  10.552   4.181   3.928 -0.2698 -0.0179 -0.3359
 8940W        W24409  16.628  13.404   5.395  0.1961  0.0586 -0.2733
 8941W        W24410   7.194   0.752  11.671 -0.1514 -0.0757 -0.1206
 8942W        W24411  12.995   4.839  13.245 -0.1606 -0.1319 -0.0585
 8943W        W24412   7.873   4.836  12.916 -0.0481 -0.1603  0.0887
 8944W        W24413  17.412   2.678  11.523 -0.0789 -0.0625 -0.0266
 8945W        W24414  14.975  16.010   6.038 -0.2256  0.1916  0.1647
 8946W        W24415   7.496  14.717  13.492  0.1602  0.1978  0.1807
 8947W        W24416   9.421   1.915   2.515 -0.0517  0.2595  0.2604
 8948W        W24417   0.037   5.216  13.058 -0.1474 -0.2010 -0.1556
 8949W        W24418   4.359   5.102  13.051 -0.3517  0.1691 -0.1061
 8950W        W24419   8.228   7.821   3.752 -0.4148  0.0391  0.0603
 8951W        W24420   5.319  14.864   1.706  0.3191 -0.0318 -0.1770
 8952W        W24421   4.164  16.398   0.659 -0.0150  0.1312  0.1734
 8953W        W24422   4.474   5.561  12.352  0.1441  0.1157 -0.1800
 8954W        W24423  15.991   0.231   4.150 -0.3914 -0.1071 -0.1202
 8955W        W24424   5.298   2.767   4.865  0.0902  0.0729  0.1879
 8956W        W24425   5.990  16.910   0.551  0.2168  0.1893 -0.0103
 8957W        W24426  17.955   2.573  15.783  0.0925 -0.0188 -0.2092
 8958W        W24427  16.382   5.132  12.282 -0.0231  0.0080  0.2481
 8959W        W24428   3.945   8.467   2.232 -0.0427 -0.0493 -0.0574
 8960W        W24429  11.261   6.836  13.670 -0.1930  0.2107 -0.0123
 8961W        W24430  13.858   8.727  13.426  0.0179  0.0372  0.0181
 8962W        W24431   0.479  17.847  12.449  0.0423  0.2617 -0.2570
 8963W        W24432   0.069  16.174  12.656  0.1758 -0.2015  0.0840
 8964W        W24433   2.890  16.416  14.470  0.2742  0.1583  0.2577
 8965W        W24434  15.768  17.764  10.194  0.0620 -0.0524 -0.0204
 8966W        W24435   5.598  14.916  11.571  0.1239  0.3506 -0.0467
 8967W        W24436   6.891   7.735  13.310 -0.0441 -0.1910  0.2613
 8968W        W24437   1.394   7.468  13.220  0.1638 -0.0204  0.0472
 8969W        W24438  17.550  11.887  14.442 -0.0503  0.0635  0.3081
 8970W        W24439   5.969   5.780   2.881  0.0581 -0.0877 -0.0943
 8971W        W24440   7.078   4.907  14.427  0.1277  0.1586 -0.1052
 8972W        W24441  17.832  11.503   3.179  0.1885 -0.0185  0.1418
 8973W        W24442  16.480   9.826   5.693  0.0150 -0.1878 -0.1293
 8974W        W24443  16.700   0.947   2.686  0.1458 -0.1253  0.0007
 8975W        W24444   2.656  13.322   4.081  0.0006 -0.1905  0.1301
 8976W        W24445   1.098  16.109   1.765  0.2340  0.0410 -0.0424
 8977W        W24446  10.207   5.812   0.391 -0.1705 -0.3097 -0.2339
 8978W        W24447   4.094   1.252   1.522  0.0282 -0.0206 -0.3675
 8979W        W24448  17.970   5.434   4.821 -0.3685  0.1693 -0.3027
 8980W        W24449   7.700   7.785   4.735  0.2107  0.1204 -0.0759
 8981W        W24450  13.361  11.168   0.171  0.0853  0.0616 -0.0578
 8982W        W24451  11.081   8.223  12.480  0.1729 -0.1241 -0.0016
 8983W        W24452  10.855  10.390   1.669  0.0591  0.1767 -0.0520
 8984W        W24453  10.876   1.311   2.440 -0.1533 -0.0850  0.0867
 8985W        W24454  17.631   0.796   2.868 -0.0441 -0.1053  0.0395
 8986W        W24455   7.555   6.855   4.973  0.0513 -0.1722 -0.1124
 8987W        W24456  16.459   6.929   4.532  0.0625  0.3633 -0.1642
 8988W        W24457   5.864   4.757   4.806 -0.0808 -0.1192  0.0126
 8989W        W24458  10.293   2.760   1.164  0.0223  0.1278  0.1048
 8990W        W24459   8.472   7.729   4.272  0.0324 -0.1699  0.0510
 8991W        W24460  17.790   4.344   3.178  0.0110 -0.0760 -0.1717
 8992W        W24461  10.806  14.010   3.121  0.1063  0.2393 -0.3167
 8993W        W24462  14.799  17.289  11.874  0.0458 -0.0558 -0.0787
 8994W        W24463  14.075   6.831  11.893  0.2537  0.2416  0.0906
 8995W        W24464   9.132   7.780  15.184  0.1332 -0.1952 -0.1739
 8996W        W24465  14.048   5.875  16.173 -0.2345 -0.0561 -0.2097
 8997W        W24466   4.494   8.730  10.933  0.3217  0.1513 -0.1511
 8998W        W24467  14.455   6.690   2.895  0.1710 -0.0308  0.0292
 8999W        W24468   3.318  10.935   4.222 -0.0119 -0.1447 -0.0280
 9000W        W24469  14.189  16.002  12.273 -0.0314 -0.4393 -0.0717
 9001W        W24470   1.926  15.749   1.688 -0.1441  0.0350 -0.2990
 9002W        W24471   6.259   9.043  14.518 -0.1118  0.1236 -0.0716
 9003W        W24472  17.270   0.469  13.217  0.0176 -0.0199 -0.0961
 9004W        W24473  10.868  14.734  16.299  0.0192 -0.1324 -0.1731
 9005W        W24474   3.181   0.059   2.291  0.0535  0.0994 -0.1107
 9006W        W24475  13.824  11.640  12.037 -0.2958  0.1003 -0.2170
 9007W        W24476  13.838   7.838  11.519 -0.0719  0.1988 -0.3443
 9008W        W24477   5.149   6.484  12.530 -0.1275  0.0783 -0.0713
 9009W        W24478   3.098   0.232  13.470  0.1882  0.0254 -0.0039
 9010W        W24479  16.542  14.718  12.171  0.1122  0.0281 -0.0551
 9011W        W24480   5.881   3.880  13.344  0.0016 -0.1859 -0.1611
 9012W        W24481  16.628  14.903   3.359  0.0709  0.0463  0.3141
 9013W        W24482   7.406  14.644   2.888  0.3009  0.1887  0.0182
 9014W        W24483  14.798   3.574  14.192 -0.0014  0.1127  0.0369
 9015W        W24484  12.917  16.373   4.429 -0.3308  0.0309  0.0135
 9016W        W24485  14.952   3.280   4.826 -0.2031  0.2763  0.2638
 9017W        W24486   4.014  18.007  15.403  0.3033 -0.2208  0.0969
 9018W        W24487   7.128   6.594  15.662  0.0820 -0.1438 -0.0027
 9019W        W24488   0.338   3.091   4.632 -0.1810  0.3792 -0.0206
 9020W        W24489   9.700   3.130  13.444  0.0844 -0.1658 -0.0434
 9021W        W24490  11.056  13.621  10.762 -0.1677  0.1497  0.1512
 9022W        W24491  13.038   0.851  13.370  0.0501  0.1992  0.0836
 9023W        W24492   8.429   8.168   1.968 -0.0409  0.0424  0.3053
 9024W        W24493   3.774  16.453  15.418  0.2618 -0.0733  0.3291
 9025W        W24494  17.685  15.870   3.961 -0.0304 -0.2190 -0.2472
 9026W        W24495   4.667   0.034   5.460  0.1530 -0.1798 -0.0920
 9027W        W24496   4.866   0.400  16.196  0.0622 -0.0803 -0.5832
 9028W        W24497  12.392  13.872  12.522  0.0576 -0.1143 -0.2069
 9029W        W24498  17.346  14.344  12.404 -0.2584  0.4841  0.0544
 9030W        W24499   0.843  15.506  13.870 -0.0305 -0.0247 -0.2626
 9031W        W24500  17.044  11.591  16.001  0.2067 -0.0269  0.1518
 9032W        W24501  10.362  15.473  13.676  0.1223  0.0498 -0.1154
 9033W        W24502   1.187   9.188  15.348  0.0362  0.3709  0.2622
 9034W        W24503   5.573   6.359   3.338 -0.0815 -0.2431 -0.1992
 9035W        W24504   9.612   4.827   0.955  0.3690 -0.5610  0.1738
 9036W        W24505   5.316   1.988  12.290 -0.1481 -0.1101 -0.1445
 9037W        W24506   9.186  14.744   5.500  0.0027  0.0078 -0.1385
 9038W        W24507   1.519   4.252  11.611  0.2239  0.2833 -0.1060
 9039W        W24508   7.303  13.083   4.503 -0.1711  0.0389 -0.0420
 9040W        W24509   9.352  15.520   3.977 -0.0868  0.0023 -0.1769
 9041W        W24510   1.273  13.800  14.083  0.0601 -0.3053 -0.2667
 9042W        W24511   4.249  16.461  12.693  0.1099 -0.0507 -0.0578
 9043W        W24512   6.917  14.819   3.043 -0.2394  0.0670 -0.0814
 9044W        W24513   7.113  16.457   0.270  0.0971  0.1886 -0.1387
 9045W        W24514  16.663   3.753   2.335  0.2227 -0.1721 -0.0724
 9046W        W24515   1.375  13.780   0.408  0.0523 -0.0671  0.0357
 9047W        W24516  17.426   4.667   2.887 -0.3789  0.1103  0.3786
 9048W        W24517   3.243  14.540   5.880 -0.1739  0.2537 -0.0355
 9049W        W24518  15.106  11.413   1.213  0.1524  0.0590  0.0669
 9050W        W24519   9.555  17.168   1.497  0.2783  0.5886  0.2682
 9051W        W24520  10.837   4.121  14.085  0.2087 -0.3857  0.0466
 9052W        W24521  11.106   2.482   1.478  0.0743  0.0272  0.3337
 9053W        W24522   3.633   5.191  15.255 -0.0976  0.0154  0.1869
 9054W        W24523   2.534   6.571   4.814  0.2270 -0.0797 -0.1714
 9055W        W24524   7.981   4.137   2.139  0.1564 -0.2108 -0.2338
 9056W        W24525  16.798  12.101   5.851  0.1354 -0.0764  0.1289
 9057W        W24526  12.082  16.218  14.689  0.0371  0.0771 -0.2443
 9058W        W24527  12.844  17.236  12.089  0.2360 -0.0994  0.0706
 9059W        W24528  14.910  13.192   1.024  0.2496  0.5607 -0.0551
 9060W        W24529  10.397  11.574   1.650  0.1942  0.2539  0.1202
 9061W        W24530  14.748  14.810  12.736  0.0287 -0.2447 -0.3083
 9062W        W24531   7.207  11.153   3.285  0.0194 -0.1651 -0.1855
 9063W        W24532   2.783   0.177   1.893 -0.2213 -0.2931  0.2415
 9064W        W24533  17.956  15.827   2.248  0.2332 -0.0331  0.2068
 9065W        W24534  15.879   5.633   3.139  0.3863 -0.1142  0.1914
 9066W        W24535   2.539   8.583  12.116 -0.1282 -0.0827 -0.0364
 9067W        W24536  17.965  10.722  11.473 -0.1659 -0.0825 -0.0188
 9068W        W24537   1.547  15.377   3.950  0.0804  0.2314  0.0549
 9069W        W24538  11.204   9.317  13.491 -0.2254 -0.0019 -0.3547
 9070W        W24539   3.462  15.568  16.184  0.3448  0.1494 -0.0140
 9071W        W24540  15.481  14.269   0.902 -0.1124  0.1809 -0.2660
 9072W        W24541   7.255   5.273   3.633  0.0645  0.0759  0.1243
 9073W        W24542  10.719   1.292   5.875  0.2233 -0.3633 -0.3001
 9074W        W24543   5.110  11.941  12.966 -0.1784 -0.0979  0.0513
 9075W        W24544   6.008   0.914  11.816  0.1363 -0.3135  0.1370
 9076W        W24545  13.486   0.210   3.092 -0.0497  0.0504  0.0497
 9077W        W24546   6.084   0.113  11.513 -0.2109 -0.0117  0.1387
 9078W        W24547  16.659   8.550  14.424  0.0712  0.2602  0.1691
 9079W        W24548   1.282  14.308   3.968 -0.0217 -0.2275 -0.0663
 9080W        W24549   9.137  16.912  16.104 -0.0421 -0.1933  0.1469
 9081W        W24550   8.385  10.487  15.764  0.0007  0.0382  0.3052
 9082W        W24551   7.424  15.770   5.640  0.0734 -0.2973  0.3046
 9083W        W24552   3.435   4.098  13.291 -0.0716  0.1806  0.0568
 9084W        W24553   8.122  17.203   0.982 -0.1773 -0.1291  0.0384
 9085W        W24554  16.271   9.403   0.904  0.1853 -0.0258 -0.0564
 9086W        W24555  16.334   6.348   5.794  0.1003  0.1607  0.0613
 9087W        W24556   0.347   3.127   5.119  0.2543  0.1880 -0.0631
 9088W        W24557  14.769   4.587   2.015 -0.0690 -0.1992  0.0195
 9089W        W24558   7.526  16.552   5.044  0.1523 -0.2009 -0.1035
 9090W        W24559   5.435  16.669  16.298 -0.1514  0.1421  0.0795
 9091W        W24560  15.056   3.711   5.188  0.1733  0.1716  0.1509
 9092W        W24561  13.225  16.326   2.441 -0.0311 -0.1173  0.1766
 9093W        W24562  13.513   6.756   4.600  0.0060 -0.1452  0.2172
 9094W        W24563   0.232  17.097  11.948  0.1580  0.0152 -0.1091
 9095W        W24564   4.070   3.485   5.468 -0.1336  0.1532  0.1949
 9096W        W24565   6.304  17.300   0.665  0.1654 -0.2099 -0.0255
 9097W        W24566   7.728  15.331   2.489 -0.0124  0.0830 -0.1766
 9098W        W24567  11.949   4.856  14.246 -0.2553 -0.3064 -0.1930
 9099W        W24568  11.103  11.476   3.650  0.0128 -0.3391  0.1126
 9100W        W24569   9.767  15.520  11.778  0.0139 -0.1334 -0.1183
 9101W        W24570  14.177  16.737  13.247 -0.2268 -0.0499  0.0468
 9102W        W24571  15.595  10.848   4.955  0.1327  0.2853 -0.0914
 9103W        W24572  11.666  10.702   1.959 -0.2091  0.1425  0.2831
 9104W        W24573   7.628   4.184   0.707  0.1429 -0.0946  0.0686
 9105W        W24574   1.526   1.069  14.216  0.2604  0.1521 -0.5687
 9106W        W24575  10.669   8.266  12.177  0.0038  0.0530 -0.0016
 9107W        W24576  10.029   5.067  12.331 -0.1663 -0.0425 -0.2529
 9108W        W24577  16.951   9.324  11.928 -0.0658  0.0483 -0.0405
 9109W        W24578   2.508   2.106  13.689  0.0164 -0.2249  0.2630
 9110W        W24579   2.592  11.227  11.857  0.0530  0.4369  0.0644
 9111W        W24580  15.115   2.815  15.300 -0.3105 -0.0315  0.1806
 9112W        W24581   2.628  13.169  12.466  0.3388  0.1149  0.0580
 9113W        W24582  16.809   6.114   4.872  0.3395 -0.0207  0.1531
 9114W        W24583  10.796   3.898   0.833  0.1290 -0.0198 -0.3844
 9115W        W24584  12.413  12.289   4.408  0.0370  0.1889  0.4058
 9116W        W24585  13.803  11.368   5.216 -0.0928 -0.0702 -0.2293
 9117W        W24586  15.382   0.166   4.034  0.0816  0.1935  0.0767
 9118W        W24587  10.840   7.084  11.576 -0.1100  0.0740  0.4046
 9119W        W24588  12.721  10.698  11.485 -0.1293 -0.0072 -0.1583
 9120W        W24589   0.169   7.049   2.907  0.1207  0.0161 -0.2320
 9121W        W24590  17.961  11.401   0.050 -0.0932  0.2808 -0.1456
 9122W        W24591   3.868  12.960  14.379  0.2094  0.2319 -0.1632
 9123W        W24592   6.366  17.276   1.172  0.1262 -0.4013  0.0297
 9124W        W24593  15.739   7.050   1.361 -0.1278 -0.1509  0.0358
 9125W        W24594   1.311   2.536   0.524 -0.0281  0.0784  0.3543
 9126W        W24595   0.676   5.146  13.183 -0.0297  0.2787  0.3162
 9127W        W24596  17.396   4.432  15.839 -0.0265 -0.0434  0.1944
 9128W        W24597  12.939   2.313  11.925 -0.3682  0.1861  0.1214
 9129W        W24598   5.775   0.783   0.604  0.0086  0.3266  0.1287
 9130W        W24599  14.392  11.763   5.084  0.3319 -0.2911  0.0509
 9131W        W24600  17.095  15.983   1.626  0.2584  0.1094  0.3144
 9132W        W24601   5.141   8.004  14.304 -0.1773 -0.0240 -0.0417
 9133W        W24602  10.550  17.967   3.395  0.0153  0.3693 -0.0349
 9134W        W24603   7.115  12.105  12.844  0.3635 -0.0271  0.0274
 9135W        W24604   6.608  17.692   0.745 -0.1012 -0.0983  0.1174
 9136W        W24605   4.020   3.126   3.993 -0.2073  0.4721  0.0613
 9137W        W24606  14.975   4.195   2.714 -0.1795 -0.0383 -0.0956
 9138W        W24607  14.531   2.388   0.169 -0.0101 -0.1008  0.1637
 9139W        W24608  11.226  10.528  14.280  0.1403  0.1711 -0.0728
 9140W        W24609   5.277   8.134   3.085  0.2025  0.1595  0.0292
 9141W        W24610   6.327  12.553  11.971 -0.0820  0.0501  0.3335
 9142W        W24611  11.977  10.991  14.319 -0.0405  0.3806 -0.1128
 9143W        W24612  13.800  17.145   4.025  0.1500 -0.0108  0.0321
 9144W        W24613  18.073  15.309   1.340  0.2454 -0.1284  0.0060
 9145W        W24614   9.310   6.036  11.355 -0.0300  0.0229 -0.2000
 9146W        W24615   2.661   2.202   1.437 -0.0006  0.0161  0.2729
 9147W        W24616   3.396   5.853   2.423 -0.0348 -0.2300 -0.1319
 9148W        W24617  13.609   7.287  13.761  0.2136 -0.0314  0.2094
 9149W        W24618  11.464   8.310   2.620  0.1204 -0.0570  0.3124
 9150W        W24619   2.372  11.367   3.343  0.0072  0.1238  0.0801
 9151W        W24620   1.117   0.828  12.523 -0.3198 -0.0887 -0.2680
 9152W        W24621  14.794   8.655   1.151 -0.1319 -0.1267  0.2285
 9153W        W24622   0.165  15.478   5.477  0.2341 -0.0528  0.3173
 9154W        W24623   1.689   1.870   2.995  0.0874  0.0985  0.2268
 9155W        W24624   2.267   5.264  14.388 -0.0450  0.1445 -0.1857
 9156W        W24625   9.361   0.146  15.164  0.1483  0.0427 -0.0233
 9157W        W24626  12.345  16.511  12.108 -0.1945 -0.1481  0.1168
 9158W        W24627  15.659  11.894   2.878 -0.0203 -0.1882 -0.1775
 9159W        W24628   9.773  10.297   4.990  0.0256 -0.1762  0.4250
 9160W        W24629   8.228  12.469  15.799 -0.0925  0.1438 -0.3012
 9161W        W24630   6.191   9.597   4.629 -0.2017  0.0656  0.1966
 9162W        W24631   9.791   2.403  12.984 -0.0261 -0.0557  0.0493
 9163W        W24632  11.543   1.019   1.069  0.0637 -0.0252  0.2927
 9164W        W24633   5.685   7.442   3.961  0.0679  0.0951 -0.0876
 9165W        W24634   0.476  17.287  15.751  0.0853  0.2279 -0.0184
 9166W        W24635   8.189  10.038  12.840 -0.0083  0.2539 -0.1989
 9167W        W24636   6.562  17.053  12.815  0.0956 -0.0705  0.0248
 9168W        W24637  11.850  15.653   4.478 -0.2419 -0.0982  0.1128
 9169W        W24638  12.204   9.964   4.955 -0.1435  0.2270 -0.2343
 9170W        W24639   2.022   5.624  11.849  0.1980  0.2915 -0.1137
 9171W        W24640   4.794  13.900   0.356  0.1465 -0.2184  0.0757
 9172W        W24641   0.520  10.821   5.194 -0.1155  0.1081 -0.0821
 9173W        W24642  16.753  11.372   2.259 -0.0165 -0.0150  0.0288
 9174W        W24643   8.201  10.712  10.111  0.1745  0.0886  0.1100
 9175W        W24644   0.447  11.456  11.788  0.3338  0.0736  0.2157
 9176W        W24645  14.661   8.499   3.665 -0.0885 -0.0161  0.0666
 9177W        W24646  16.868   4.634   0.895  0.2398 -0.1960 -0.0419
 9178W        W24647  13.220   1.688   4.376 -0.0905 -0.0772 -0.2004
 9179W        W24648  13.081  15.621  15.203 -0.1222 -0.1833  0.1729
 9180W        W24649  11.393   8.192   3.117  0.0954  0.2025 -0.2606
 9181W        W24650   6.252   0.636  12.946  0.1865  0.0895  0.0461
 9182W        W24651   6.907  11.319  11.508  0.1696  0.0949 -0.0916
 9183W        W24652   4.936   9.907   1.883 -0.1512 -0.1227  0.0287
 9184W        W24653  13.482   4.730   5.541 -0.1136 -0.0745 -0.0196
 9185W        W24654   1.453   4.608  15.445 -0.1692 -0.3200 -0.1590
 9186W        W24655   2.184  17.826  13.869 -0.0155 -0.0744 -0.3514
 9187W        W24656  14.330  17.064   1.671 -0.1408 -0.1455  0.0173
 9188W        W24657   8.611  10.191   3.767 -0.0406 -0.1542 -0.0730
 9189W        W24658  11.221   0.288   3.528  0.0009 -0.0735  0.0591
 9190W        W24659  16.560  11.869   6.184 -0.0735  0.4643  0.4237
 9191W        W24660   3.975   8.920   4.689  0.3502 -0.0898 -0.2074
 9192W        W24661  12.452   5.006   3.910  0.3305 -0.2430 -0.2520
 9193W        W24662  13.988  12.033  12.586 -0.0665 -0.0806 -0.0214
 9194W        W24663  10.926   5.596  15.801 -0.3346 -0.0713 -0.2784
 9195W        W24664  11.574   6.067   0.019  0.0409  0.0717 -0.2877
 9196W        W24665  10.661   7.350   4.519  0.2795  0.1276  0.1402
 9197W        W24666  14.381   6.403  14.100  0.2425 -0.2595 -0.0383
 9198W        W24667   0.218  11.874  16.081  0.0091  0.0372 -0.1051
 9199W        W24668  12.160  14.494  13.245 -0.0324 -0.3294  0.0033
 9200W        W24669   7.058  14.035  11.129 -0.3549  0.1276 -0.1365
 9201W        W24670   0.375   2.283   4.268 -0.0209 -0.4330 -0.0137
 9202W        W24671   0.933  12.372   2.032  0.1536 -0.1587 -0.0600
 9203W        W24672   2.865   6.964   1.445 -0.0862  0.1381  0.0879
 9204W        W24673   1.966   0.768  14.176  0.2490 -0.1503  0.0171
 9205W        W24674   3.926   1.158   1.052 -0.0016  0.0106  0.0861
 9206W        W24675   0.926  13.388   3.375  0.1171  0.0194 -0.0402
 9207W        W24676   5.103  12.889  14.038  0.3432 -0.1253  0.0089
 9208W        W24677  12.258   1.810   5.412 -0.1454 -0.0907  0.0062
 9209W        W24678  10.888  16.832  12.515  0.3159 -0.3554  0.1024
 9210W        W24679   0.413   5.049   4.104  0.3071 -0.0986 -0.3112
 9211W        W24680  10.331  14.697   0.015 -0.3177 -0.0769  0.1687
 9212W        W24681  16.129  10.226   3.860  0.0051 -0.2617 -0.1149
 9213W        W24682   9.464  13.435   2.824  0.2349  0.3066  0.2806
 9214W        W24683  15.255   5.086  16.044  0.2608 -0.3184 -0.2020
 9215W        W24684   9.344   5.135  14.497  0.1901  0.2064  0.0474
 9216W        W24685   1.766   6.865  12.573 -0.1881 -0.2134 -0.0865
 9217W        W24686   3.832  11.000   5.828  0.1296  0.0076  0.0398
 9218W        W24687   4.919  12.350   1.965  0.0034 -0.0851  0.1297
 9219W        W24688   2.226  10.985   0.613 -0.2613 -0.4053  0.2596
 9220W        W24689   6.585   4.734   5.520  0.3000  0.0588 -0.0647
 9221W        W24690  10.215  16.008  13.711  0.3054  0.1510  0.0297
 9222W        W24691   3.977   5.012   5.023 -0.2292  0.1551  0.0950
 9223W        W24692   4.332  14.689  14.171  0.1911  0.1130  0.2610
 9224W        W24693   7.876   7.838   0.884 -0.1507 -0.0149  0.1856
 9225W        W24694   7.608   2.930   2.659  0.0849  0.0107  0.0313
 9226W        W24695  12.016   4.774  11.781  0.1824 -0.1099  0.0262
 9227W        W24696  12.676   3.222   1.444 -0.1448  0.0398 -0.0630
 9228W        W24697   9.021  10.356  14.967  0.1413  0.0940  0.0035
 9229W        W24698  16.262   8.133   2.228  0.1398 -0.0456  0.1973
 9230W        W24699   2.565  12.456  14.093 -0.0591  0.0406 -0.0324
 9231W        W24700   8.916   1.610   1.982 -0.2808 -0.0947 -0.1972
 9232W        W24701  15.092  14.143   2.606 -0.3560 -0.2848  0.2379
 9233W        W24702   9.914   4.915   1.464  0.0253  0.0492 -0.2328
 9234W        W24703  12.661   8.245   2.925  0.0196 -0.2128  0.0539
 9235W        W24704   7.180  17.294  14.258  0.3149  0.2520  0.3209
 9236W        W24705  16.097   4.045  11.369 -0.0553  0.0121  0.2123
 9237W        W24706   4.990  11.554   1.358  0.0155 -0.1084 -0.0034
 9238W        W24707  15.298   5.287   1.005 -0.1332 -0.0117  0.0106
 9239W        W24708   1.471   7.607  14.856  0.3453  0.1814 -0.1873
 9240W        W24709  17.719  13.232   3.486 -0.2654 -0.1108  0.0765
 9241W        W24710  16.456   9.876  16.188 -0.0326  0.0351 -0.0576
 9242W        W24711   0.080  14.718   4.887  0.1719 -0.1160  0.2376
 9243W        W24712   7.680   8.877   0.427 -0.1224 -0.1716 -0.3970
 9244W        W24713  17.981   6.483  11.299  0.0070  0.0441 -0.2119
 9245W        W24714   0.159   9.856  13.627 -0.2435 -0.0281 -0.0246
 9246W        W24715  11.259   8.692   1.435 -0.0770 -0.2202 -0.0975
 9247W        W24716   8.222   1.818  13.665  0.1364 -0.1544  0.0209
 9248W        W24717  11.473  14.582   2.361 -0.1110 -0.1649  0.0889
 9249W        W24718  17.338   9.360  14.451  0.1399  0.1418  0.1747
 9250W        W24719  11.830  14.176   1.966  0.1867 -0.1277  0.0063
 9251W        W24720  14.543   3.921  15.100  0.0022 -0.0637 -0.1748
 9252W        W24721   7.452   1.086   0.947 -0.2134  0.0230 -0.2475
 9253W        W24722  11.437   9.725   4.915 -0.1552 -0.0397  0.2099
 9254W        W24723  10.648   8.117   4.576 -0.0848 -0.1742  0.1156
 9255W        W24724  11.073   3.910   5.777 -0.2025 -0.2730  0.3843
 9256W        W24725   1.773  14.509   3.632 -0.1053  0.2772 -0.0398
 9257W        W24726   9.241   8.254  14.326  0.0514  0.0761  0.0018
 9258W        W24727   0.083   9.574   5.242 -0.0022 -0.1947  0.1529
 9259W        W24728   5.436   7.896  11.861 -0.0418  0.0101  0.4000
 9260W        W24729   8.702  14.721   4.048  0.2960  0.0965  0.1081
 9261W        W24730   5.289  17.692  12.297 -0.0760 -0.1336  0.0974
 9262W        W24731  15.497   0.475  14.474  0.1708  0.0247 -0.1307
 9263W        W24732  13.539  12.163   1.939  0.1492  0.4151 -0.0127
 9264W        W24733  14.582  16.754  13.570  0.2802  0.0651  0.0142
 9265W        W24734   0.325  14.562  12.314  0.0475  0.0309 -0.4245
 9266W        W24735  11.572   9.620   1.022 -0.1250 -0.0026  0.0210
 9267W        W24736   5.160   6.700   0.461 -0.4294 -0.0337  0.0452
 9268W        W24737   1.322  13.619  12.042 -0.3570 -0.2568  0.0023
 9269W        W24738   3.070  17.234   1.913 -0.0021  0.1816 -0.0814
 9270W        W24739  10.673  10.947   5.454 -0.3229 -0.1200  0.0774
 9271W        W24740   9.298   2.520  13.071  0.0280 -0.2382 -0.1467
 9272W        W24741   3.314   8.464   3.864  0.2266 -0.0434  0.2029
 9273W        W24742  14.800  14.766   0.838 -0.0353 -0.1970  0.2660
 9274W        W24743   1.797   3.501  13.669  0.0819  0.0640 -0.0890
 9275W        W24744  14.019   0.825   4.391 -0.0141  0.2434 -0.2790
 9276W        W24745  11.537   6.057   4.326 -0.1665  0.0549 -0.0846
 9277W        W24746   0.096  11.121   1.386 -0.2105  0.1600 -0.0272
 9278W        W24747   9.627  11.837   1.373 -0.0847  0.1855 -0.0386
 9279W        W24748   0.232   5.762  15.761  0.1091 -0.1889  0.0076
 9280W        W24749  17.187   1.770   3.602 -0.1151 -0.0499 -0.1513
 9281W        W24750   2.564   3.087  11.584  0.1642  0.0095 -0.2575
 9282W        W24751  16.813   2.301   2.957  0.0095  0.0287 -0.2998
 9283W        W24752  14.173  14.024  13.431  0.0926  0.0265  0.0586
 9284W        W24753  16.580   6.096   4.376  0.1028 -0.0129 -0.1684
 9285W        W24754  13.380   7.551  11.536  0.0767  0.1246  0.3092
 9286W        W24755  14.723   8.557  12.968  0.0873  0.0757 -0.1050
 9287W        W24756  11.035  11.398  14.596  0.1131 -0.1626 -0.0609
 9288W        W24757  14.170   1.443   0.534  0.3245 -0.0947 -0.2787
 9289W        W24758  10.706  12.390   5.869 -0.1208 -0.0130 -0.0722
 9290W        W24759  14.768  16.762   5.266  0.4021  0.0639  0.1880
 9291W        W24760  17.934   1.825   3.403 -0.0487 -0.4420 -0.0521
 9292W        W24761   8.728  12.615  11.765 -0.0479 -0.1431 -0.0104
 9293W        W24762   8.644  13.713  11.865  0.0496  0.1465  0.1907
 9294W        W24763   2.323   9.316   1.819  0.1813 -0.2283  0.0707
 9295W        W24764   6.980   4.587  13.945  0.1964  0.4676 -0.0058
 9296W        W24765   1.021   4.042  11.694  0.1091  0.3615 -0.2710
 9297W        W24766   1.150   0.095   4.159 -0.1007  0.0255  0.1254
 9298W        W24767  10.885   3.281   1.470  0.2736  0.0822  0.2720
 9299W        W24768  11.632  18.092   0.696 -0.0099 -0.1644 -0.2612
 9300W        W24769   9.242  16.107   0.042  0.4169  0.3983  0.1901
 9301W        W24770   9.072   7.508  12.638 -0.0767  0.0866 -0.1806
 9302W        W24771  14.482   4.203  11.581 -0.1087  0.1662 -0.0483
 9303W        W24772   1.114  16.603   0.509  0.2192 -0.1572 -0.2926
 9304W        W24773   4.903   3.380  13.507 -0.4099 -0.0349 -0.0069
 9305W        W24774  16.826   0.496   0.226 -0.1225  0.0609 -0.0954
 9306W        W24775   7.046   5.452   1.672 -0.3161  0.3512 -0.0430
 9307W        W24776   3.665  11.166   3.462 -0.0027  0.0402 -0.2498
 9308W        W24777  15.749  15.634   0.159 -0.1547  0.2914  0.3571
 9309W        W24778   1.308  10.286  15.405 -0.3668 -0.0557  0.1389
 9310W        W24779  13.423  11.021   1.213 -0.2143 -0.0514 -0.1458
 9311W        W24780  11.095   1.539   2.857 -0.1987 -0.2406 -0.2023
 9312W        W24781   1.727  16.500   2.444  0.0198  0.2938  0.1469
 9313W        W24782   4.869   5.399   0.408 -0.3026 -0.0241  0.1125
 9314W        W24783  12.328   3.726  10.459 -0.0837  0.1261  0.3620
 9315W        W24784  12.813   4.763   1.741 -0.0314  0.0379 -0.2488
 9316W        W24785  17.230  12.572   1.855 -0.1196  0.3200  0.0510
 9317W        W24786   2.862  14.015  13.043 -0.2340  0.0750  0.0247
 9318W        W24787   2.939   4.248  12.469 -0.1534 -0.1035  0.1574
 9319W        W24788   0.603  17.600  14.707  0.0033 -0.3647 -0.3298
 9320W        W24789   8.648   3.699   0.954  0.3144  0.2025 -0.2001
 9321W        W24790  13.876  15.219   0.609  0.1060 -0.1456 -0.0290
 9322W        W24791  11.333   7.083  12.266  0.0091 -0.0171 -0.1745
 9323W        W24792   3.144  17.791  15.771  0.2139 -0.0449 -0.0720
 9324W        W24793   9.300   3.749  12.539  0.0340  0.0167 -0.0721
 9325W        W24794   1.389  14.798  15.714 -0.1368  0.1977  0.1276
 9326W        W24795  14.287  10.149  15.936 -0.0248 -0.1025 -0.1004
 9327W        W24796   4.900   0.026  14.835 -0.1661 -0.1573  0.0563
 9328W        W24797  13.139   0.650  16.289  0.0671 -0.2102 -0.2330
 9329W        W24798   0.742   8.560   1.432 -0.1676  0.0194  0.0181
 9330W        W24799  16.677   3.237   4.514  0.2246 -0.1664  0.1161
 9331W        W24800  15.313  12.924  15.731  0.1432  0.0514 -0.3215
 9332W        W24801  12.116  12.680   1.854 -0.0396 -0.1975 -0.1013
 9333W        W24802   5.338  17.790   3.870  0.1877  0.1574 -0.1260
 9334W        W24803  10.692   9.601  13.657 -0.1323  0.4013  0.0423
 9335W        W24804   7.247   5.760  13.891 -0.0568  0.3171  0.0205
 9336W        W24805   9.554   4.332   0.880  0.2722 -0.0347 -0.0174
 9337W        W24806   3.506   3.402   2.544  0.1577  0.0711  0.0568
 9338W        W24807   0.833  11.637   4.306 -0.2800  0.2114  0.2573
 9339W        W24808   2.302   2.915   3.701 -0.1030 -0.2538  0.1729
 9340W        W24809   9.446  16.978   2.606 -0.0403 -0.1860  0.0081
 9341W        W24810   1.414  14.936   1.267  0.0218  0.0166  0.1923
 9342W        W24811   9.639  17.920  13.414 -0.0148 -0.0991 -0.1614
 9343W        W24812  15.065  15.375  11.052  0.3022  0.0520 -0.1384
 9344W        W24813  11.169  11.745   4.021  0.2198 -0.1714  0.1084
 9345W        W24814   3.622  17.145   4.949  0.3287 -0.3780  0.2140
 9346W        W24815   7.255  10.140   2.271 -0.5020  0.0427 -0.2844
 9347W        W24816   9.640  14.998   0.748 -0.2399  0.1174  0.3065
 9348W        W24817   3.160  13.774   5.154  0.3408 -0.1061 -0.0189
 9349W        W24818   1.961   1.253   0.725  0.0515 -0.0108 -0.3555
 9350W        W24819   9.868   2.387  11.545  0.2663  0.2723 -0.1334
 9351W        W24820  12.527  12.117  15.569 -0.3807  0.3233  0.0736
 9352W        W24821   4.763  13.874  10.603 -0.1261  0.0869  0.1269
 9353W        W24822   1.554  11.463  14.816 -0.0631  0.3807  0.1684
 9354W        W24823   9.585   8.973   0.971 -0.0447  0.3061 -0.1224
 9355W        W24824  11.880   3.095  11.627 -0.2103  0.0396  0.1759
 9356W        W24825  15.370  17.978   0.389 -0.0686  0.0120  0.2200
 9357W        W24826   3.704   8.413  14.871  0.3667  0.1841  0.1560
 9358W        W24827   0.706   3.296   4.363 -0.1845 -0.0021  0.1453
 9359W        W24828  15.709  10.105  15.610 -0.0348  0.1647  0.1561
 9360W        W24829  11.195  16.502  14.447  0.2087  0.2010 -0.2034
 9361W        W24830   3.205   1.956  12.948  0.4318 -0.0554 -0.1823
 9362W        W24831   9.637   5.787  12.805  0.0809 -0.1538 -0.0017
 9363W        W24832   1.626   6.289   1.563  0.0984  0.0686  0.1074
 9364W        W24833  13.768   4.752  11.682  0.2097 -0.0999  0.2054
 9365W        W24834  12.538  13.017   1.811  0.1996  0.3250  0.1064
 9366W        W24835   8.995  17.668   2.159  0.0242 -0.1564 -0.1474
 9367W        W24836   8.697  12.745  14.399  0.0952  0.1702 -0.0911
 9368W        W24837   3.098  16.529  13.611  0.0292  0.0755  0.0753
 9369W        W24838   0.073   7.615   3.038 -0.1861  0.0539 -0.1815
 9370W        W24839  15.716   7.108   3.358  0.0172  0.1414 -0.1585
 9371W        W24840   4.260   9.700   4.263 -0.1910  0.2088  0.0407
 9372W        W24841  17.437  17.721   2.584 -0.1427  0.0169  0.2948
 9373W        W24842   8.541  16.922  11.288 -0.1745 -0.1973 -0.0077
 9374W        W24843   6.728   7.487   2.472 -0.3620  0.1338  0.2379
 9375W        W24844   4.435   2.594   5.924 -0.1980  0.0133  0.0312
 9376W        W24845  10.144  12.028   3.879 -0.4634 -0.1600 -0.0897
 9377W        W24846   5.829   7.253   2.432 -0.1215  0.1213 -0.0741
 9378W        W24847   8.390   4.080   0.099 -0.1284 -0.0549 -0.3240
 9379W        W24848   8.433   6.724  15.386 -0.2142 -0.2364  0.2462
 9380W        W24849  17.210  15.130  13.862  0.0496  0.2981  0.2703
 9381W        W24850  10.601  11.549   2.231 -0.0994 -0.0538  0.1003
 9382W        W24851   4.019  15.593  15.541 -0.2831 -0.0751 -0.0513
 9383W        W24852   3.378  11.296  15.978 -0.0520  0.1400  0.1615
 9384W        W24853  15.621   0.013  15.330  0.0666 -0.2776  0.0640
 9385W        W24854  15.950   8.071   4.919 -0.1686  0.1004  0.1175
 9386W        W24855   7.470   5.219  15.296 -0.0063 -0.1595  0.2691
 9387W        W24856  17.102  14.502   5.139  0.2059  0.0178 -0.3747
 9388W        W24857   9.522   3.594  16.076 -0.0120 -0.3134 -0.0140
 9389W        W24858  11.735   7.506  16.154 -0.0064 -0.0578  0.1804
 9390W        W24859   1.019  10.673   4.928  0.0367 -0.1589 -0.0953
 9391W        W24860  11.908   7.534   4.418 -0.0901 -0.1009 -0.1352
 9392W        W24861   4.956  12.952   5.261  0.0913  0.1417 -0.0456
 9393W        W24862   5.985  14.502   2.401  0.1562 -0.1321  0.0443
 9394W        W24863   2.190  17.116   1.724  0.2389  0.0129  0.0209
 9395W        W24864  12.082  10.281  12.099 -0.0240  0.2761 -0.1290
 9396W        W24865   6.903   6.487   4.480  0.0037  0.1925 -0.0526
 9397W        W24866   8.111   5.848  13.490 -0.0755 -0.0322 -0.2446
 9398W        W24867   8.686   8.051   0.420 -0.0145 -0.1832 -0.0516
 9399W        W24868   5.452  14.118  16.098 -0.2961  0.1442 -0.1007
 9400W        W24869  13.881   1.433  12.623  0.1118  0.2582  0.1041
 9401W        W24870   2.556  11.446  11.350  0.0094 -0.1301 -0.0252
 9402W        W24871  11.882   3.200   1.280  0.0829  0.0716 -0.1599
 9403W        W24872  10.079  14.079   3.378  0.1525  0.1668  0.1872
 9404W        W24873  11.384   8.077   0.097 -0.2502 -0.1835  0.0143
 9405W        W24874   6.080   7.719   3.646  0.1890  0.0588  0.1354
 9406W        W24875  10.553  13.375   3.007  0.1766 -0.0205  0.1114
 9407W        W24876  17.261   1.014  13.396 -0.0256  0.0261 -0.2517
 9408W        W24877  13.766  12.813  14.423  0.0643 -0.1517 -0.0201
 9409W        W24878   6.460   0.721  13.421  0.0245 -0.3072  0.1227
 9410W        W24879   8.207   4.242  15.310  0.0056  0.0640 -0.0190
 9411W        W24880   8.352  12.080  13.334  0.1258  0.0847  0.0810
 9412W        W24881   7.278   6.919   1.115  0.0278  0.2297 -0.0177
 9413W        W24882  10.134   9.028   0.874  0.3158  0.1055 -0.0490
 9414W        W24883   7.887  13.971   3.742 -0.0698 -0.0624 -0.1089
 9415W        W24884   8.537  14.847   2.500 -0.0246 -0.1151  0.2424
 9416W        W24885   6.999   6.460   6.297  0.0696  0.0834 -0.1760
 9417W        W24886   2.147   1.215   3.772  0.1335  0.1565  0.0576
 9418W        W24887  16.615   6.635   5.201 -0.1944  0.1072 -0.1149
 9419W        W24888   0.347   1.546  13.842  0.0113 -0.4412 -0.0806
 9420W        W24889   8.589  15.129  10.662  0.0854  0.2099  0.0049
 9421W        W24890  17.337   5.507  14.177 -0.0502 -0.1423 -0.1917
 9422W        W24891   5.132   3.256  14.000  0.1948 -0.2971  0.0878
 9423W        W24892   5.497   9.041   3.593  0.1511  0.1588  0.3485
 9424W        W24893   3.175   8.219  10.760 -0.1736  0.1446 -0.1637
 9425W        W24894   4.618  12.724   1.792  0.1170 -0.1353  0.1167
 9426W        W24895   1.263   0.712   3.418  0.0797  0.1385  0.1556
 9427W        W24896   9.802   2.481   6.148  0.2671  0.0394  0.2897
 9428W        W24897   0.735  17.159  14.341 -0.0679 -0.0287 -0.2617
 9429W        W24898  10.896  16.772  13.006 -0.0194  0.1456  0.1119
 9430W        W24899  15.736  11.869  14.729 -0.0371  0.1892  0.0217
 9431W        W24900   9.540   6.892  13.642  0.1849 -0.0462  0.1436
 9432W        W24901   0.526  10.400  15.088  0.1722  0.0606  0.3557
 9433W        W24902   5.132   8.321  12.035  0.1334 -0.3049 -0.0071
 9434W        W24903   8.479   1.659   4.521 -0.2584  0.0344 -0.1547
 9435W        W24904   7.192   0.471  15.783  0.0336  0.0420  0.1436
 9436W        W24905  10.796   0.741  13.551  0.0825 -0.1640 -0.0885
 9437W        W24906  13.040  11.085  12.914 -0.2898  0.0186 -0.0190
 9438W        W24907   5.226   5.021  13.693 -0.0500  0.0218 -0.1291
 9439W        W24908  12.065   0.354  14.632  0.3261  0.0294 -0.0693
 9440W        W24909   3.346  11.134  14.464  0.1132  0.0750 -0.1728
 9441W        W24910   7.773   6.092   5.755 -0.0847  0.0664 -0.1866
 9442W        W24911  12.956  11.470  14.235  0.3401  0.1038 -0.0580
 9443W        W24912   1.507  16.611  11.834  0.4706 -0.1643 -0.0673
 9444W        W24913   4.755  11.474   1.812 -0.4209  0.3486  0.2958
 9445W        W24914   3.100  13.363  10.900 -0.0309 -0.3739 -0.0731
 9446W        W24915   0.964   2.906  11.226 -0.0797 -0.1308  0.0141
 9447W        W24916  10.397   3.078   2.581  0.0472  0.0335  0.0093
 9448W        W24917  11.438  13.238  14.581 -0.3239  0.1063 -0.1001
 9449W        W24918   8.869  14.232  13.998 -0.1860  0.0776  0.0981
 9450W        W24919   0.172  14.252   5.040 -0.2113  0.2866  0.0322
 9451W        W24920   5.950   9.074  13.326  0.2476 -0.2061 -0.3658
 9452W        W24921  12.448  16.355   4.773  0.0660 -0.0512  0.1485
 9453W        W24922   1.996   1.756   2.566  0.1767  0.1034 -0.0665
 9454W        W24923  12.567  13.624   2.003  0.1227  0.0047  0.1966
 9455W        W24924   3.571  16.375   1.842  0.0455 -0.1369  0.0735
 9456W        W24925  11.997   1.309   1.402 -0.1360  0.0936 -0.1648
 9457W        W24926  16.480   3.465  13.944  0.1976 -0.0288 -0.1707
 9458W        W24927   5.950   0.330  16.023  0.0391 -0.2872 -0.0005
 9459W        W24928  12.323   7.839   4.298 -0.0933 -0.1130  0.0988
 9460W        W24929  10.887   9.932   3.337  0.1846 -0.0476 -0.0010
 9461W        W24930   7.439   8.189   4.730  0.0531  0.1151 -0.0891
 9462W        W24931   4.104   6.006   5.144  0.0558 -0.2213 -0.0734
 9463W        W24932  12.139  12.167   1.919 -0.0898  0.1629  0.1379
 9464W        W24933  15.392  10.166  11.436 -0.1270  0.0627 -0.1700
 9465W        W24934  17.263  10.341  11.506 -0.0921  0.2666 -0.3348
 9466W        W24935  11.546  11.524   5.200  0.1624  0.0975  0.0012
 9467W        W24936  15.774   6.151  10.718 -0.0888  0.0095  0.0028
 9468W        W24937   5.692  14.049  10.707 -0.1046 -0.1653  0.0038
 9469W        W24938  12.676  13.215   2.291 -0.0208  0.0824  0.0607
 9470W        W24939   1.560   6.433  15.078  0.2864  0.2041  0.0730
 9471W        W24940  12.049  17.857   0.162 -0.4888 -0.2156 -0.2230
 9472W        W24941   3.715   1.239   4.480 -0.1241  0.1061  0.1365
 9473W        W24942  14.453   0.859  11.449  0.0404 -0.1346  0.2746
 9474W        W24943   5.121  11.810   2.808  0.0420  0.1963  0.4102
 9475W        W24944   7.178   8.157  14.014  0.1061  0.0523 -0.0716
 9476W        W24945  13.705  11.488  14.486 -0.0421  0.0760  0.4514
 9477W        W24946   8.315  14.661   4.375 -0.0666  0.4146  0.1942
 9478W        W24947   0.573  12.968   4.048 -0.0053 -0.2206 -0.0508
 9479W        W24948  17.766  17.092  13.323 -0.0526 -0.0136 -0.1645
 9480W        W24949   1.923   1.250   5.405  0.0960 -0.2348 -0.1298
 9481W        W24950  15.767   4.406   1.791  0.1329 -0.1015 -0.3470
 9482W        W24951   0.655   1.148   1.082 -0.3717 -0.1265 -0.2972
 9483W        W24952  12.608   4.578  15.355 -0.0495  0.1200  0.2160
 9484W        W24953  14.249  16.866  12.689  0.0212  0.0113  0.1009
 9485W        W24954   6.513  14.363  14.664 -0.4335  0.0339  0.1700
 9486W        W24955   8.608   5.678   5.037 -0.0706  0.0700  0.1236
 9487W        W24956   0.995   0.119  13.290  0.1936  0.2343 -0.2275
 9488W        W24957   1.896  12.375   4.544 -0.3109 -0.0197  0.2489
 9489W        W24958  15.840   6.485  13.347  0.0762  0.1382  0.1388
 9490W        W24959   3.600   4.176  15.877  0.1878  0.2868  0.0795
 9491W        W24960   0.780   5.417   4.163 -0.0609 -0.4836 -0.2345
 9492W        W24961  12.875   6.765  15.198 -0.1907 -0.1776  0.2929
 9493W        W24962  16.702  14.998   1.787  0.0157  0.0695  0.0460
 9494W        W24963  17.969   7.089   4.258  0.2512  0.0230 -0.2739
 9495W        W24964  16.963   9.642   4.407 -0.2830  0.0376 -0.0045
 9496W        W24965  10.299   0.966  13.465 -0.0979  0.1039  0.1054
 9497W        W24966   4.754  17.476   2.741  0.0782  0.1340 -0.2287
 9498W        W24967  15.804  17.744   3.316  0.2040  0.1506 -0.1278
 9499W        W24968   6.875   2.019  16.288 -0.0400  0.1302 -0.0965
 9500W        W24969   4.019   1.540  13.052  0.0510  0.0482 -0.3019
 9501W        W24970  16.530  13.663   5.839  0.0293  0.2440 -0.3773
 9502W        W24971   6.741   5.315   1.173  0.2282  0.2972 -0.0903
 9503W        W24972   4.794  12.016  11.194 -0.1237 -0.0447  0.3297
 9504W        W24973   3.306   1.883   1.359 -0.1863  0.0096 -0.0215
 9505W        W24974   5.640  15.764  13.230 -0.0809  0.1134 -0.1060
 9506W        W24975   2.106  13.453  11.136  0.2314 -0.0470 -0.0844
 9507W        W24976   4.121  17.494   5.068 -0.2173  0.1534 -0.2167
 9508W        W24977   4.302   2.414  11.993  0.0996  0.2888  0.0232
 9509W        W24978   9.351  10.221   4.657  0.0206 -0.0775 -0.1446
 9510W        W24979   3.945   3.151   0.046 -0.0160 -0.0616 -0.0847
 9511W        W24980  10.777   5.277  14.561  0.0791  0.0378 -0.1367
 9512W        W24981   0.713   2.958  15.030  0.0208 -0.0161  0.3020
 9513W        W24982   9.279  12.694   5.280 -0.1286 -0.1938  0.0185
 9514W        W24983  10.625  11.951   3.147  0.1029 -0.2557  0.1571
 9515W        W24984  12.249  10.882   4.284  0.0416 -0.0319 -0.0701
 9516W        W24985   0.875   6.244   4.631  0.0057  0.0706 -0.0340
 9517W        W24986   8.420  10.945  12.460  0.1712 -0.0949  0.1696
 9518W        W24987  13.271  13.968   5.535 -0.2328  0.1959  0.0182
 9519W        W24988   6.262  17.620  14.209  0.3111  0.3214 -0.2163
 9520W        W24989  17.425   8.747   2.173  0.1951  0.0528  0.0008
 9521W        W24990   1.045  11.017   4.573  0.0482 -0.2455  0.2725
 9522W        W24991   4.798  17.582   6.070  0.2385  0.1040 -0.0842
 9523W        W24992  16.457   7.707   2.402  0.2218  0.1234 -0.2681
 9524W        W24993   0.529   1.714  14.257 -0.3178 -0.0820 -0.0036
 9525W        W24994   3.229   7.192   2.612 -0.0097 -0.0949  0.0335
 9526W        W24995   5.925  16.066   2.871  0.0418  0.1861 -0.1198
 9527W        W24996  14.648  13.643   4.116  0.1185  0.1843  0.1794
 9528W        W24997  13.738   4.880  10.183  0.0298  0.2370 -0.4274
 9529W        W24998  13.469  13.218  14.349 -0.0553 -0.0477  0.0040
 9530W        W24999   6.552   7.330   3.419  0.0554  0.2653 -0.3197
 9531W        W25000   4.300   7.168  11.784 -0.0690  0.0126  0.2975
 9532W        W25001   7.306   0.863  14.717  0.2145 -0.1740  0.0361
 9533W        W25002   6.217   5.766  10.456  0.0684 -0.0593 -0.1098
 9534W        W25003   5.042  15.101   5.390 -0.0314 -0.0410 -0.4638
 9535W        W25004  12.110  15.474  13.410 -0.1200 -0.3474  0.2725
 9536W        W25005   1.519  17.550   2.705  0.3712  0.1957  0.2644
 9537W        W25006   4.550  17.954  10.706  0.1497  0.1747 -0.2720
 9538W        W25007  13.871   6.604   3.618 -0.1006 -0.2869 -0.0846
 9539W        W25008  11.926  16.832   2.409 -0.2784  0.0325 -0.0552
 9540W        W25009   4.475   5.569  15.284  0.2380  0.0714 -0.1176
 9541W        W25010  11.954  16.940   2.981 -0.1415  0.0726  0.1925
 9542W        W25011  14.199   0.248  14.309 -0.0915 -0.0295  0.0693
 9543W        W25012   6.133  16.428  11.134  0.0605  0.0968  0.0299
 9544W        W25013  10.944   8.418   2.376  0.0100 -0.0477 -0.0330
 9545W        W25014   0.090   8.360   2.926 -0.3065 -0.0686  0.3476
 9546W        W25015  10.476  11.572  12.857  0.1308  0.2884 -0.0582
 9547W        W25016  14.075  12.054  14.930 -0.2965  0.3148 -0.0041
 9548W        W25017  15.027  17.950   2.306 -0.1491 -0.1888  0.0912
 9549W        W25018   4.866  10.846  11.922 -0.0679  0.2471  0.0130
 9550W        W25019   0.049   0.924   2.346 -0.1103  0.0429 -0.0066
 9551W        W25020   4.078   8.607   2.742 -0.0495  0.1281 -0.3327
 9552W        W25021  14.608   8.996  14.341  0.0256  0.1738  0.5450
 9553W        W25022   4.024  10.525   4.807  0.2030 -0.2060  0.1034
 9554W        W25023  10.718   8.736  12.006 -0.0153  0.0340  0.0969
 9555W        W25024  17.583  15.962   5.052  0.0906 -0.0830 -0.0920
 9556W        W25025   2.182   2.807   1.067 -0.2958 -0.1692 -0.0139
 9557W        W25026  13.827   0.038   2.103 -0.0106  0.2678 -0.0446
 9558W        W25027   8.476   1.534   1.261 -0.2428  0.0282 -0.0890
 9559W        W25028  17.081   1.065   1.970 -0.0296 -0.0040  0.0572
 9560W        W25029   7.687   7.167   2.616  0.1734 -0.1556 -0.1079
 9561W        W25030  16.016  11.793  15.780 -0.3913 -0.0798  0.2857
 9562W        W25031   3.608   3.375   4.754  0.1935 -0.0352  0.2658
 9563W        W25032   7.507  10.149  14.146 -0.0076  0.2515 -0.1097
 9564W        W25033   3.930   6.367  16.261 -0.0266  0.1823 -0.0440
 9565W        W25034  14.917  17.098   3.751  0.0774 -0.1350  0.2366
 9566W        W25035   8.061  13.028   2.149 -0.3291  0.0777  0.4185
 9567W        W25036  12.367  14.079  13.565  0.0282  0.0697 -0.1264
 9568W        W25037   6.213  15.755  10.724  0.0636  0.1555  0.3268
 9569W        W25038  14.771  10.717  14.806  0.1312  0.3297 -0.0568
 9570W        W25039  13.320   4.323   6.790  0.2524 -0.0735  0.2152
 9571W        W25040   6.673   4.120   2.565 -0.0243  0.0656 -0.0046
 9572W        W25041  15.388  10.827  16.258  0.2974 -0.0335  0.0209
 9573W        W25042  15.232   0.107   5.372  0.2338  0.2386  0.0164
 9574W        W25043   5.473   3.688  11.485 -0.1757 -0.0537 -0.1617
 9575W        W25044   0.987  14.627   3.672 -0.0329 -0.0773 -0.1185
 9576W        W25045   5.159   8.897   4.052  0.2980 -0.1064  0.1248
 9577W        W25046  17.317  16.342  12.235 -0.1260 -0.3474 -0.1694
 9578W        W25047   8.455  11.225  15.114  0.1225  0.2147 -0.2038
 9579W        W25048   5.424   6.040  16.206 -0.1093  0.0265 -0.1514
 9580W        W25049  17.978   4.695  13.255 -0.2337 -0.0838 -0.1313
 9581W        W25050  14.796   0.584   2.843 -0.1296  0.0165 -0.0298
 9582W        W25051  13.346  15.952  15.475 -0.2402 -0.0013 -0.1600
 9583W        W25052   6.118   4.910   5.461  0.0312 -0.0936 -0.0636
 9584W        W25053  15.514  18.062  14.778 -0.3329 -0.1720  0.0581
 9585W        W25054  11.771  13.947  15.555 -0.0176  0.0816  0.2740
 9586W        W25055   7.599   5.972   1.040 -0.0813 -0.3380  0.3104
 9587W        W25056   8.846  15.203   4.202  0.1098 -0.2356  0.2363
 9588W        W25057  14.831   7.336   3.648 -0.1893  0.0644  0.2126
 9589W        W25058  10.220   4.367   3.555 -0.1216  0.1680 -0.1132
 9590W        W25059   4.971   4.209   1.739 -0.2583  0.1982 -0.1088
 9591W        W25060   0.525  15.441   5.025 -0.0747  0.0606  0.3634
 9592W        W25061  10.514  15.549  12.930 -0.1211  0.0023  0.1543
 9593W        W25062  14.607  12.828  15.091 -0.0297  0.1062 -0.1551
 9594W        W25063   9.514   5.158  12.267  0.0423 -0.0186  0.1068
 9595W        W25064   9.305  13.521  14.120  0.1533 -0.3971  0.2399
 9596W        W25065  15.043   6.753  13.789  0.2759  0.1143  0.1891
 9597W        W25066  12.626  16.647  16.163 -0.5097  0.0591  0.0659
 9598W        W25067   1.100  15.226   4.893 -0.0255 -0.1984  0.0544
 9599W        W25068  15.264   9.229  13.686 -0.0501 -0.3459 -0.0735
 9600W        W25069  13.707  13.222  16.059  0.2102  0.2095  0.1124
 9601W        W25070   7.090   3.752  15.210 -0.3011 -0.2270  0.2597
 9602W        W25071  12.520   2.571  16.301 -0.2224 -0.3753 -0.1758
 9603W        W25072  12.772   2.186   2.121  0.0544 -0.2892  0.0804
 9604W        W25073   0.626   0.421  15.953 -0.2116 -0.1742  0.1605
 9605W        W25074   2.545   9.544  15.907 -0.0631  0.3695  0.1005
 9606W        W25075   3.799  17.534  15.364  0.0790 -0.0283 -0.0551
 9607W        W25076   7.792  17.538  15.061  0.2424  0.0329 -0.0680
 9608W        W25077  10.558  15.392  12.443 -0.1287  0.0339 -0.3732
 9609W        W25078   7.399  10.910  11.060  0.1276 -0.4032 -0.0217
 9610W        W25079  15.187  13.245   3.409  0.0035 -0.1006 -0.3303
 9611W        W25080   9.205   2.844  16.016 -0.2994  0.1035 -0.1374
 9612W        W25081   2.492   8.893  13.618 -0.2720  0.1869  0.2176
 9613W        W25082   0.940  16.263   2.970  0.0459 -0.0023  0.2896
 9614W        W25083   5.003  17.589  11.951  0.2122  0.3365  0.2032
 9615W        W25084   9.732   0.771  13.267 -0.2037 -0.0093  0.0480
 9616W        W25085   8.169  14.173   6.071  0.1804 -0.0032 -0.0438
 9617W        W25086  15.268   5.278   5.651  0.1073  0.0666 -0.0459
 9618W        W25087   1.214   8.125   2.387  0.2821  0.0412  0.1605
 9619W        W25088   1.455   2.138  15.971  0.1758  0.3422  0.2372
 9620W        W25089  17.501  11.236  13.071  0.2420  0.0651 -0.2400
 9621W        W25090   1.242   2.515  12.797 -0.1142  0.1142 -0.1029
 9622W        W25091   6.653  14.183   3.123 -0.0297  0.3643  0.0834
 9623W        W25092   3.661  12.619   1.627 -0.1203  0.0522  0.1305
 9624W        W25093  13.449  11.277   3.200  0.1581  0.0787  0.1382
 9625W        W25094  18.008  10.328  15.949 -0.0964  0.1669  0.0975
 9626W        W25095  17.800  11.695  14.860 -0.1379  0.1556 -0.2227
 9627W        W25096   2.492   9.222   2.487  0.0948 -0.3416 -0.0441
 9628W        W25097   1.726   1.590   0.444 -0.1762  0.0787  0.1822
 9629W        W25098  11.992   8.491   5.132  0.1262 -0.3957  0.0845
 9630W        W25099   9.394   1.570  13.169 -0.3491 -0.1054  0.0110
 9631W        W25100  15.065  14.971  14.684  0.2440  0.0463  0.1295
 9632W        W25101   0.824  17.062   2.139  0.0546 -0.2386 -0.0591
 9633W        W25102   4.727  16.836   2.175 -0.1953 -0.0963 -0.0847
 9634W        W25103  11.114   6.245  14.544  0.2953  0.2773 -0.0392
 9635W        W25104   8.800  12.650   5.300  0.3191  0.1621  0.2076
 9636W        W25105   6.946  11.717  13.089 -0.0636  0.2787 -0.0686
 9637W        W25106  10.322   0.421  11.694 -0.2104 -0.2460  0.0667
 9638W        W25107  14.398  11.724  13.392  0.2126 -0.0074  0.0801
 9639W        W25108  13.887   6.477  15.537 -0.0578 -0.1806  0.0778
 9640W        W25109   6.450   4.518  12.851 -0.0579  0.3230 -0.0617
 9641W        W25110  13.206   5.229   3.607 -0.0491  0.1983  0.3793
 9642W        W25111   9.714   8.602   3.716  0.3235 -0.2320 -0.1166
 9643W        W25112  12.743  13.534  12.400 -0.1998  0.4009 -0.0778
 9644W        W25113  15.870   9.103   1.057  0.1381 -0.1348  0.3152
 9645W        W25114  15.511   2.843   3.596 -0.2064 -0.0914 -0.1166
 9646W        W25115   9.931  10.440   1.966 -0.0519 -0.0299  0.1655
 9647W        W25116  17.867   1.131  14.226  0.1441 -0.1704 -0.2847
 9648W        W25117   2.029   7.709   0.256 -0.1556 -0.1450  0.1372
 9649W        W25118   8.292  16.966   2.527 -0.0414  0.0658 -0.0834
 9650W        W25119   9.207   4.436  14.997 -0.2439  0.1810 -0.1746
 9651W        W25120   5.432   0.281   0.661  0.1117 -0.1008  0.0139
 9652W        W25121   5.076  16.391   3.061 -0.1116  0.1795 -0.2398
 9653W        W25122   6.317  15.459   0.479 -0.2337 -0.1972 -0.4128
 9654W        W25123   4.966   2.829   3.722  0.1166  0.0438 -0.2127
 9655W        W25124   5.346  16.851   6.066  0.0454 -0.0199  0.1122
 9656W        W25125  16.813  10.259  16.217 -0.0170 -0.1561 -0.1437
 9657W        W25126  11.305  13.626  15.921  0.0424 -0.2528  0.0116
 9658W        W25127   8.165   5.843   0.870  0.2194  0.1714  0.1862
 9659W        W25128  16.154  11.558   2.969 -0.1961  0.2596 -0.2840
 9660W        W25129  13.561   8.229  11.122  0.0453  0.0781  0.0447
 9661W        W25130   5.022  11.046   0.065  0.0587  0.1240 -0.0913
 9662W        W25131   2.082  16.936   3.500 -0.3284  0.2158 -0.0030
 9663W        W25132   1.461   3.790  15.277 -0.1887 -0.0923  0.1797
 9664W        W25133  15.115  11.127  15.939 -0.0644  0.0956 -0.0465
 9665W        W25134   4.841   1.081   3.996 -0.2108 -0.0823  0.4737
 9666W        W25135   4.872   5.641  14.188  0.0133  0.0402 -0.1000
 9667W        W25136  10.468  15.615   0.082 -0.1844 -0.0779  0.1674
 9668W        W25137   3.184  12.788  14.734 -0.2999 -0.1697 -0.1172
 9669W        W25138   5.325  13.167   3.756  0.3099  0.1121 -0.3917
 9670W        W25139  10.967   2.127  12.391  0.0018 -0.1692  0.4226
 9671W        W25140   9.570  16.352  14.438  0.1199  0.0293 -0.1008
 9672W        W25141   3.891  10.252   5.342  0.0697  0.0399  0.1314
 9673W        W25142   9.459  10.349   3.197 -0.5503 -0.0460 -0.0070
 9674W        W25143   1.152   2.680  11.622 -0.2555 -0.0381 -0.3718
 9675W        W25144  11.962   4.018  14.444 -0.1018  0.3113 -0.0297
 9676W        W25145   0.237   6.575  10.533  0.0394 -0.0440 -0.1093
 9677W        W25146   3.028   5.625   1.224  0.1625  0.0855 -0.0089
 9678W        W25147   9.620   8.279   2.972  0.0146  0.2079 -0.1929
 9679W        W25148   8.376   7.705   2.254  0.1096 -0.0827 -0.0851
 9680W        W25149   9.306  15.675   5.076 -0.1073 -0.0683 -0.1681
 9681W        W25150   2.538   8.791   3.454  0.1846  0.2139 -0.1404
 9682W        W25151   8.300  10.224  11.334 -0.2913  0.1284 -0.0613
 9683W        W25152   1.775   7.115  15.687  0.2071 -0.2039  0.0882
 9684W        W25153   0.433   5.437  12.738  0.2860 -0.0930  0.2288
 9685W        W25154  11.507   9.322   5.587 -0.2527  0.0547 -0.1623
 9686W        W25155   6.705   5.875  11.951  0.1312  0.1141 -0.0287
 9687W        W25156  11.637  15.795   1.998 -0.1064 -0.2126 -0.3819
 9688W        W25157   7.401  17.453  14.767  0.1648  0.1670  0.2345
 9689W        W25158   0.273   3.235   3.787 -0.1011  0.0230 -0.1461
 9690W        W25159  12.876   8.263  10.902  0.1681 -0.1214 -0.0066
 9691W        W25160   7.046   6.750   1.555 -0.0170  0.3244  0.0147
 9692W        W25161   1.713   5.339   4.645 -0.1384  0.3059 -0.1328
 9693W        W25162   3.232  17.380   0.828  0.1067 -0.1219  0.1260
 9694W        W25163   7.748   7.344  16.028 -0.0107 -0.0147 -0.1426
 9695W        W25164  11.205  16.755   0.054  0.1034  0.1348 -0.2430
 9696W        W25165  13.146   5.114   0.025 -0.0384 -0.1427  0.0327
 9697W        W25166  10.375   8.516   0.610  0.1833 -0.3082 -0.3320
 9698W        W25167   0.995  12.763  11.897  0.2003  0.1571  0.0868
 9699W        W25168   4.949  14.761   5.034  0.2665  0.1838  0.2157
 9700W        W25169  15.043   1.703   1.725 -0.0908  0.1534  0.0659
 9701W        W25170   9.429   3.974   5.944 -0.0341  0.2139 -0.1893
 9702W        W25171  15.147   7.821   2.473  0.0279  0.0773 -0.1154
 9703W        W25172  13.005  10.174   5.145 -0.2125  0.2285  0.2275
 9704W        W25173  16.912   0.341  14.529 -0.1618 -0.0458 -0.2667
 9705W        W25174  16.583   3.063  15.721  0.0053  0.2439 -0.1301
 9706W        W25175   3.671   7.966  11.791  0.0589 -0.2190 -0.0177
 9707W        W25176   4.416   9.780   2.131 -0.2568  0.1612 -0.0672
 9708W        W25177   2.139   1.928   3.924  0.4043 -0.2681 -0.3098
 9709W        W25178   2.168   9.051  11.853 -0.1311  0.4821 -0.0783
 9710W        W25179   7.867  12.568   2.869  0.1264  0.0953  0.1913
 9711W        W25180   2.772   7.072  13.082  0.0861  0.0162  0.1580
 9712W        W25181  15.658   3.696  14.316 -0.0584  0.2073 -0.2076
 9713W        W25182   7.903   6.630   4.684 -0.0116  0.0495 -0.2502
 9714W        W25183   9.500   0.104   5.182 -0.0281  0.0255 -0.0902
 9715W        W25184   0.189   5.581   1.077 -0.0309  0.0311  0.0795
 9716W        W25185   0.210   9.114  12.983  0.3364 -0.1417 -0.3495
 9717W        W25186   2.069  16.609   2.828 -0.1283 -0.0807  0.1235
 9718W        W25187   3.254   6.129   3.246  0.0779 -0.0768 -0.1107
 9719W        W25188  17.910   3.900   4.543  0.0969  0.2541 -0.3306
 9720W        W25189   0.746  13.864  14.151  0.0679  0.1547 -0.3499
 9721W        W25190  13.527  12.790  12.973 -0.1529  0.0746 -0.1795
 9722W        W25191   5.120   6.684  16.288  0.2376 -0.0801 -0.0738
 9723W        W25192   1.379  17.462   2.078  0.1567  0.0036  0.1003
 9724W        W25193  17.220   3.053  11.111  0.0158  0.1039 -0.0341
 9725W        W25194  11.482  13.959  14.968  0.0297 -0.1642  0.0228
 9726W        W25195   4.972  16.203   3.982 -0.1614 -0.2640  0.1483
 9727W        W25196  14.901  11.975   2.470  0.1939  0.0072  0.0492
 9728W        W25197  16.381   1.432   5.346  0.0807  0.3486 -0.0825
 9729W        W25198   6.550  10.004  14.040  0.1662  0.1535 -0.0787
 9730W        W25199  16.158  13.241   3.019  0.2939 -0.2208  0.2111
 9731W        W25200  17.104  16.534  12.654 -0.1894 -0.2484  0.1578
 9732W        W25201   5.607  17.112  10.638  0.2479  0.0504 -0.1344
 9733W        W25202   8.507   3.887  13.314 -0.1403  0.3299 -0.1681
 9734W        W25203  11.483  16.760   1.641  0.2712 -0.0285 -0.1726
 9735W        W25204  14.644   4.198  13.824 -0.0420 -0.1778 -0.0517
 9736W        W25205   7.859  11.805   2.631 -0.2078  0.1287 -0.0516
 9737W        W25206   2.048  10.542   3.639 -0.1035  0.0411  0.0719
 9738W        W25207  13.662   5.736   1.158  0.1930  0.0241 -0.1670
 9739W        W25208   0.837  16.136   0.881 -0.0709  0.0550  0.0077
 9740W        W25209   4.070   4.402  15.939  0.2827 -0.0827  0.0925
 9741W        W25210  10.823  13.511  15.201  0.0928  0.0667  0.1871
 9742W        W25211  10.509   6.668  14.072 -0.1214  0.3501  0.0313
 9743W        W25212  11.857   9.746  16.185  0.0852 -0.3862 -0.1811
 9744W        W25213   1.514  17.781   4.278  0.2475 -0.4265  0.3308
 9745W        W25214   6.312  13.890   0.748  0.2759  0.0118 -0.0182
 9746W        W25215   3.750   2.259  11.189  0.2325  0.0049  0.1421
 9747W        W25216   7.995   8.206  13.969 -0.0229  0.2718 -0.0111
 9748W        W25217   5.244  14.388   1.637  0.1322  0.1637  0.1003
 9749W        W25218   0.212   6.939  13.297  0.1613 -0.1308 -0.0604
 9750W        W25219   0.801  17.888   3.274  0.2786 -0.3914  0.1460
 9751W        W25220   6.512   5.770   4.436 -0.2812  0.0358 -0.0279
 9752W        W25221   2.240  13.589   2.821  0.0270  0.1384 -0.0968
 9753W        W25222   6.881  10.885  11.891 -0.0050  0.4765  0.1381
 9754W        W25223  10.351  11.805  14.103  0.2035 -0.1216  0.2032
 9755W        W25224  10.928   8.839  10.592  0.0050  0.0053 -0.2232
 9756W        W25225  17.998   9.180  11.714 -0.0251  0.2797 -0.0816
 9757W        W25226  12.179   7.984   2.867  0.1007 -0.0274 -0.2474
 9758W        W25227   0.771   6.242   2.815  0.1940  0.3193  0.1727
 9759W        W25228  13.830   1.858   0.497  0.2009 -0.0904 -0.1354
 9760W        W25229  17.859  11.483  13.371 -0.1716  0.0736 -0.1967
 9761W        W25230   9.976   2.280  13.568  0.4070 -0.0918  0.3027
 9762W        W25231   1.903   2.045   5.102  0.0120 -0.1183 -0.1303
 9763W        W25232  13.646   6.932   5.154  0.0033  0.1502 -0.2334
 9764W        W25233   7.442  12.263   0.281 -0.0216 -0.0597  0.2238
 9765W        W25234  14.792   1.568   2.147  0.0949  0.1261  0.1866
 9766W        W25235   5.012  10.007   3.489 -0.1189  0.2912  0.0256
 9767W        W25236   2.019   7.330  12.541 -0.1055  0.3201 -0.0050
 9768W        W25237   5.843  12.675  14.367 -0.0884 -0.0717 -0.0221
 9769W        W25238   9.315   8.938  13.257 -0.1938  0.1054 -0.3593
 9770W        W25239  16.809   6.248   0.674  0.1625 -0.3750  0.1852
 9771W        W25240   7.666  13.461  14.799  0.0285 -0.0917 -0.2142
 9772W        W25241  11.110  15.959  11.639 -0.0730  0.1030 -0.0597
 9773W        W25242  14.388   3.717  14.499 -0.1387  0.0614 -0.0990
 9774W        W25243  11.874   8.760   4.332 -0.0637 -0.1541 -0.1904
 9775W        W25244  13.529   5.867  12.076  0.3160 -0.2369  0.2549
 9776W        W25245  17.748   5.280   5.756  0.0803  0.3192  0.0072
 9777W        W25246  14.878   5.920   5.139  0.3046 -0.0097  0.2172
 9778W        W25247   9.183   3.056  14.257 -0.4990  0.4544 -0.1654
 9779W        W25248  12.499   2.164  16.023 -0.1236  0.2742 -0.3693
 9780W        W25249  13.605   2.335  13.380  0.3400  0.3247  0.1149
 9781W        W25250   4.891  17.563   2.276  0.0155 -0.3174 -0.1520
 9782W        W25251  13.441   8.533  14.293  0.0265 -0.1906 -0.0647
 9783W        W25252   1.543  10.016  15.774 -0.3893 -0.1005 -0.2887
 9784W        W25253   7.477  16.952   1.588  0.0419  0.1038  0.0664
 9785W        W25254   4.955   9.330  16.224 -0.3336 -0.1047  0.2229
 9786W        W25255   2.929  15.422  13.467  0.0621 -0.1226  0.0459
 9787W        W25256  15.335   6.292  14.979  0.1523 -0.1410 -0.0672
 9788W        W25257  12.257  15.188   4.730 -0.1651 -0.3138  0.1071
 9789W        W25258   0.125   4.929  10.606 -0.1013 -0.3094 -0.0482
 9790W        W25259  17.811  17.637   3.690  0.2187  0.1671  0.0191
 9791W        W25260  11.213  17.736   0.887 -0.0188 -0.2836 -0.0827
 9792W        W25261   8.933  11.853  13.640  0.2253  0.2622  0.0747
 9793W        W25262  12.147  12.412  13.554 -0.1046  0.0931 -0.0778
 9794W        W25263   7.358   6.385  16.097 -0.1677 -0.2218  0.1106
 9795W        W25264   1.048   5.100  13.514 -0.3459 -0.1611  0.1953
 9796W        W25265   0.246  17.226   1.518  0.0241 -0.0075  0.2133
 9797W        W25266   5.318  17.175   1.550  0.0751  0.2285  0.1218
 9798W        W25267   7.107  17.941   0.806 -0.0989  0.2928  0.0558
 9799W        W25268   7.942  14.423   4.930 -0.0853 -0.0156 -0.1822
 9800W        W25269  16.723  13.169  12.119 -0.3830  0.0910 -0.1631
 9801W        W25270   2.986   1.958  10.756  0.0115 -0.1425  0.0072
 9802W        W25271  14.386   8.318  11.636 -0.4538  0.2790 -0.0213
 9803W        W25272   5.230  10.524  15.132 -0.0783  0.0023  0.1235
 9804W        W25273  14.979   4.972   0.669 -0.0365 -0.0580  0.1764
 9805W        W25274   1.039  12.967   4.241  0.0228  0.4421 -0.0163
 9806W        W25275  10.442  16.300   3.952  0.2222 -0.0377  0.0652
 9807W        W25276  10.383   3.295   3.679 -0.1684  0.3007 -0.0537
 9808W        W25277  12.162   2.212   2.138  0.3000  0.0792 -0.2380
 9809W        W25278  17.571  16.488   1.039 -0.2977  0.0944  0.1735
 9810W        W25279   3.711   8.072   1.661  0.2382  0.2670  0.1421
 9811W        W25280  10.775   2.361  13.790  0.0473  0.1069  0.2130
 9812W        W25281   8.116  17.581  14.493  0.0937  0.0436 -0.0723
 9813W        W25282  10.492   7.181  12.745  0.3260 -0.0393  0.3301
 9814W        W25283  15.160   1.343  11.703 -0.0096 -0.1254  0.2179
 9815W        W25284  16.043  16.140  15.020 -0.3459  0.0255 -0.0210
 9816W        W25285   2.421  11.928   5.199  0.0708  0.0613 -0.1200
 9817W        W25286   8.600  13.508   0.660 -0.1302 -0.1047 -0.0069
 9818W        W25287  15.098   3.076   2.467  0.5755 -0.3132  0.1599
 9819W        W25288  15.240   9.995   2.822 -0.3832  0.2279 -0.0449
 9820W        W25289   6.312  15.127  10.034 -0.0247  0.0367 -0.0569
 9821W        W25290  11.669   0.209   2.669  0.1412 -0.3815  0.0113
 9822W        W25291  13.901  11.234   0.015 -0.1327  0.4204 -0.1231
 9823W        W25292  17.469  12.030   0.085 -0.0083  0.0278 -0.0308
 9824W        W25293  10.618   3.266  10.867 -0.2043  0.1289  0.3439
 9825W        W25294   1.765   5.689  10.152 -0.1119 -0.1582 -0.0022
 9826W        W25295   3.547  17.701   4.130 -0.2198  0.2644  0.0851
 9827W        W25296   7.496   5.052   4.638 -0.1510  0.1411  0.0968
 9828W        W25297  12.913  13.777  11.788  0.2648 -0.0895 -0.2022
 9829W        W25298   9.952  11.522  14.236  0.0064 -0.2368  0.2823
 9830W        W25299   7.832  10.043  13.726  0.2682 -0.3740  0.0611
 9831W        W25300   2.580  12.785  11.598 -0.0790 -0.0277  0.1087
 9832W        W25301   2.470  13.538   1.458  0.3758  0.0592  0.0200
 9833W        W25302  17.708  11.314   4.826 -0.0484 -0.0775  0.2030
 9834W        W25303  16.096  11.773   1.518  0.1980  0.3061  0.0070
 9835W        W25304  13.292  10.416  15.186 -0.2492  0.1191  0.0155
 9836W        W25305   6.662   7.024   2.329  0.1627 -0.0709 -0.1756
 9837W        W25306   2.445   0.206  12.609 -0.1396 -0.0911 -0.3419
 9838W        W25307  11.260   9.152  13.003  0.2076  0.0572 -0.1119
 9839W        W25308   3.031  17.589  14.623  0.1094 -0.2146 -0.0437
 9840W        W25309  15.309  17.855  15.645  0.1276 -0.1036 -0.0899
 9841W        W25310  11.729  13.694  13.428 -0.1236 -0.0390  0.0242
 9842W        W25311  14.826  11.436   5.287 -0.0701 -0.1580 -0.1146
 9843W        W25312   5.057   2.823   2.582 -0.0942  0.1570  0.1108
 9844W        W25313  12.151  13.644   6.045  0.0482  0.0056 -0.1720
 9845W        W25314   7.889   9.969   1.311  0.0337 -0.1412  0.0796
 9846W        W25315  12.605   4.509   5.667  0.1190  0.0495  0.2918
 9847W        W25316  15.234  17.996  11.414 -0.2243 -0.0219 -0.1279
 9848W        W25317  13.640   9.770  15.066  0.1047 -0.1313 -0.1568
 9849W        W25318   0.088   7.232  11.846  0.1171 -0.2488  0.3370
 9850W        W25319   4.128  17.954  10.450  0.1876  0.3015  0.1631
 9851W        W25320  10.128   2.477   0.000 -0.1701  0.1190 -0.1209
 9852W        W25321   1.405   2.354   0.066 -0.3005  0.2360 -0.2977
 9853W        W25322   5.689   3.290   4.667  0.0976 -0.1043  0.0887
 9854W        W25323   0.241   2.100   3.187  0.1559  0.0524 -0.1332
 9855W        W25324  13.335   7.688   2.551  0.2000 -0.0567  0.4518
 9856W        W25325  13.851  12.628   3.280  0.3479  0.0742  0.1763
 9857W        W25326   7.508  10.544   5.807  0.0799  0.0754 -0.1862
 9858W        W25327  15.747  16.176  13.538 -0.0568 -0.0675  0.1157
 9859W        W25328  16.565   5.281  11.761 -0.1589 -0.0143  0.0857
 9860W        W25329  17.213  15.605   1.293 -0.1828  0.0258  0.1363
 9861W        W25330  13.116  16.883   0.640 -0.3096  0.0904  0.1931
 9862W        W25331  17.083   5.692   3.190 -0.0377  0.3061  0.1109
 9863W        W25332  10.286   1.937  15.480  0.0373  0.1687 -0.0807
 9864W        W25333  14.087   4.456   0.726 -0.5053  0.2534  0.2712
 9865W        W25334  15.408  16.968   1.834 -0.2758 -0.2985 -0.0930
 9866W        W25335   8.077   3.203   3.018 -0.1375 -0.0769 -0.1078
 9867W        W25336  13.158   1.560   1.086  0.1062  0.1486 -0.2294
 9868W        W25337   4.036  14.973   1.350  0.2706 -0.0807  0.2328
 9869W        W25338  17.356  12.638   0.864  0.1034 -0.0379  0.1959
 9870W        W25339   1.219  10.683  12.866  0.2629 -0.0206 -0.0102
 9871W        W25340   6.826   1.154   4.152  0.2083  0.1543  0.1619
 9872W        W25341  15.448  15.022  14.390 -0.0915 -0.0661  0.0566
 9873W        W25342  13.460   2.594   3.029 -0.0544  0.2244 -0.1000
 9874W        W25343   2.089  16.880  11.445 -0.0594  0.1905 -0.0340
 9875W        W25344   1.817   6.997   5.021 -0.0742  0.2067 -0.1258
 9876W        W25345   7.403   8.523  11.576 -0.0221 -0.0711  0.1313
 9877W        W25346   4.683   6.200   3.582  0.0183  0.3817  0.2427
 9878W        W25347  12.707   4.231   0.416 -0.2262  0.1056 -0.0336
 9879W        W25348   6.655   1.592  16.273 -0.1949  0.1466  0.2096
 9880W        W25349  15.813   2.063   0.122 -0.0548 -0.3103 -0.0683
 9881W        W25350  17.355   7.294  13.353  0.0503  0.0689  0.0706
 9882W        W25351  15.587   8.184  15.706 -0.1144  0.3913 -0.0885
 9883W        W25352  12.575  13.203   4.637 -0.1512  0.0673  0.1016
 9884W        W25353   2.717   9.440   0.163  0.0325 -0.3459 -0.0245
 9885W        W25354   3.036  11.906   3.247 -0.1380  0.1600 -0.0706
 9886W        W25355  11.295  13.850  11.151 -0.0931  0.0622  0.1897
 9887W        W25356   0.766   7.720  15.604  0.4253 -0.2858  0.1280
 9888W        W25357   6.747   3.812   0.797 -0.0298  0.0262 -0.0675
 9889W        W25358   4.196  13.442   0.582  0.1130 -0.1313  0.3559
 9890W        W25359  12.924  11.561   0.837  0.2845 -0.1046  0.0672
 9891W        W25360   6.843   6.058   3.128 -0.1724 -0.4448 -0.1491
 9892W        W25361   7.165  17.796   1.592  0.1038  0.0983  0.1132
 9893W        W25362   7.143   8.170  14.586  0.1877 -0.0827  0.0410
 9894W        W25363  11.232   7.653   1.348  0.2823  0.2527 -0.3606
 9895W        W25364  12.923  12.933   1.419  0.0459  0.2975  0.3487
 9896W        W25365  16.562   7.567   5.352  0.3532  0.1017  0.1108
 9897W        W25366   1.299   1.458   5.510  0.2137 -0.0317 -0.2119
 9898W        W25367  16.963  15.746  11.136 -0.2194  0.0020 -0.1479
 9899W        W25368   2.353  17.256   4.335 -0.0519  0.0896  0.1848
 9900W        W25369  15.456   1.685  11.055  0.1489  0.2356  0.0189
 9901W        W25370  14.666   8.121  12.652  0.1771 -0.0133 -0.2237
 9902W        W25371   1.609  16.392  10.234  0.0262  0.2090 -0.1114
 9903W        W25372  10.756   5.922   2.851  0.0132  0.2367 -0.0241
 9904W        W25373  10.323  15.958   4.836  0.0997  0.0922  0.3784
 9905W        W25374   3.568   0.537  13.640 -0.3564 -0.0653 -0.1723
 9906W        W25375   0.229   7.148   2.059 -0.3094  0.0373  0.2818
 9907W        W25376   7.091  16.624  14.874 -0.0350  0.0503 -0.2411
 9908W        W25377  17.165   1.289   2.866  0.2574  0.0347 -0.1646
 9909W        W25378  15.899  10.019   4.276 -0.0031 -0.0022 -0.1606
 9910W        W25379  11.513   5.705  15.845 -0.1060  0.0216 -0.0356
 9911W        W25380  17.926   7.748  15.840  0.0346  0.0872  0.0581
 9912W        W25381  12.013   6.055  12.604 -0.0462  0.1476 -0.1384
 9913W        W25382   7.058   9.411  15.291 -0.0171 -0.1597 -0.3902
 9914W        W25383   1.507   5.903  15.548  0.2003  0.0080  0.0398
 9915W        W25384  15.163  13.741  15.688 -0.0762  0.0250 -0.0780
 9916W        W25385   5.048  10.746  13.887  0.1497  0.4993 -0.0176
 9917W        W25386   4.847  15.740  16.113  0.3423 -0.0133  0.0118
 9918W        W25387  13.769  13.753  13.756  0.1730 -0.2377  0.0993
 9919W        W25388  15.174  11.519   3.041  0.2457 -0.0773  0.0728
 9920W        W25389   3.388   0.495  11.425 -0.0353 -0.0234  0.0666
 9921W        W25390  13.327   5.152   5.270  0.0729  0.2125  0.4231
 9922W        W25391   6.478  12.015  15.794 -0.1234 -0.2184 -0.2594
 9923W        W25392  16.934   7.227  11.457 -0.2392  0.0417  0.0306
 9924W        W25393   7.229   0.049  15.446  0.2896 -0.1263  0.0114
 9925W        W25394  12.950   3.410   3.528 -0.2493  0.2958  0.2214
 9926W        W25395   9.092   4.361  15.531 -0.0892  0.1218  0.1073
 9927W        W25396  17.777  17.049   0.152 -0.0707 -0.2678 -0.1223
 9928W        W25397  11.169  10.884   0.492 -0.0475 -0.2922  0.1546
 9929W        W25398  15.030   5.969   2.617 -0.2477  0.2265 -0.1013
 9930W        W25399  10.792  17.985   5.988  0.2181  0.1311 -0.0637
 9931W        W25400  14.210  12.752  14.728 -0.2258  0.0652  0.2572
 9932W        W25401   5.993   4.090  11.606 -0.0492  0.0881 -0.0462
 9933W        W25402   8.728   4.571   4.202 -0.1043  0.0886  0.1329
 9934W        W25403   2.907   3.904   3.906 -0.1567 -0.2503 -0.2862
 9935W        W25404  13.294  12.475   0.347 -0.1964  0.1658  0.0796
 9936W        W25405  17.551   7.792   4.783 -0.0150 -0.0508 -0.0339
 9937W        W25406  18.029  12.509   2.523 -0.3785  0.0994  0.0477
 9938W        W25407  16.607  13.966   3.578  0.1718 -0.1019 -0.0566
 9939W        W25408   0.919   3.156  11.657  0.0908  0.0355  0.2536
 9940W        W25409   0.325  12.507   5.328 -0.0652  0.1113 -0.0767
 9941W        W25410   2.582   0.928  12.432 -0.1320  0.0400 -0.1571
 9942W        W25411  10.508   2.802   0.719 -0.2858 -0.3084 -0.2291
 9943W        W25412   8.020   1.483   4.370  0.1769  0.1916  0.0565
 9944W        W25413  15.698  13.375   5.121  0.0761 -0.1039  0.0064
 9945W        W25414  17.580  12.152  15.090  0.0050  0.0122 -0.1411
 9946W        W25415   1.595  11.667  13.326 -0.1447  0.0520 -0.0561
 9947W        W25416  15.347   7.385   1.559 -0.0982  0.2582  0.0100
 9948W        W25417   5.082   2.333   1.852 -0.2110  0.1054  0.1149
 9949W        W25418   2.428   3.622   6.083 -0.1691 -0.0002 -0.1766
 9950W        W25419   7.378  12.532  14.214  0.3409  0.0159  0.1562
 9951W        W25420  11.202  11.617   2.793  0.2663  0.0719 -0.0274
 9952W        W25421  14.331   5.158  10.626 -0.1370 -0.1806 -0.2826
 9953W        W25422   3.121  10.091  15.320 -0.0029  0.1447 -0.0141
 9954W        W25423   0.039   1.936  14.024  0.2291  0.0366 -0.0620
 9955W        W25424   9.958  13.702  15.735  0.1171 -0.3076  0.0201
 9956W        W25425   1.566  15.399   3.474  0.1034  0.0828 -0.0835
 9957W        W25426  15.891   7.415  15.159  0.2129  0.0807  0.0828
 9958W        W25427   3.060  10.026   4.847  0.1843 -0.1265  0.0098
 9959W        W25428   5.481   7.770   5.093 -0.0683  0.0118  0.3693
 9960W        W25429   5.555   8.695  13.201  0.0214  0.0563  0.2454
 9961W        W25430   1.404   6.703   4.175 -0.0304  0.0006  0.2680
 9962W        W25431   8.451  14.309   5.677  0.0843  0.0532  0.1919
 9963W        W25432   8.548   2.294  13.671  0.1919  0.0057 -0.1259
 9964W        W25433   4.858  16.927  12.227 -0.0214  0.1386  0.0891
 9965W        W25434   8.912   1.770   2.481  0.0083  0.0083  0.0922
 9966W        W25435  17.882  15.041   5.347  0.1109  0.1052  0.1409
 9967W        W25436   7.603   8.368   2.018 -0.1501  0.0290  0.2731
 9968W        W25437   7.034   8.094  15.436 -0.2259 -0.6081  0.3529
 9969W        W25438   7.242   6.247   5.164  0.1710 -0.0674  0.1392
 9970W        W25439  17.186   1.018   2.454  0.0205  0.0174  0.0502
 9971W        W25440   7.650   8.363  11.997 -0.0948  0.0266 -0.2626
 9972W        W25441  16.473   0.337  14.795 -0.0453 -0.2382 -0.3066
 9973W        W25442   5.252   6.905   1.849  0.0724 -0.0836  0.0692
 9974W        W25443  11.167   3.878   3.212 -0.0859 -0.1006 -0.0358
 9975W        W25444   6.294  12.341   3.416 -0.0426 -0.2994 -0.0753
 9976W        W25445   2.289   0.267   3.874 -0.1137 -0.0565 -0.0369
 9977W        W25446   8.722   4.065  12.211 -0.1838 -0.4700 -0.1683
 9978W        W25447   8.138  10.029  16.020 -0.0591  0.0820  0.0016
 9979W        W25448  17.949   7.090   3.350  0.3120 -0.2046  0.0377
 9980W        W25449  17.761  12.249   4.221  0.1740  0.0448  0.0117
 9981W        W25450  16.938   2.043  14.703 -0.0145  0.0965 -0.1015
 9982W        W25451  11.633   9.103  12.018 -0.2739  0.0849 -0.1914
 9983W        W25452   7.638  17.382   2.511  0.3234 -0.0602  0.0407
 9984W        W25453   9.375  10.801   3.392 -0.0708 -0.1900  0.0306
 9985W        W25454   4.642  13.979  14.878 -0.2396 -0.1974 -0.1115
 9986W        W25455   1.678   6.526  11.689  0.0226 -0.1093  0.1476
 9987W        W25456  13.010   7.525   0.191 -0.1286 -0.0526  0.2481
 9988W        W25457  12.050   7.035  14.783 -0.0649 -0.0192 -0.1780
 9989W        W25458  11.810  14.731  12.915 -0.1831  0.1165  0.0367
 9990W        W25459   2.396  12.545   0.012 -0.3103  0.1392 -0.2392
 9991W        W25460  14.542   9.805   1.128  0.2029  0.0589  0.2361
 9992W        W25461  16.303  12.561  14.883  0.0148 -0.3637 -0.2707
 9993W        W25462  12.280  17.805   2.947 -0.0838  0.0882  0.0926
 9994W        W25463   0.347   4.495  13.246  0.2401 -0.1564 -0.0774
 9995W        W25464   2.965   9.177   5.440 -0.0257  0.1906  0.1909
 9996W        W25465   0.089   4.922   1.885 -0.1155 -0.0488 -0.3442
 9997W        W25466   8.091   9.764   3.321  0.1284 -0.0685 -0.0773
 9998W        W25467   4.536  16.770  11.475 -0.2161  0.2742 -0.0222
 9999W        W25468  16.888  13.236   4.422  0.1181 -0.1340  0.0707
10000W        W25469   4.527   9.000  16.037  0.0117 -0.0458  0.1857
10001W        W25470   8.868  15.073  11.667  0.0731  0.3319  0.0793
10002W        W25471   4.089   2.182   1.918 -0.0518  0.0982 -0.0157
10003W        W25472   4.354  16.292  13.750  0.1203  0.0757 -0.1983
10004W        W25473   3.943   1.892   2.743 -0.1093 -0.0851  0.0807
10005W        W25474   9.509   5.430   5.297 -0.1559  0.0809  0.0507
10006W        W25475   5.520   6.447   4.794 -0.2024 -0.1365 -0.1011
10007W        W25476  12.580   5.262  15.046 -0.0585  0.0883 -0.1768
10008W        W25477  10.223   2.835   2.954 -0.0414 -0.4438  0.0000
10009W        W25478  12.596   9.985  11.469  0.1968  0.3018 -0.1595
10010W        W25479   2.235  14.487  16.064  0.3253  0.0083 -0.2148
10011W        W25480  16.921  17.964   1.020 -0.0749  0.1373 -0.0422
10012W        W25481   8.997   3.870   4.422  0.2134  0.1032  0.2220
10013W        W25482   5.153   9.835  14.149 -0.3259  0.1803 -0.2019
10014W        W25483   4.883   6.552  15.825  0.0998  0.0845  0.1057
10015W        W25484   5.656  11.257   4.369  0.0600 -0.1614  0.3354
10016W        W25485   7.554   0.476   2.116  0.3644 -0.1404 -0.1729
10017W        W25486   5.924   3.637  12.905  0.1402  0.2636  0.0208
10018W        W25487  15.458  15.620  15.552  0.0222 -0.0646  0.2611
10019W        W25488   9.914  17.776  13.030 -0.1304 -0.0623  0.2919
10020W        W25489   6.750   3.224   2.634  0.1051 -0.1497  0.2334
10021W        W25490  10.192   1.078  11.961 -0.1141  0.3154 -0.1078
10022W        W25491   8.403  10.049   1.143 -0.1067 -0.2345  0.0664
10023W        W25492  13.612   5.749   2.192 -0.1562 -0.0274 -0.0660
10024W        W25493   1.485  15.267  11.811  0.0893 -0.1527  0.0340
10025W        W25494  15.452  12.153   0.347  0.0689 -0.0775 -0.0751
10026W        W25495  17.752   8.104  16.269 -0.2694  0.0501 -0.0414
10027W        W25496   4.592   5.798  11.391  0.1549 -0.2649  0.3051
10028W        W25497   6.229   3.284  13.104 -0.2763 -0.0928  0.1365
10029W        W25498  10.262   6.262   0.143  0.1474 -0.0092  0.0284
10030W        W25499   1.779   4.064   3.326  0.1897  0.0497 -0.0216
10031W        W25500   4.621   6.158   4.999 -0.2411 -0.0578  0.2568
10032W        W25501  10.064   0.093  15.922  0.2475 -0.1068 -0.1092
10033W        W25502  17.890   1.596   2.818  0.1443  0.0297 -0.0166
10034W        W25503   6.344  12.065  15.296 -0.0356  0.2260 -0.0036
10035W        W25504   7.230   5.533   4.597  0.3940  0.0704  0.3327
10036W        W25505  11.707   1.939  15.693 -0.0987 -0.0575  0.2705
10037W        W25506   2.948   0.703  11.606 -0.2096 -0.1861 -0.1188
10038W        W25507   7.273   8.068  11.839 -0.2530  0.1477 -0.1974
10039W        W25508  12.807  15.280  16.181  0.0326  0.1301  0.1191
10040W        W25509  17.297   6.845  12.421 -0.1049 -0.0936  0.1053
10041W        W25510  17.015  14.712  14.777 -0.1170 -0.0812  0.0392
10042W        W25511   5.168  14.103  15.300  0.0816  0.4281 -0.3626
10043W        W25512  14.993   1.667  14.587  0.3753  0.2507  0.0268
10044W        W25513  17.316   3.073   1.012  0.0846  0.0376 -0.1527
10045W        W25514  16.080  16.333   5.086  0.1107  0.1112  0.1816
10046W        W25515  15.303  15.408  15.080 -0.2587  0.2639 -0.1944
10047W        W25516  15.224   8.003   1.193  0.0652 -0.2597  0.0159
10048W        W25517  14.011  12.922   2.054 -0.0399  0.0490  0.0282
10049W        W25518   8.442   6.929   6.420 -0.1664 -0.1412 -0.0904
10050W        W25519  14.853   3.139   2.895 -0.0597 -0.2242  0.2608
10051W        W25520   0.442  16.020   0.131  0.1752 -0.1661  0.0148
10052W        W25521   3.653  15.993  15.615  0.0971 -0.2033  0.1236
10053W        W25522  15.904   9.247   3.024 -0.0499 -0.1236  0.1125
10054W        W25523  10.140  11.977   1.207  0.0847  0.0286 -0.0409
10055W        W25524   0.869   3.925  11.207 -0.0932  0.2127 -0.0525
10056W        W25525   7.115  14.357   3.166 -0.1578  0.3014 -0.3859
10057W        W25526   1.664  10.003  11.954 -0.0612 -0.0921  0.1712
10058W        W25527   1.701   5.807  12.892 -0.1111 -0.4013  0.0140
10059W        W25528   7.362   8.666   4.429 -0.1502  0.3686  0.0522
10060W        W25529  13.431   3.760   3.032 -0.1327  0.0750  0.0958
10061W        W25530   2.843   3.361   3.058 -0.1573  0.1442  0.0337
10062W        W25531  11.571  14.226  14.178  0.1434  0.0433 -0.0284
10063W        W25532  15.529  17.899   3.664 -0.5573  0.0060 -0.0302
10064W        W25533  12.835   7.033  10.632 -0.0331 -0.0665 -0.1723
10065W        W25534  11.934   5.819   2.359  0.1225  0.1317 -0.1497
10066W        W25535   6.614  16.677   4.557  0.0012 -0.1678  0.0721
10067W        W25536   2.230   5.400  15.658 -0.2595  0.1945 -0.4488
10068W        W25537  15.048   3.817   4.588  0.1157  0.1314 -0.0879
10069W        W25538   9.689   0.982   0.130  0.1785  0.0766  0.1385
10070W        W25539   0.875   5.816   5.002 -0.1681 -0.0163  0.0367
10071W        W25540   0.583  16.697   3.131 -0.0596 -0.0643 -0.1264
10072W        W25541   7.821   3.947  12.587  0.1164  0.1056 -0.0839
10073W        W25542   7.579  17.888   2.768 -0.0956  0.0581  0.0768
10074W        W25543   5.307   4.039   4.310 -0.0244 -0.0345 -0.1233
10075W        W25544   6.160  14.323   3.217  0.1695  0.0513  0.4338
10076W        W25545   7.934   7.813  16.146  0.0732 -0.2766 -0.2432
10077W        W25546   3.503   3.653  14.005  0.1705  0.2970 -0.0077
10078W        W25547  11.804   1.911  12.258 -0.0186  0.0393 -0.0473
10079W        W25548  10.388  17.986  13.209  0.1037 -0.2802  0.0555
10080W        W25549  17.644  13.778   3.484 -0.1455 -0.1995  0.1758
10081W        W25550  10.883  17.020  11.981 -0.1770  0.0293  0.0573
10082W        W25551   5.125   0.809  15.934  0.0580 -0.0092  0.2252
10083W        W25552   7.526  12.438   1.119 -0.0956  0.0711  0.1814
10084W        W25553  15.189   5.260  12.141 -0.1887  0.2371  0.0572
10085W        W25554   7.163   4.384  10.293  0.0048  0.1020 -0.0906
10086W        W25555  11.951  16.040  15.632  0.2287  0.2568  0.0573
10087W        W25556   8.615   7.326  12.985  0.0247  0.1030 -0.1420
10088W        W25557   8.863   0.871   4.557 -0.0626  0.2613  0.0452
10089W        W25558   6.175   0.532   4.468  0.0339 -0.2050  0.1055
10090W        W25559  13.960   5.431   6.528 -0.1541  0.2391  0.1533
10091W        W25560  14.008  10.226  11.126 -0.2358 -0.1953  0.0278
10092W        W25561   3.090  17.046   5.735 -0.0448 -0.1790 -0.0150
10093W        W25562  11.054  16.976   1.957 -0.3026  0.0670 -0.1794
10094W        W25563   4.826  14.058   1.740  0.2791 -0.1730  0.2551
10095W        W25564  18.028   4.891  11.922 -0.1040  0.1089  0.2472
10096W        W25565   4.528  17.565  13.252  0.1777 -0.0247 -0.1279
10097W        W25566   2.461   2.439  13.349  0.1905  0.1706 -0.0317
10098W        W25567  16.075  13.471   4.171  0.1783  0.1337 -0.0880
10099W        W25568   6.919   6.665   0.938  0.0081  0.1543  0.3851
10100W        W25569  17.827   0.465   3.904 -0.0216  0.1452 -0.1587
10101W        W25570  17.519  15.763   2.555  0.2469  0.0476  0.0282
10102W        W25571   4.095   9.150   0.886 -0.1963 -0.1266  0.3421
10103W        W25572   8.574  15.045  16.011  0.2548 -0.1650  0.1461
10104W        W25573   9.267   3.425   1.993 -0.0974 -0.0856  0.1419
10105W        W25574  11.784   9.712   2.268 -0.0622  0.0248  0.0973
10106W        W25575   0.720   2.430  12.830 -0.2060 -0.0995  0.3380
10107W        W25576  10.363   2.594  13.599 -0.0767 -0.5384  0.2009
10108W        W25577   9.139  12.148  12.718 -0.2823  0.0216 -0.0268
10109W        W25578   1.730  16.636  12.340 -0.1406 -0.0395  0.1048
10110W        W25579  17.161   0.196   3.302 -0.1712 -0.1122 -0.0228
10111W        W25580  16.101   4.764  14.334  0.0008 -0.2519 -0.1223
10112W        W25581   7.199  14.233   1.804  0.1269  0.1158 -0.0017
10113W        W25582   5.884  16.016  11.012  0.4312  0.0031 -0.2472
10114W        W25583  13.500  12.179  11.318  0.2034  0.1411 -0.1771
10115W        W25584   3.715   9.496   0.763 -0.1463 -0.3523 -0.1956
10116W        W25585   2.183  12.234  11.026 -0.1312  0.2005 -0.3097
10117W        W25586   4.472  11.794  13.553  0.3220 -0.0735 -0.1539
10118W        W25587  14.861   3.907  11.734  0.0901  0.1458  0.4343
10119W        W25588   5.589  10.571   2.003 -0.0283  0.1983 -0.1796
10120W        W25589   9.129   9.603  12.369  0.0636 -0.1313  0.0731
10121W        W25590   3.875   9.421   4.576  0.1877 -0.2672  0.1189
10122W        W25591  12.537   4.765   2.625 -0.1836  0.0737 -0.0660
10123W        W25592   8.098  16.589  13.406 -0.2063  0.1159  0.0257
10124W        W25593   8.939   8.005  12.515  0.2149 -0.0875 -0.1075
10125W        W25594  12.006  11.890   1.454  0.1685 -0.0864 -0.1089
10126W        W25595  18.069   7.123  12.922  0.1830  0.1398  0.2125
10127W        W25596  12.931   1.635  12.363  0.0797  0.1483  0.0092
10128W        W25597   2.509  16.586  14.861 -0.0490 -0.2761 -0.0157
10129W        W25598   8.473   1.634   3.556 -0.0654 -0.0627 -0.1949
10130W        W25599   6.113   7.406   0.883  0.0647  0.0970 -0.2032
10131W        W25600  16.578   4.186  11.467 -0.1015 -0.2375  0.0029
10132W        W25601   8.781   8.981   1.376  0.1594  0.0142 -0.0069
10133W        W25602  14.733   2.689  13.192 -0.3349 -0.1325  0.0221
10134W        W25603   0.460   6.507  13.356  0.1885  0.0833  0.0819
10135W        W25604   7.956  11.197   5.329 -0.0104  0.3050  0.2154
10136W        W25605  11.893   8.390   3.014 -0.1658  0.0095 -0.0689
10137W        W25606   1.554   7.677  14.281  0.5270  0.1446 -0.0695
10138W        W25607   3.683   8.698   3.663 -0.2767 -0.0486 -0.0670
10139W        W25608  16.153   9.735   3.860 -0.0056  0.2943 -0.2550
10140W        W25609   4.453   4.449  11.387  0.1901  0.2892  0.1023
10141W        W25610   1.147   0.509   2.871 -0.2166  0.2282  0.3375
10142W        W25611   8.373  14.728   3.649  0.3833  0.1921  0.1429
10143W        W25612   6.768   6.962   4.347  0.2964  0.0809  0.0406
10144W        W25613   1.751   2.363   3.305  0.3013  0.1491  0.0212
10145W        W25614   9.796   2.804   5.737  0.1570 -0.0964 -0.1328
10146W        W25615   1.040  12.259  12.166 -0.1494  0.0704 -0.0970
10147W        W25616   4.437  11.870   3.842  0.0157  0.1354 -0.3359
10148W        W25617  17.829   7.234   2.773 -0.0753  0.2518  0.1135
10149W        W25618   8.191  12.327   3.211 -0.2403 -0.0923 -0.0264
10150W        W25619  16.624   2.986  11.028  0.1745 -0.1479  0.0275
10151W        W25620   7.633  14.451   1.877  0.0647  0.1987  0.2130
10152W        W25621  13.391   9.795   5.885  0.0796 -0.1122  0.2361
10153W        W25622  11.513  10.586  14.663  0.0161  0.0966 -0.1708
10154W        W25623   6.821   7.376  14.336 -0.1440  0.0870 -0.2131
10155W        W25624  17.916   4.272  13.537 -0.0750 -0.1606 -0.2135
10156W        W25625   8.581  12.219  16.147  0.1628  0.0660  0.0032
10157W        W25626   3.034   0.520  10.919  0.4037  0.2079  0.0776
10158W        W25627  13.297   3.857  15.140 -0.0733  0.0232 -0.0914
10159W        W25628   0.689   4.129   2.486 -0.3938  0.1306 -0.2097
10160W        W25629   7.148  11.030  14.324 -0.0221  0.0851  0.4780
10161W        W25630  17.094   3.455  11.919  0.1899 -0.0797 -0.1324
10162W        W25631   6.978  15.646   1.898  0.2581  0.0873  0.0180
10163W        W25632  16.061   5.350   4.131  0.2734  0.0441 -0.0078
10164W        W25633   3.338   3.913  12.677 -0.0504  0.0253  0.0237
10165W        W25634   9.179   2.699   1.382  0.0152  0.1412  0.0083
10166W        W25635   2.513   0.807   0.224  0.2028  0.1129  0.1933
10167W        W25636   1.654  14.749  15.311 -0.0875  0.1404 -0.3500
10168W        W25637   1.517  15.917   3.599 -0.2832 -0.3777 -0.0699
10169W        W25638  14.561   1.314   1.094  0.2347  0.0053 -0.1246
10170W        W25639   2.714   8.031   4.087 -0.1093 -0.1250 -0.0227
10171W        W25640   6.579  12.178   9.656  0.1311 -0.2153  0.3162
10172W        W25641  14.381  10.386  13.748  0.4077 -0.2945 -0.2191
10173W        W25642  17.204  15.707  13.615  0.2902  0.0993  0.2130
10174W        W25643  16.822  15.396   0.964  0.0177 -0.2186  0.4291
10175W        W25644   1.141   4.397  11.225 -0.2133  0.0535 -0.1540
10176W        W25645  14.793  14.450   4.140  0.0251  0.1914 -0.1928
10177W        W25646  10.760  14.259   2.700 -0.1372 -0.1907  0.0523
10178W        W25647  10.154  15.720  13.268 -0.2755  0.0888  0.1977
10179W        W25648  10.291  14.367  14.838  0.0857  0.0868 -0.1062
10180W        W25649   3.284  11.461   3.067  0.1458  0.2420 -0.1042
10181W        W25650   2.316   8.698   3.986  0.1382  0.3226 -0.0639
10182W        W25651   2.446   2.942   1.931  0.0697 -0.2071 -0.1742
10183W        W25652   6.874   2.593  12.049  0.1321 -0.0446  0.2616
10184W        W25653   6.609  13.602   4.937  0.0119 -0.0882  0.1266
10185W        W25654   5.615   5.499   2.217 -0.0252  0.4011 -0.0327
10186W        W25655   3.779  11.731  16.166  0.3145 -0.0949  0.0000
10187W        W25656   1.081  12.600   4.654 -0.0101 -0.0886  0.2788
10188W        W25657  11.912  11.981  11.486 -0.1253 -0.1239 -0.1668
10189W        W25658   0.750  16.320   0.398 -0.0799 -0.0462  0.0964
10190W        W25659   1.977   7.837  12.314 -0.2583  0.1997 -0.1439
10191W        W25660   8.877   1.381   4.330 -0.0460  0.0488 -0.3180
10192W        W25661  11.918   0.419  15.796  0.1541  0.0411  0.1659
10193W        W25662  15.520  16.639   0.648  0.0260 -0.0456 -0.0522
10194W        W25663   2.483   3.615  12.335  0.0976 -0.2087  0.0941
10195W        W25664   1.664   0.815  12.530  0.0382  0.0418  0.3494
10196W        W25665   9.613   5.094  14.940 -0.1336  0.0502 -0.0009
10197W        W25666   6.460   6.412   3.389  0.0458  0.0586  0.4704
10198W        W25667  10.588   2.114   6.253  0.1565  0.3189 -0.0079
10199W        W25668  11.536  16.032   4.267  0.2685  0.1642 -0.2088
10200W        W25669   5.708  15.254   1.847  0.0974 -0.1195  0.2580
10201W        W25670   7.812   5.600   1.751  0.0602 -0.0610 -0.2128
10202W        W25671  16.879   3.191  11.504 -0.1007  0.0800  0.1515
10203W        W25672  13.600   1.680   4.768  0.0010 -0.1432  0.1324
10204W        W25673   9.060   6.330   3.735 -0.1419  0.0014 -0.0799
10205W        W25674  11.477  11.780  13.929  0.0061  0.1659  0.3281
10206W        W25675  15.038   7.068  16.136 -0.1869  0.1365 -0.3592
10207W        W25676   3.348  14.364   0.994 -0.2018  0.0838  0.0607
10208W        W25677  15.555   7.607   3.891  0.2398 -0.2771  0.0879
10209W        W25678   1.599   4.522  14.599 -0.1847 -0.1515  0.2521
10210W        W25679   9.762   9.425  14.443 -0.1535 -0.1013 -0.2156
10211W        W25680  14.291  13.614   1.260  0.3281  0.0031  0.1609
10212W        W25681  16.757  13.143   1.176  0.0174 -0.2637  0.2432
10213W        W25682  13.636  14.783   4.462 -0.1256  0.0012  0.4403
10214W        W25683   2.373  17.546  15.917 -0.1454  0.3695  0.1291
10215W        W25684  10.930   5.380   5.105 -0.1554 -0.0536 -0.0231
10216W        W25685   9.917  13.745   4.053 -0.1747  0.0650  0.0533
10217W        W25686   0.856  13.413   1.624  0.0308 -0.1524  0.0240
10218W        W25687   4.484   4.148   1.892 -0.1543  0.0185  0.0911
10219W        W25688  13.704   3.538   2.534 -0.1144 -0.0545 -0.1824
10220W        W25689  14.989   5.479   0.624  0.1329 -0.2336  0.1100
10221W        W25690   4.395  10.213  14.439  0.1337 -0.1408  0.0432
10222W        W25691   0.010   6.491  14.841 -0.1058 -0.0070  0.0325
10223W        W25692  13.242  11.244   4.509 -0.0667 -0.0930 -0.1066
10224W        W25693   4.670  10.316  10.412 -0.0869 -0.2913 -0.0940
10225W        W25694   6.230   5.862  12.952 -0.2421 -0.1425  0.1269
10226W        W25695  10.944   3.700  14.304  0.1561 -0.1259  0.1291
10227W        W25696  17.596   9.602  13.092  0.1276  0.0416 -0.0319
10228W        W25697   3.020  17.478  11.512  0.0453  0.1221  0.2170
10229W        W25698   1.404  17.931  14.506 -0.3064 -0.0340 -0.2681
10230W        W25699  10.007   6.817  13.489  0.1163  0.0578 -0.1663
10231W        W25700  16.182  15.048   3.110 -0.1277 -0.1619 -0.0779
10232W        W25701   1.466   6.434  16.004  0.0169 -0.0292  0.1612
10233W        W25702  14.361   5.893   0.248  0.2176 -0.2484  0.0109
10234W        W25703   6.733  14.093   4.920 -0.1359  0.0495 -0.0166
10235W        W25704  12.869   3.279   4.488  0.2151  0.2423 -0.0313
10236W        W25705  16.955   0.252  16.003 -0.1841  0.1517  0.1777
10237W        W25706   1.884  11.282  13.018  0.0405  0.0686 -0.2297
10238W        W25707   0.603  15.714   2.552  0.0169  0.1421  0.0721
10239W        W25708   7.368  13.249   0.225 -0.4309  0.2352  0.3902
10240W        W25709   0.708  11.139  13.459 -0.2163 -0.3507 -0.4440
10241W        W25710   4.590  13.618   1.499 -0.1002  0.0400 -0.3913
10242W        W25711  12.773   6.919   5.700  0.0107  0.2787  0.0148
10243W        W25712  16.348  14.126  14.896 -0.0188 -0.0969 -0.0659
10244W        W25713   6.020  13.222  12.197  0.2642  0.0033 -0.0558
10245W        W25714   4.783  10.334  11.766 -0.3380 -0.4079  0.0600
10246W        W25715  17.792  14.275   3.368  0.1594  0.4812 -0.1379
10247W        W25716  11.848   8.717  15.752 -0.2213 -0.1086  0.0858
10248W        W25717   3.726   4.605   1.455 -0.1580  0.0688 -0.0027
10249W        W25718  17.799  11.903  16.107  0.2159  0.3538  0.1097
10250W        W25719  10.361  15.335  14.626  0.2995 -0.2747 -0.0505
10251W        W25720  10.501   0.925   2.352  0.0292  0.1701 -0.0279
10252W        W25721  15.344   8.794   0.443 -0.0128 -0.0944  0.0967
10253W        W25722  11.360   0.675   1.855  0.2412 -0.1016  0.0249
10254W        W25723   0.363  15.529  14.025  0.0606  0.2932  0.0292
10255W        W25724   9.296  13.904   3.111 -0.1534  0.3358 -0.0165
10256W        W25725  14.608  11.487  11.320  0.1063  0.1653 -0.1609
10257W        W25726  11.747  12.426  11.267  0.0513 -0.1108 -0.2584
10258W        W25727  16.818   7.043  12.126 -0.2506  0.2022  0.1169
10259W        W25728  11.982  11.388  15.153  0.1251  0.2582 -0.0485
10260W        W25729  17.268  10.438  14.573 -0.1327 -0.3134 -0.0613
10261W        W25730   8.950  16.354  13.574 -0.0193  0.1628  0.2581
10262W        W25731   7.912   5.219   5.934  0.0702 -0.1887  0.3692
10263W        W25732   0.329  11.315  16.112  0.1909  0.2358 -0.0347
10264W        W25733   8.285   2.856   5.261 -0.0013  0.0762  0.0936
10265W        W25734  17.883  12.912  15.881 -0.1265  0.1226 -0.0302
10266W        W25735  15.423  15.747  11.688 -0.0939 -0.1067  0.0381
10267W        W25736   1.701  13.861  11.794  0.1032  0.3330 -0.1667
10268W        W25737  10.372   7.282   1.232 -0.2015  0.0528 -0.3968
10269W        W25738   4.330  13.136  12.285  0.1258  0.0756 -0.0647
10270W        W25739   9.930   2.838   4.935  0.0416  0.2485 -0.3816
10271W        W25740  14.335  13.141   2.375  0.1415 -0.1047 -0.0961
10272W        W25741  16.921   2.864   3.049 -0.0003  0.0883 -0.1008
10273W        W25742   0.021   3.937  13.861 -0.0095 -0.0418  0.0129
10274W        W25743   4.503  12.661  13.893  0.3187 -0.0910  0.1909
10275W        W25744  14.088  16.490  12.377  0.2135 -0.0700 -0.1621
10276W        W25745  13.647   8.431  13.762  0.1341  0.0685 -0.2827
10277W        W25746   4.905  13.532  11.122  0.1038  0.0776 -0.4185
10278W        W25747   0.169  14.086  16.023  0.1088 -0.4389  0.4848
10279W        W25748   5.269   0.741   4.506  0.2353 -0.0495  0.1411
10280W        W25749  11.126   4.782   1.392  0.0122  0.0962 -0.0995
10281W        W25750  16.971   6.728  12.950  0.0884  0.3620 -0.2663
10282W        W25751  16.577  12.226  15.212  0.0198  0.0855  0.0672
10283W        W25752   3.443   3.009  11.062  0.0115  0.0944 -0.0226
10284W        W25753   6.893   5.119  15.231  0.0221  0.0288  0.1013
10285W        W25754  17.398   9.595   4.660  0.1021 -0.2011 -0.0832
10286W        W25755  18.077   0.014   2.075  0.0289  0.1999  0.1675
10287W        W25756   3.605  14.712   4.190  0.3989 -0.2090 -0.0499
10288W        W25757   2.930   8.888  12.972 -0.3791  0.1026 -0.2645
10289W        W25758  13.327   2.762   1.920  0.1738 -0.0281  0.0387
10290W        W25759   2.289  17.575   3.238  0.2177  0.2318 -0.0533
10291W        W25760   4.711   2.439   5.119  0.0382  0.0229  0.0783
10292W        W25761  13.907  16.338  13.370  0.2027 -0.1141  0.1141
10293W        W25762   2.240  14.913  15.756 -0.0075 -0.0205  0.0470
10294W        W25763  12.931   5.296   0.490 -0.0336 -0.0144 -0.0564
10295W        W25764   5.027  15.976   0.534 -0.0842  0.1765  0.2385
10296W        W25765   4.979  13.500   4.537  0.2289  0.0002 -0.0344
10297W        W25766   8.598   5.969   5.480  0.0718  0.0008 -0.0139
10298W        W25767   0.376  16.246  11.641 -0.0243  0.0162 -0.4192
10299W        W25768   3.179  13.528   4.260 -0.0273  0.4353 -0.0282
10300W        W25769   0.419   5.114   2.364  0.2185  0.1561  0.2378
10301W        W25770   1.753   6.953   4.370 -0.2334 -0.0201 -0.2188
10302W        W25771   1.638  17.689  12.512  0.0544 -0.1528 -0.0729
10303W        W25772  17.614   6.321   2.118 -0.0872  0.0055  0.0643
10304W        W25773   7.831   5.293   2.388 -0.1751  0.0968 -0.0837
10305W        W25774  11.765   2.609   1.840 -0.0929 -0.0508 -0.0594
10306W        W25775   1.163  17.024   3.604  0.2268 -0.1492 -0.3111
10307W        W25776  17.855  16.193  12.186 -0.3496  0.3489 -0.1459
10308W        W25777   0.779   5.602  14.618  0.0291  0.3660  0.4817
10309W        W25778  12.718  14.434   1.722 -0.3129  0.3774  0.0735
10310W        W25779   2.402   6.872   1.696  0.0039  0.0010  0.1649
10311W        W25780   6.213  10.303  15.964 -0.0040  0.0642  0.1633
10312W        W25781  13.394   8.222   1.160 -0.1891 -0.2597 -0.0447
10313W        W25782  17.716   8.627   5.217 -0.0054 -0.0203  0.0227
10314W        W25783   0.677   8.979  13.918  0.0265  0.0379  0.1076
10315W        W25784   8.549  14.808  12.020 -0.0878  0.0046 -0.3413
10316W        W25785   4.880  13.048  13.574 -0.2594  0.0468  0.1894
10317W        W25786   2.397   6.415  13.045  0.0833  0.1540 -0.1870
10318W        W25787  11.719   0.363   0.942  0.3923 -0.3742 -0.0366
10319W        W25788   6.582  13.152  12.098  0.0088  0.0962  0.1183
10320W        W25789   4.600  15.570   5.558 -0.0082 -0.3374  0.1345
10321W        W25790  16.111   3.813  13.983 -0.0227 -0.0495 -0.3637
10322W        W25791  15.462   0.038   4.911  0.0758 -0.2609 -0.1558
10323W        W25792  10.450   5.130   0.874  0.1413 -0.2810 -0.2279
10324W        W25793  12.415   0.865   2.006  0.2884 -0.0427  0.0229
10325W        W25794   9.788  17.322  11.817  0.1221  0.4679 -0.0778
10326W        W25795   0.279  10.835  11.108 -0.3438  0.1322  0.1389
10327W        W25796   3.984  17.643  12.680  0.3071 -0.0756  0.2663
10328W        W25797   1.230  12.434  11.429  0.1495 -0.0291 -0.2007
10329W        W25798   1.595   8.597  16.029 -0.0963 -0.2283 -0.1563
10330W        W25799  14.352   7.654   3.028  0.0984 -0.0564  0.1817
10331W        W25800   3.073  17.583  12.952 -0.1238  0.0318 -0.2127
10332W        W25801  12.596   7.960  15.655 -0.2300 -0.0268 -0.2710
10333W        W25802   4.073   8.277  14.444  0.0017 -0.1299 -0.1035
10334W        W25803  13.034  11.130   3.950  0.2318 -0.1701  0.0893
10335W        W25804   0.194  16.690  13.275  0.0193 -0.3405  0.0012
10336W        W25805  12.385   7.281  12.552  0.1367  0.2160 -0.1249
10337W        W25806   8.674   6.794   1.126  0.0210  0.0870  0.1466
10338W        W25807   4.430   7.258   2.786 -0.1325 -0.0205 -0.1900
10339W        W25808   4.638  17.618   5.062  0.0193  0.2802 -0.1599
10340W        W25809   0.490   2.391   0.440 -0.0092  0.1625  0.1084
10341W        W25810   9.512  14.750  13.399  0.1577  0.2467 -0.2669
10342W        W25811   7.575   0.246  13.442  0.4666  0.0942 -0.1449
10343W        W25812   1.874  13.059   0.619  0.2194  0.2453  0.3510
10344W        W25813  15.596   3.169  12.870  0.1665  0.1682 -0.0948
10345W        W25814   3.411   6.774   0.562 -0.0776 -0.3057  0.2205
10346W        W25815   3.527   6.756  14.760 -0.2757  0.2131  0.1868
10347W        W25816  12.539   5.477  14.580  0.1222 -0.1972  0.1963
10348W        W25817   2.642  16.624  15.358  0.1359 -0.0342 -0.0463
10349W        W25818  10.163   8.562   5.226 -0.1792  0.1016 -0.0926
10350W        W25819  17.698   2.108   0.353 -0.0126  0.1436  0.0369
10351W        W25820   9.785  16.945  12.205 -0.0602  0.0308 -0.2661
10352W        W25821  12.204  15.890  14.326  0.1412 -0.1336  0.1415
10353W        W25822  13.443   1.556  14.021  0.1159  0.0549  0.0648
10354W        W25823  13.262  13.403   4.219  0.1583  0.2312 -0.2884
10355W        W25824   0.589   9.423   0.962 -0.1632  0.0997 -0.0826
10356W        W25825   3.061  12.607  13.910  0.0659 -0.1146  0.1535
10357W        W25826  14.449  14.692   0.288  0.2280 -0.0612  0.1014
10358W        W25827   6.790   0.229  15.528 -0.4142  0.0932 -0.0571
10359W        W25828   2.407  10.145   3.598  0.1580 -0.0325  0.2111
10360W        W25829  12.524   6.268  15.111 -0.1697  0.0577  0.1147
10361W        W25830   0.215   2.081  14.488  0.0164  0.0941 -0.3364
10362W        W25831   7.909  17.362  11.749 -0.2550 -0.0070 -0.4244
10363W        W25832   4.224   2.268  13.798  0.1594 -0.1415  0.0294
10364W        W25833  16.886   4.912   2.568 -0.1656 -0.0701 -0.0975
10365W        W25834  13.331   3.608  15.989  0.1367 -0.1020  0.0447
10366W        W25835  10.878  11.956   5.219 -0.1149 -0.1522 -0.2219
10367W        W25836   8.440   6.855  12.876 -0.2324  0.0241  0.2097
10368W        W25837   5.367   8.885   2.451  0.0714 -0.1357  0.2721
10369W        W25838   6.544   7.730   2.844  0.1634 -0.0126  0.2247
10370W        W25839   1.653   4.064   1.145  0.1164 -0.0936  0.0985
10371W        W25840  14.713   9.838  13.896 -0.2368  0.0360  0.2738
10372W        W25841  13.098   7.916   2.957 -0.0816 -0.0908 -0.1031
10373W        W25842   7.757  16.944  10.324 -0.0287 -0.0542  0.0493
10374W        W25843  15.764   0.556   3.294 -0.2577 -0.4508 -0.3167
10375W        W25844   6.130   4.599  14.083  0.0070  0.2736 -0.3584
10376W        W25845  15.253  14.169  12.420  0.1431  0.2399 -0.0691
10377W        W25846   6.406  16.523  12.176  0.3681 -0.0101  0.0131
10378W        W25847   3.731   5.845   0.626 -0.0323 -0.1705 -0.0566
10379W        W25848   7.027   4.137   4.962 -0.1671  0.1045  0.0526
10380W        W25849  17.896  10.308   4.490 -0.3574 -0.1570  0.2096
10381W        W25850   4.987   6.626   4.762  0.1951  0.2479 -0.2168
10382W        W25851   4.771   6.691  12.326  0.0381  0.0937  0.2814
10383W        W25852   8.149  17.394   2.273 -0.3156  0.1169 -0.0794
10384W        W25853  10.119   5.787   3.988 -0.1280 -0.1011  0.1615
10385W        W25854  14.843   6.195   4.682 -0.0556 -0.0460 -0.1103
10386W        W25855   4.245  15.801   3.628 -0.2761  0.1746  0.0273
10387W        W25856  10.682   8.935   0.784  0.2480 -0.0211 -0.1390
10388W        W25857   3.523  14.053   3.554  0.3498 -0.1169  0.2156
10389W        W25858  15.568  11.131  15.785 -0.0484  0.0876  0.0401
10390W        W25859  12.359  11.730  12.540 -0.3162  0.2652  0.2186
10391W        W25860  14.254   6.941   4.464  0.1363  0.4561 -0.1236
10392W        W25861  16.486  13.053   4.098 -0.1889  0.0293 -0.0121
10393W        W25862  17.686   3.091   5.105  0.0307 -0.1187 -0.0339
10394W        W25863   0.016   3.378  11.069  0.2017  0.0794  0.1889
10395W        W25864   9.033  11.158  11.870  0.1339  0.2379  0.0885
10396W        W25865   9.194  13.746   2.551 -0.0397  0.1163  0.4487
10397W        W25866  10.505   1.581  15.153  0.1763 -0.1273  0.1007
10398W        W25867  11.804   4.657   1.781  0.1551  0.3360 -0.0282
10399W        W25868   3.155  10.119  16.010 -0.1857  0.0096 -0.1860
10400W        W25869   8.456  18.033  12.736  0.1765  0.0518  0.1098
10401W        W25870  13.281   5.606   0.303 -0.2606  0.3599  0.1530
10402W        W25871  17.788   1.842   2.396  0.1200  0.0254  0.1481
10403W        W25872   5.186   8.113  10.961 -0.1805  0.0801 -0.0067
10404W        W25873  13.567   8.853   0.217 -0.1021  0.1593  0.0301
10405W        W25874  10.907   1.640   2.017  0.0427 -0.1794 -0.1630
10406W        W25875  16.315  17.675  15.820 -0.1898 -0.2576  0.2048
10407W        W25876   4.529   4.808   5.741  0.2089  0.1821  0.0439
10408W        W25877   1.416  13.645   2.212 -0.2564 -0.0124 -0.1885
10409W        W25878  17.250  10.691  16.146  0.1142  0.4594 -0.2818
10410W        W25879  12.143  16.361  11.481  0.1694 -0.2314  0.1194
10411W        W25880  10.789   5.413  12.719 -0.2368 -0.0050  0.1015
10412W        W25881   5.467   2.237  13.292 -0.1416 -0.0713  0.0282
10413W        W25882   6.061  10.493  10.071 -0.0779  0.3071  0.0574
10414W        W25883   9.255   8.835  12.205 -0.0632 -0.0008  0.1362
10415W        W25884   1.691   0.974  15.407  0.0668 -0.0982 -0.0570
10416W        W25885   0.120   5.047  13.938 -0.1387  0.0198  0.3418
10417W        W25886  17.389  10.292  13.343  0.1996  0.1782 -0.2865
10418W        W25887   7.420  16.063  11.239  0.1430 -0.0248  0.2403
10419W        W25888   6.966   5.869   0.295  0.0483  0.0600  0.0031
10420W        W25889  16.027   4.487  14.724  0.1685 -0.1146 -0.0680
10421W        W25890   4.940   2.137   2.790  0.0742  0.2887  0.0410
10422W        W25891   0.169  13.749  15.551  0.0292 -0.0962  0.0507
10423W        W25892   5.221   7.027  12.210 -0.0169 -0.1893  0.0545
10424W        W25893  13.859  12.713   1.038 -0.1249 -0.1518  0.1114
10425W        W25894  10.865  13.009  13.490 -0.2201 -0.2809 -0.0164
10426W        W25895   2.562   0.748   5.128 -0.0298 -0.1886  0.0655
10427W        W25896  12.594  17.445   3.470 -0.0553  0.0798  0.1601
10428W        W25897  17.677  14.979   4.039  0.1815 -0.4397 -0.1628
10429W        W25898   1.116  10.383  12.438  0.2107 -0.0146  0.1138
10430W        W25899  15.130   7.835  11.234  0.0536  0.2245 -0.0361
10431W        W25900   0.236   9.925  16.220 -0.2173  0.1049 -0.3383
10432W        W25901   8.808   3.711  11.655 -0.0722  0.1571  0.2092
10433W        W25902  16.968  17.171  11.591  0.2175  0.2076 -0.1820
10434W        W25903   6.456   3.014  13.433 -0.3785  0.0193  0.0460
10435W        W25904   7.782   6.127   0.517 -0.2449  0.0534  0.1794
10436W        W25905  11.343  15.067   2.441 -0.1307 -0.2246  0.1885
10437W        W25906  15.466   5.345  12.599  0.1184 -0.0468 -0.2650
10438W        W25907   0.854   2.389   4.108  0.0262 -0.1100  0.0996
10439W        W25908   9.074  10.821  15.120  0.0996 -0.0259 -0.4690
10440W        W25909   9.602   6.773  11.593  0.1459  0.1547 -0.0869
10441W        W25910  10.080  12.378   2.103 -0.1325 -0.3182  0.0290
10442W        W25911   0.640   5.328   1.980  0.2723 -0.4818 -0.0053
10443W        W25912   4.278   1.611  12.584 -0.1164  0.1033 -0.0798
10444W        W25913   4.337   8.538  11.971  0.1757 -0.0819  0.1889
10445W        W25914   1.109  13.393   3.969  0.4487  0.2069 -0.1199
10446W        W25915   8.430  15.256  11.823 -0.1525 -0.2490 -0.1090
10447W        W25916   0.857   2.748   0.402 -0.1176 -0.0632 -0.1995
10448W        W25917   9.972  13.559   1.455  0.0046 -0.1167  0.3442
10449W        W25918   4.826  16.767   3.249  0.1607  0.0063 -0.2214
10450W        W25919  17.525   7.220   5.377  0.0621  0.0084 -0.2790
10451W        W25920   3.178   9.939   1.623  0.1722 -0.0565  0.0450
10452W        W25921   6.714   8.302  14.381  0.2720  0.1192  0.5765
10453W        W25922   5.730  17.491  16.026 -0.0683  0.0539  0.0915
10454W        W25923   0.285  16.848  15.162  0.1491  0.1636 -0.0714
10455W        W25924  15.893  13.568   2.002  0.2365  0.0224 -0.0123
10456W        W25925   3.323  10.018  13.520 -0.1258 -0.0385  0.2571
10457W        W25926  15.271  16.792   2.905 -0.1607 -0.0968 -0.1242
10458W        W25927   9.113   3.281   6.285  0.0424 -0.0912 -0.2955
10459W        W25928   2.963   5.711  14.737  0.1741 -0.3179  0.0552
10460W        W25929   2.876  11.630  15.990  0.2800  0.1580 -0.2884
10461W        W25930   5.763   0.492  15.578 -0.0673 -0.2079  0.2451
10462W        W25931  16.569  11.251  16.037 -0.0312  0.1391 -0.0736
10463W        W25932   0.672   9.330   2.016  0.2358 -0.1296  0.1604
10464W        W25933  15.407   1.781   4.509 -0.0486  0.1599  0.0481
10465W        W25934   5.095  17.652  13.516 -0.0922 -0.2728  0.3105
10466W        W25935  12.639  13.206   0.622  0.0008  0.0346  0.1164
10467W        W25936  13.340  12.632  15.094 -0.0154 -0.1312  0.1027
10468W        W25937  17.885   2.212  12.449 -0.1010 -0.1149 -0.4366
10469W        W25938  13.074   6.250  12.182  0.0971  0.0249 -0.1499
10470W        W25939   2.100  12.492  13.800 -0.1838 -0.4128 -0.0137
10471W        W25940  10.758   2.647   3.056  0.1721  0.1433 -0.0322
10472W        W25941   0.302  13.302  15.432 -0.0538  0.1168 -0.0639
10473W        W25942   4.920   0.903   0.136 -0.3279 -0.0636  0.0597
10474W        W25943   7.872   1.398   1.214 -0.1184  0.1430 -0.0809
10475W        W25944   0.686  13.675  15.296 -0.1590  0.2125  0.0586
10476W        W25945  15.152   0.033  14.290  0.2020  0.0218  0.2366
10477W        W25946   0.782   6.398   2.004 -0.2528  0.3112 -0.1238
10478W        W25947   9.618  13.696   0.597 -0.2706 -0.2562 -0.2962
10479W        W25948  17.634   8.617   2.651 -0.1213 -0.0483 -0.3251
10480W        W25949  15.298  15.786   2.871 -0.0077 -0.0606 -0.2268
10481W        W25950  14.021  18.080   0.636  0.3144 -0.0772  0.0412
10482W        W25951   2.519  11.610  14.743 -0.0678 -0.1457 -0.3522
10483W        W25952  14.156  15.121   0.227 -0.0132 -0.1101 -0.0539
10484W        W25953  11.891   6.620  11.856  0.2271 -0.0957 -0.2313
10485W        W25954  15.364  10.740  11.595  0.0390 -0.1266 -0.3810
10486W        W25955  15.381   4.516   6.693  0.3467  0.1219 -0.3845
10487W        W25956  11.637   1.652   6.097 -0.1927 -0.0176 -0.1947
10488W        W25957  11.785   6.576   6.111 -0.3540 -0.1433  0.1613
10489W        W25958   2.006   6.610  12.906  0.3307 -0.0923  0.2574
10490W        W25959   1.209   7.871  15.266  0.1227  0.0600 -0.0767
10491W        W25960   8.457   2.915  13.073 -0.2361  0.1454  0.2915
10492W        W25961  11.753  12.299   0.490 -0.2306 -0.0801 -0.0447
10493W        W25962  16.045   2.127  15.937  0.2224 -0.2079  0.0896
10494W        W25963  17.471   9.496   5.565  0.2428 -0.1891  0.2303
10495W        W25964   4.328   3.638  12.506 -0.3178  0.0478  0.0644
10496W        W25965  13.312  17.810   1.294  0.1490  0.0723  0.3729
10497W        W25966  12.206  13.048   0.444 -0.1290  0.1553  0.1210
10498W        W25967  15.868   4.392  15.876 -0.1129 -0.2575  0.1149
10499W        W25968   9.146  14.240  14.868  0.0205 -0.0954  0.4384
10500W        W25969  15.106   2.849   5.488 -0.0187 -0.0100 -0.2142
10501W        W25970  14.846  10.090   4.025  0.2655  0.0789 -0.1966
10502W        W25971  11.123  15.964   5.106  0.2058  0.2567  0.1309
10503W        W25972  15.672   7.723   1.079  0.0622 -0.2601 -0.1746
10504W        W25973  11.893   4.711   0.391  0.1070  0.1330  0.1269
10505W        W25974  17.688   9.271   3.507 -0.0455 -0.3074  0.1193
10506W        W25975  12.688  15.026   2.389 -0.1282  0.0389  0.0013
10507W        W25976  11.758   9.858   1.712  0.2318  0.0419 -0.1755
10508W        W25977   8.190   0.058   5.051 -0.1103 -0.0404  0.0455
10509W        W25978   5.102  15.592  12.593 -0.1533 -0.1990  0.2152
10510W        W25979   1.859   6.165  15.982 -0.0182 -0.0869 -0.0498
10511W        W25980   5.682   5.508   5.873  0.1861  0.1525 -0.2781
10512W        W25981   7.157  10.814  15.828 -0.0145  0.0388  0.0169
10513W        W25982  15.541   6.333  11.720 -0.0850 -0.0425  0.1688
10514W        W25983  13.452   4.060  13.039 -0.1451  0.0288  0.2538
10515W        W25984   8.352   2.407   3.384  0.0768 -0.0047 -0.1095
10516W        W25985  15.332   8.175  14.133 -0.0279  0.0106  0.1820
10517W        W25986  11.747   5.809   5.631  0.2349 -0.0920 -0.0500
10518W        W25987   7.598  11.564  13.639  0.2385  0.1824 -0.2692
10519W        W25988  11.666   1.359  11.417  0.1137 -0.0574 -0.0971
10520W        W25989   2.386   0.303   2.880  0.0163  0.1375 -0.0942
10521W        W25990  13.807   7.411   0.842  0.0808 -0.0623  0.1464
10522W        W25991   0.783   7.251  13.877 -0.1763 -0.0758 -0.2313
10523W        W25992  14.309  13.586  14.480 -0.0629 -0.3387  0.2785
10524W        W25993   1.064  15.635   1.763  0.3230  0.0844  0.1985
10525W        W25994   3.644   6.091  15.433 -0.2738  0.0994  0.1992
10526W        W25995   6.739   4.751   4.630  0.0613 -0.2848  0.1514
10527W        W25996   5.739  13.614  10.952 -0.0707  0.2719  0.0361
10528W        W25997  17.379   7.312   1.030  0.1781  0.0688  0.1265
10529W        W25998  14.538   4.219  14.297  0.0450 -0.0608 -0.0972
10530W        W25999   6.365   6.530  15.216 -0.0357 -0.1269 -0.3125
10531W        W26000   2.555  10.050  14.238  0.0614  0.0008  0.2861
10532W        W26001  14.418  13.461   5.159 -0.2167 -0.2127  0.0876
10533W        W26002  16.159   2.539   4.598  0.0318  0.0454  0.1378
10534W        W26003  17.243   8.696  14.594  0.1893 -0.2118 -0.0366
10535W        W26004   9.109   2.920  14.769 -0.0997  0.1969 -0.0141
10536W        W26005  11.088   4.951   2.110  0.0342 -0.1760  0.2393
10537W        W26006  14.717   2.015  10.622 -0.0077  0.1111 -0.1724
10538W        W26007  11.134   0.781  16.183  0.0816 -0.1578 -0.0404
10539W        W26008   9.660   8.719   3.170  0.0001 -0.1426 -0.0710
10540W        W26009  11.691  17.893   5.737 -0.2083  0.0181 -0.0408
10541W        W26010   5.065   2.388  12.561  0.1024  0.0902 -0.2343
10542W        W26011   3.468  14.000   0.228 -0.1096  0.1228 -0.0499
10543W        W26012   2.255   0.753   3.609 -0.0268  0.3911  0.0664
10544W        W26013   4.172  15.625   4.251 -0.0769  0.0126  0.1219
10545W        W26014  15.242   0.340   2.067  0.2439 -0.1548 -0.0193
10546W        W26015   1.055  12.353  14.216  0.0161 -0.1749  0.0476
10547W        W26016   5.452   9.743  12.440 -0.0309  0.1170  0.1147
10548W        W26017  11.058   2.760  16.122  0.1346  0.0319  0.2085
10549W        W26018   4.645  11.302  13.486 -0.0842  0.1734 -0.0942
10550W        W26019  13.285  16.617  14.718  0.0525 -0.1333  0.2115
10551W        W26020   3.301  13.109  13.774 -0.0883  0.1835  0.0253
10552W        W26021   2.397   6.779  11.277 -0.0635 -0.0317  0.3436
10553W        W26022  11.106  17.562  15.092 -0.0236 -0.0571  0.1472
10554W        W26023   5.677   1.414   2.978  0.0833  0.2373 -0.0847
10555W        W26024   1.411  11.495  16.280 -0.0520 -0.1505  0.0751
10556W        W26025  15.163  13.679   5.809 -0.4251 -0.1008 -0.1251
10557W        W26026   4.461  11.352  15.451 -0.2692  0.2242  0.1386
10558W        W26027   1.644  14.235   2.557 -0.1972  0.0944 -0.0146
10559W        W26028   9.418  17.783   4.983  0.0694  0.1854  0.0865
10560W        W26029  14.382  14.174   0.278 -0.1539 -0.2909  0.4719
10561W        W26030   2.692   6.192  12.025 -0.2614  0.0605  0.1498
10562W        W26031  17.695  12.640   1.626  0.4719  0.2035 -0.2311
10563W        W26032  17.716   7.356   3.765 -0.0609  0.0928  0.1347
10564W        W26033  12.575  13.678   0.354  0.1475 -0.0900 -0.3100
10565W        W26034  16.728  13.215   2.087 -0.4108  0.1680  0.2610
10566W        W26035   4.399  15.154   1.637  0.2150 -0.0189 -0.0787
10567W        W26036   1.528  16.333   4.867 -0.1742  0.1526  0.2404
10568W        W26037  12.839   3.728   0.509 -0.0648 -0.2323  0.1970
10569W        W26038   6.484  12.312   1.216 -0.1121  0.1110 -0.1079
10570W        W26039   8.074   8.262   1.656  0.0506 -0.3428  0.1277
10571W        W26040   8.997  17.163   0.300 -0.1540  0.0768 -0.1505
10572W        W26041   1.848   7.040  10.567  0.0462 -0.2098 -0.2611
10573W        W26042   8.158   5.930   3.060 -0.1711 -0.2798 -0.0763
10574W        W26043   6.838  16.555  12.556  0.0463 -0.0276  0.3913
10575W        W26044   3.463  16.016  12.991 -0.0916  0.0373  0.0914
10576W        W26045   4.807  15.640   1.864  0.2215  0.2359  0.2228
10577W        W26046   0.155   5.958  16.306  0.2018  0.0606 -0.1563
10578W        W26047   7.037  12.865   4.123 -0.2041  0.2071 -0.1637
10579W        W26048  13.224   2.400  14.815  0.0059 -0.0390 -0.1944
10580W        W26049   7.963   3.637   3.270 -0.1156  0.2422 -0.0537
10581W        W26050  15.696   8.289   1.123  0.2316 -0.0010 -0.1515
10582W        W26051   5.231   3.317  12.737  0.1264  0.2842  0.1537
10583W        W26052   7.468   1.679   2.834 -0.1187 -0.0976  0.2019
10584W        W26053  11.243  15.880  12.350  0.0515  0.2161 -0.0312
10585W        W26054  15.264   4.167   0.016  0.0028 -0.0201  0.1574
10586W        W26055  14.732  14.973  10.931  0.0001 -0.0640  0.2640
10587W        W26056   0.898  17.179   3.996  0.2173  0.2223 -0.3674
10588W        W26057  12.632   7.206  11.989 -0.1433  0.2340  0.0145
10589W        W26058   4.388   7.160   0.091 -0.1474  0.0389 -0.2804
10590W        W26059  14.862   4.337  14.997 -0.0369  0.0384  0.2584
10591W        W26060   7.407   9.614  12.332  0.0955 -0.3038  0.0195
10592W        W26061  13.688   8.877   5.117 -0.0667  0.3669  0.1477
10593W        W26062   8.935   1.781   5.669  0.2075 -0.2055 -0.1740
10594W        W26063   6.259   2.664  13.726  0.1733 -0.0340  0.1014
10595W        W26064  15.628  11.582   1.465 -0.0760 -0.0009 -0.4776
10596W        W26065   9.267  16.970  10.577  0.0058 -0.0412 -0.3355
10597W        W26066   4.025   4.665   4.471  0.2411 -0.1971 -0.0537
10598W        W26067  15.254  14.698   4.263 -0.0915  0.0874  0.0778
10599W        W26068   4.059  14.867  15.717 -0.2454  0.3108  0.1058
10600W        W26069  11.400  12.826  10.547 -0.1184 -0.1956 -0.0861
10601W        W26070   9.980   0.193   2.573  0.1664 -0.0075 -0.0337
10602W        W26071   2.880   4.514   1.426 -0.0847  0.1790  0.0568
10603W        W26072  15.127  13.973   4.876 -0.3766  0.1176  0.1263
10604W        W26073  15.430   4.610   1.300 -0.2420  0.0864  0.0709
10605W        W26074   2.440  13.959   0.418 -0.3017  0.2285  0.1057
10606W        W26075  16.021   2.997   2.913  0.1616 -0.0510  0.3082
10607W        W26076  12.263  14.546  14.614 -0.1529 -0.2996 -0.0843
10608W        W26077   5.121   6.052  14.379 -0.0365  0.2644  0.2194
10609W        W26078  18.022  16.228   3.940  0.1377  0.0227  0.2520
10610W        W26079   4.831   1.572  14.788 -0.0196  0.2939 -0.2102
10611W        W26080   8.067   3.261   4.535  0.1520  0.2238  0.2379
10612W        W26081   6.360   0.484  11.587 -0.1520  0.1218 -0.2025
10613W        W26082  10.522   0.643  12.655  0.1292  0.2125  0.2733
10614W        W26083   6.967   5.532  10.634  0.2957  0.2758  0.0033
10615W        W26084  12.073  14.654  15.075  0.1857 -0.0528  0.0156
10616W        W26085  11.683  10.049   4.590  0.0910 -0.1997  0.2776
10617W        W26086  16.442  11.341   3.892  0.2103  0.2324 -0.0298
10618W        W26087   7.010  12.031   1.893  0.0402 -0.3919  0.0098
10619W        W26088   3.799  13.591   4.485  0.1441 -0.0622 -0.1156
10620W        W26089  10.339   8.001  11.496  0.1708  0.0561  0.1327
10621W        W26090   4.817  14.893   1.414  0.1155  0.0463  0.0706
10622W        W26091  15.277   0.659   3.161 -0.0118 -0.0948  0.0301
10623W        W26092   2.257   4.433   1.664  0.0103  0.2446 -0.0552
10624W        W26093  16.172  10.637   5.658  0.0884  0.2053  0.1258
10625W        W26094  17.640   7.116   0.057 -0.0427 -0.0099 -0.0085
10626W        W26095   0.017   1.570   3.789  0.0840  0.3344 -0.2051
10627W        W26096  12.990   5.465  11.133 -0.0729 -0.2997  0.0461
10628W        W26097   6.292  17.570   3.853 -0.1516 -0.0143 -0.1398
10629W        W26098  10.074   8.874   3.359 -0.0087 -0.2267 -0.0275
10630W        W26099   4.867   4.109   3.113 -0.2117  0.1799 -0.0768
10631W        W26100   8.211  17.718  13.111  0.1507 -0.0797  0.0570
10632W        W26101  11.683   0.231  15.041 -0.2137 -0.3506 -0.0938
10633W        W26102   2.910   2.104   1.063 -0.2551  0.0078  0.3682
10634W        W26103   5.244   8.337   3.958  0.3109 -0.0213  0.0345
10635W        W26104  12.804   9.656   2.342  0.1595 -0.2229  0.1053
10636W        W26105   9.351  16.504   5.614  0.2148  0.3897 -0.0810
10637W        W26106   6.205   8.135  13.467 -0.0086 -0.0789 -0.2423
10638W        W26107   2.956  11.047   0.636  0.2350  0.1185 -0.2536
10639W        W26108  11.947  16.304  13.107 -0.1868 -0.1317  0.1503
10640W        W26109   3.803   5.298   5.482  0.2003 -0.0557  0.1400
10641W        W26110   5.670  17.550   5.874  0.0453  0.2888 -0.1500
10642W        W26111  15.197  10.852  12.076 -0.1167 -0.0479 -0.0418
10643W        W26112  11.864   3.559  14.302  0.1998 -0.0656  0.1840
10644W        W26113   9.055  11.159   3.516  0.0161  0.0239 -0.0910
10645W        W26114   3.683  11.907   2.378  0.2335 -0.0209  0.0027
10646W        W26115  13.686   8.611   2.499  0.3622 -0.0010  0.2385
10647W        W26116  15.142  14.281  13.557 -0.0515  0.1167  0.2248
10648W        W26117   3.894   6.288  11.092  0.1414  0.0709 -0.1601
10649W        W26118  16.475   4.908   5.881 -0.0188 -0.1373  0.0027
10650W        W26119  14.072  17.998   0.012 -0.2388 -0.1051 -0.0918
10651W        W26120  17.108   5.740  12.041 -0.0621  0.0378  0.1799
10652W        W26121   4.914  15.348   0.133  0.1877  0.1304 -0.0643
10653W        W26122   6.398   1.908   1.889  0.0683 -0.4445  0.3115
10654W        W26123  10.439   3.133  12.091 -0.0688 -0.1985 -0.2197
10655W        W26124  17.191   2.520   3.347  0.2969 -0.2389  0.0617
10656W        W26125   7.975   0.679   1.494  0.3767 -0.0806  0.1419
10657W        W26126  11.267   0.735  13.240  0.1093  0.0006  0.1170
10658W        W26127  14.535  15.873  13.484 -0.0647  0.0619  0.0629
10659W        W26128  10.495  12.748   1.834  0.0496 -0.0107 -0.0910
10660W        W26129  11.161   1.101  15.102 -0.0824  0.2015 -0.0498
10661W        W26130  14.444  10.403   2.664  0.1658  0.1167  0.0886
10662W        W26131  12.090   9.921  11.581 -0.2254 -0.1679  0.0023
10663W        W26132   5.595  10.643   0.852  0.1939  0.0457  0.0810
10664W        W26133  11.409  17.999  15.989 -0.0383 -0.0116  0.0635
10665W        W26134   7.827  10.329  12.704 -0.0178 -0.0839 -0.0604
10666W        W26135   6.254  10.771  16.084  0.0882 -0.1076 -0.0108
10667W        W26136   6.508  16.019   5.949  0.2114  0.0386  0.0249
10668W        W26137   8.504   4.714   4.580  0.4045  0.1312  0.1601
10669W        W26138   3.602   9.182  12.691 -0.3948  0.0411 -0.2501
10670W        W26139  15.031  16.493  16.211 -0.2114 -0.1696 -0.0030
10671W        W26140   6.004   6.559   3.178 -0.3402 -0.0982 -0.3200
10672W        W26141  13.967  11.183   1.885 -0.1441 -0.1278  0.1249
10673W        W26142  11.123  15.535  11.898 -0.1001  0.3120 -0.2825
10674W        W26143   5.832  16.978   3.433  0.1502  0.1111 -0.0516
10675W        W26144  13.196   2.411   1.447  0.3144 -0.0310 -0.1527
10676W        W26145  16.539  15.575   4.495  0.1516  0.0912 -0.0245
10677W        W26146   9.705   1.844   1.968  0.2094  0.0150  0.1778
10678W        W26147  12.123   7.894  14.017  0.0896 -0.0426  0.0679
10679W        W26148  14.720  12.149   2.872 -0.0319 -0.1758  0.1363
10680W        W26149  12.485  16.202   6.209 -0.0504  0.0161  0.0362
10681W        W26150  14.395   9.745   0.580  0.2559 -0.0039  0.2817
10682W        W26151   3.106  10.615  13.704  0.1926  0.0358 -0.0703
10683W        W26152  16.574  17.010   0.971 -0.1059 -0.1355 -0.1450
10684W        W26153  15.228   7.390  11.118  0.0459 -0.1062  0.3282
10685W        W26154  11.554   1.121   4.439 -0.1901 -0.1622 -0.0466
10686W        W26155   4.867   1.093  13.069 -0.0687  0.0836  0.2753
10687W        W26156  14.564   8.252  15.608  0.1205  0.0506  0.0081
10688W        W26157   7.698   6.959   5.868 -0.1189  0.3232  0.0694
10689W        W26158   2.683   2.681   3.282  0.1014 -0.0719  0.1409
10690W        W26159  14.582   1.509   4.529 -0.1544 -0.1293  0.2278
10691W        W26160  12.605  13.308  15.038  0.1382 -0.1380 -0.0584
10692W        W26161  13.113  14.043  14.307 -0.3245  0.2605  0.0938
10693W        W26162  12.476  16.114  13.806  0.0638  0.3484  0.0736
10694W        W26163  17.018  14.231  14.093 -0.2750  0.2160 -0.1804
10695W        W26164  11.084  16.958   4.189 -0.1381 -0.0842  0.2578
10696W        W26165   7.039   7.249   1.482  0.3982  0.0094  0.1948
10697W        W26166  10.938  14.704   2.372 -0.0051 -0.4135 -0.1462
10698W        W26167  10.871  12.083  13.212 -0.1801  0.0939 -0.0485
10699W        W26168  10.766   8.041  15.182 -0.0932 -0.3059 -0.1089
10700W        W26169  14.900   1.904  14.998  0.2288  0.3248 -0.2574
10701W        W26170  11.130  17.468   2.656  0.1199 -0.0454  0.1093
10702W        W26171   2.228  11.072   3.737  0.1623  0.4473  0.0659
10703W        W26172  13.993  10.154   2.130  0.0282  0.0899 -0.3335
10704W        W26173   1.204   9.378  16.164  0.1284  0.0310 -0.0114
10705W        W26174   5.863   9.342   4.311  0.0861 -0.0688 -0.0034
10706W        W26175  10.759   7.620   1.784 -0.0155 -0.0471 -0.0671
10707W        W26176   8.296   6.469   4.354  0.2284 -0.0623 -0.0445
10708W        W26177   5.487   8.817  14.326 -0.0768 -0.0806  0.1374
10709W        W26178   3.620   3.617  15.546  0.1349  0.1482  0.3042
10710W        W26179  16.384  13.560   4.975  0.0279  0.1905 -0.0592
10711W        W26180   8.619   1.618  11.220 -0.0347 -0.1629  0.0044
10712W        W26181   2.902  14.374  12.055 -0.3585  0.0306  0.5414
10713W        W26182   1.936  10.880   4.576  0.1409  0.0371  0.0570
10714W        W26183  13.485   4.324  14.060 -0.0362  0.1796 -0.1519
10715W        W26184   8.955   8.199  15.367  0.1626 -0.2678 -0.1094
10716W        W26185  17.133   2.425  11.898 -0.1654 -0.2961  0.2702
10717W        W26186   8.841  16.000   1.927  0.3617  0.0592 -0.1474
10718W        W26187   4.432   8.399   3.182  0.1798 -0.0565 -0.2824
10719W        W26188  16.251   2.934  12.255  0.1669 -0.1884 -0.1450
10720W        W26189   6.656  13.285  11.299 -0.0723 -0.0139 -0.1439
10721W        W26190   4.942   6.842  12.921  0.0122  0.1016 -0.3761
10722W        W26191   8.310   3.714   5.773  0.0108 -0.1004 -0.2329
10723W        W26192  15.983   5.567  13.471 -0.1968 -0.2805  0.2071
10724W        W26193   4.882  10.040   0.888  0.1659 -0.0610  0.0732
10725W        W26194   7.026   2.245  13.672  0.4591 -0.1269  0.0297
10726W        W26195   2.169   8.416  10.765  0.3856 -0.1661 -0.0301
10727W        W26196   8.428   1.425  12.480  0.1293 -0.1827 -0.1886
10728W        W26197  15.352  13.391  10.315  0.3629  0.2148  0.0165
10729W        W26198   6.389   4.275  13.262 -0.0537  0.2570 -0.0243
10730W        W26199   6.127   5.436   5.587 -0.1064 -0.0901 -0.1593
10731W        W26200   2.540  10.200   4.968 -0.1085  0.0018  0.2583
10732W        W26201   8.192   4.463   2.753 -0.0426 -0.1834 -0.1590
10733W        W26202  11.677  10.352   3.810  0.0829 -0.3245  0.0915
10734W        W26203  14.872  11.299  15.507  0.1744 -0.0133  0.0048
10735W        W26204   1.898   4.582   4.135  0.2147 -0.1148  0.0210
10736W        W26205  12.650  13.615   6.045  0.1146 -0.1507 -0.1986
10737W        W26206   8.984   9.138  12.493 -0.1463  0.0085 -0.0901
10738W        W26207   1.748   7.267  14.094 -0.1481  0.1099 -0.0084
10739W        W26208  13.349   2.144   4.741  0.0329 -0.0530 -0.1091
10740W        W26209  14.915   6.555   0.716 -0.1247 -0.1101 -0.1745
10741W        W26210   4.453  15.665  15.783  0.2667 -0.2360 -0.2297
10742W        W26211   9.093   0.116  15.828  0.1926  0.0733  0.0102
10743W        W26212  15.997  10.832  15.496 -0.2397  0.0299  0.0155
10744W        W26213  14.054  11.955   3.775  0.3543  0.0535  0.1645
10745W        W26214   2.066   1.522   4.187 -0.0544 -0.1655  0.1079
10746W        W26215   2.866  14.275   3.999 -0.1339  0.0062 -0.2190
10747W        W26216  14.943   4.880   1.204  0.0834 -0.0122  0.0960
10748W        W26217   0.787   6.021  13.326 -0.1637  0.0703  0.2032
10749W        W26218   5.000   7.923   2.731  0.0813 -0.2168 -0.0844
10750W        W26219   6.366   3.342  14.656  0.0012 -0.2001  0.3038
10751W        W26220   6.704  16.426  13.664  0.1923  0.0132  0.0036
10752W        W26221   7.352  10.283  13.632  0.2876 -0.1992 -0.0573
10753W        W26222   1.419   3.793   5.083  0.3388  0.1632  0.3287
10754W        W26223  17.240   4.305   4.944  0.1053  0.1282 -0.1895
10755W        W26224   7.243  11.985  10.905 -0.1294  0.1157  0.1173
10756W        W26225   0.613  13.978   5.070 -0.3357  0.0041  0.0151
10757W        W26226  12.716   3.128   3.863  0.2329  0.0749 -0.0845
10758W        W26227   0.993   8.162   1.468 -0.1342  0.1083  0.1649
10759W        W26228  15.162  17.757  13.067  0.2276  0.0335  0.1072
10760W        W26229   1.232   0.381  14.666  0.0711  0.0089 -0.1177
10761W        W26230   8.458   5.536  13.295 -0.0837 -0.1544  0.3295
10762W        W26231  11.179  16.998   3.544 -0.1096  0.2786 -0.0075
10763W        W26232  15.664  10.766  14.678  0.3301  0.1057  0.3495
10764W        W26233   4.668  13.135  14.092 -0.2087  0.2175 -0.0807
10765W        W26234  17.456   2.295  12.836  0.2577  0.1235 -0.3331
10766W        W26235   9.193  14.527   5.024 -0.0043  0.0962 -0.0866
10767W        W26236  11.957   6.225  14.291  0.1308  0.1144 -0.1505
10768W        W26237   6.397  14.892  14.715 -0.0706  0.0116  0.1264
10769W        W26238  17.306  16.987  16.211  0.0521 -0.1082  0.3297
10770W        W26239   2.332   1.367   2.657  0.0436 -0.3255  0.2430
10771W        W26240   0.204  17.799  15.784 -0.2350 -0.2387  0.2995
10772W        W26241   2.254  11.497  12.628 -0.1978 -0.0152 -0.1774
10773W        W26242   5.938  18.082  10.979  0.3860  0.0867  0.1427
10774W        W26243  15.396  12.467  15.863 -0.2160 -0.0113 -0.1737
10775W        W26244  10.581   8.933   0.243 -0.1722 -0.1118 -0.0162
10776W        W26245  15.550  15.117  15.728  0.0721 -0.2817 -0.1029
10777W        W26246  10.247   2.963   5.810 -0.0610  0.2741  0.0312
10778W        W26247  16.778  16.216  12.938  0.0261 -0.1640 -0.0185
10779W        W26248   4.572  11.866   1.159 -0.2083 -0.0683  0.0480
10780W        W26249   2.011  17.536   2.700 -0.2883  0.0517 -0.3697
10781W        W26250  15.945  11.597   2.402 -0.3732  0.3216 -0.1272
10782W        W26251   2.568   9.498  14.936 -0.2165  0.0427 -0.1061
10783W        W26252   3.258   0.907   1.963  0.3351 -0.1541  0.2265
10784W        W26253   0.770   2.132   3.618 -0.1034  0.0528  0.0892
10785W        W26254  16.418   8.122  14.521 -0.1694  0.0461 -0.0053
10786W        W26255   2.242   3.458   5.615 -0.0004  0.1033 -0.0758
10787W        W26256  17.657   6.104  12.002  0.2014 -0.1704  0.1557
10788W        W26257   2.049   0.329  13.058 -0.0531  0.2697 -0.3534
10789W        W26258  13.916   8.294   5.880 -0.2711  0.2282  0.0841
10790W        W26259   1.279   1.169  15.886  0.4709  0.0799 -0.0694
10791W        W26260   5.705  11.068   6.211 -0.3651 -0.0378 -0.1104
10792W        W26261  17.805   0.964  10.266  0.0273  0.0296  0.5037
10793W        W26262   0.894   2.318   5.956 -0.0292  0.2431  0.0928
10794W        W26263   9.341  17.368  13.551  0.1684 -0.0468 -0.1566
10795W        W26264   7.584   4.438  13.864  0.1296 -0.1308  0.1341
10796W        W26265  13.144   5.823   4.317 -0.3624  0.0309  0.0074
10797W        W26266  17.881   3.361  15.934 -0.0166 -0.1494  0.0536
10798W        W26267  17.542   8.515  16.073 -0.0470 -0.2337 -0.0578
10799W        W26268   9.584  13.033   4.648 -0.0657  0.1368  0.0052
10800W        W26269   6.551   8.238   0.449 -0.2253 -0.0335  0.1380
10801W        W26270   1.039  11.419  11.063  0.0844  0.1614  0.1123
10802W        W26271  10.316   9.050   2.930  0.0442  0.0841 -0.1880
10803W        W26272  13.285  13.424  11.575 -0.3734 -0.1406  0.0188
10804W        W26273  17.298   6.642   1.923 -0.0926 -0.0309 -0.0748
10805W        W26274   2.518   3.111  12.547  0.0625 -0.1465 -0.1535
10806W        W26275   0.444  15.071   0.160  0.3478 -0.1032  0.0686
10807W        W26276  11.437   5.706  12.727 -0.1911 -0.3377  0.0367
10808W        W26277  16.653  11.402  12.596 -0.3224  0.1199 -0.2190
10809W        W26278  12.500   3.079  13.444 -0.3454 -0.2235 -0.0302
10810W        W26279   8.936  16.576  12.159 -0.0636  0.3464 -0.2092
10811W        W26280  11.531  13.578  15.306  0.2220 -0.0101 -0.2959
10812W        W26281   3.660  12.149  15.869  0.0587 -0.0432 -0.3600
10813W        W26282   8.147   9.379   3.653 -0.0746  0.2779 -0.1536
10814W        W26283  12.425   1.678  12.119 -0.1741  0.0016  0.1149
10815W        W26284  16.470   3.869   3.167 -0.2042 -0.0570  0.2511
10816W        W26285  16.666   8.944  12.101 -0.1146 -0.0773  0.0753
10817W        W26286  12.029  10.090   4.188 -0.3557  0.1829 -0.1039
10818W        W26287   2.143  16.856  15.435 -0.1368  0.1317  0.0050
10819W        W26288  10.645   6.115  13.828 -0.0566 -0.0622  0.0114
10820W        W26289  11.833   3.655   3.911 -0.1492  0.2353  0.2206
10821W        W26290   8.157   7.773  11.409  0.1819 -0.1398 -0.0968
10822W        W26291  12.068  15.500  12.386 -0.0733  0.0053 -0.3776
10823W        W26292  13.132   3.430  11.675  0.1762 -0.1055 -0.0932
10824W        W26293   2.490   8.799   1.643  0.0984 -0.1415  0.0126
10825W        W26294  12.370  16.801   1.081 -0.0266  0.2551 -0.1076
10826W        W26295   1.908  14.317  15.261  0.0005 -0.0426  0.0457
10827W        W26296   4.026   2.616  14.203 -0.0892 -0.2247  0.1442
10828W        W26297   1.744   6.120   4.796  0.0174  0.3053  0.1249
10829W        W26298   3.535  12.905   4.578  0.1848  0.1779 -0.1184
10830W        W26299   1.417  16.268   2.141 -0.0146 -0.0821 -0.1318
10831W        W26300  11.163   6.639  11.447  0.3327  0.0988  0.1510
10832W        W26301  12.621   9.642  12.278 -0.1581  0.0672 -0.1854
10833W        W26302   5.850  13.589  11.918  0.0380 -0.1232 -0.0163
10834W        W26303   8.649  14.734  13.731 -0.1274  0.0264 -0.0327
10835W        W26304   4.009   1.327   2.834 -0.1102 -0.0868 -0.0579
10836W        W26305  13.645   2.783   5.797 -0.1641 -0.0884 -0.1841
10837W        W26306   5.116  14.747  12.789  0.2675 -0.1507  0.1196
10838W        W26307   2.230   4.434   3.339 -0.0343 -0.0591  0.1457
10839W        W26308  17.210   2.624  15.899 -0.0578 -0.0096 -0.3893
10840W        W26309  11.618   3.613   5.020 -0.0015  0.2072  0.1004
10841W        W26310  10.545  11.793  13.545  0.1842 -0.1080 -0.0606
10842W        W26311   8.280  10.150   4.823  0.1188 -0.2490 -0.1842
10843W        W26312  16.324   6.036   2.502 -0.1370 -0.0218 -0.2387
10844W        W26313  12.774  17.681   4.229 -0.1441  0.1460 -0.1234
10845W        W26314  16.001   7.786   0.433  0.1106 -0.0985 -0.0234
10846W        W26315   0.944  12.821  15.136 -0.1490 -0.0163  0.2574
10847W        W26316  16.242  10.914  15.035 -0.2786 -0.1190 -0.0579
10848W        W26317  13.593  17.326  14.042 -0.2844 -0.0089  0.4027
10849W        W26318   9.037   7.981   6.487  0.1773 -0.0374 -0.0793
10850W        W26319   9.726  10.460   3.648  0.1539  0.0210  0.0093
10851W        W26320   7.913   3.142  11.724  0.1437  0.0719  0.1457
10852W        W26321   2.953   2.728   2.161  0.0131 -0.3067 -0.1605
10853W        W26322   8.800   0.216  10.555  0.0558 -0.1929 -0.1920
10854W        W26323  11.112  14.321  13.693  0.1046  0.0173  0.0961
10855W        W26324   5.396   9.990  11.285  0.1423  0.1966 -0.1061
10856W        W26325   0.721  14.217  12.098 -0.1595 -0.0589 -0.1250
10857W        W26326   3.846  11.576  15.685 -0.0837 -0.1171  0.0055
10858W        W26327   3.409   9.783   2.994  0.0420  0.1965 -0.2033
10859W        W26328  14.389  14.777  13.070 -0.1617  0.0809  0.0598
10860W        W26329   4.156   3.015  14.901  0.1060 -0.0299 -0.3804
10861W        W26330   0.849   1.550   0.222  0.2560  0.2148  0.1049
10862W        W26331  10.178   9.291  13.479  0.3252 -0.1481 -0.0279
10863W        W26332  13.805   9.181  11.063  0.0731 -0.0632  0.2137
10864W        W26333   4.126   8.255  12.941 -0.1097  0.0009  0.0551
10865W        W26334  15.377  15.381   3.196 -0.2798 -0.1174  0.1169
10866W        W26335  10.359  17.853  16.152  0.0651  0.1353  0.3945
10867W        W26336  13.985   9.055  12.768  0.4472  0.1299  0.0525
10868W        W26337   9.499   9.303  11.544 -0.1938 -0.4692 -0.0157
10869W        W26338   5.922   3.536   5.690  0.1952 -0.0512  0.1230
10870W        W26339  13.647  10.275  15.527 -0.0551  0.1952 -0.0072
10871W        W26340   1.509  10.685   5.723  0.0481 -0.0262 -0.0564
10872W        W26341   0.957   2.037  12.131 -0.1967 -0.2374 -0.1240
10873W        W26342   8.741  16.882  14.351  0.0452 -0.1970 -0.0942
10874W        W26343   1.709   3.470   5.345  0.2212 -0.1687  0.0633
10875W        W26344  10.262  10.762  14.588  0.0240 -0.3283  0.3007
10876W        W26345   3.302   5.073   0.801  0.0037  0.0013  0.2745
10877W        W26346   0.251   6.714   3.384 -0.0428 -0.2112  0.0714
10878W        W26347  14.123   2.693   5.699 -0.1396 -0.0241 -0.2137
10879W        W26348  14.697  12.631   4.616  0.0612 -0.3797 -0.2136
10880W        W26349  12.327  13.098  14.134  0.0011  0.1182  0.2275
10881W        W26350  13.347  15.069   1.558  0.2990 -0.0325 -0.1017
10882W        W26351   1.720  12.994  14.012  0.0358  0.5024 -0.1095
10883W        W26352  15.913   8.384  12.860 -0.1284  0.3037 -0.0806
10884W        W26353   6.910  16.483   3.566 -0.0083 -0.1725  0.0187
10885W        W26354   4.437  11.757  11.481  0.1408 -0.1097 -0.1220
10886W        W26355  13.888  12.264   0.781 -0.0787  0.1491  0.0064
10887W        W26356   3.133  16.653   1.943  0.1811  0.0016 -0.1137
10888W        W26357  14.318   6.804  13.138  0.2679  0.1533  0.0498
10889W        W26358   3.021   6.661  12.394 -0.0135  0.0587 -0.2132
10890W        W26359   0.104   4.256  10.161 -0.0996  0.0368  0.1123
10891W        W26360  13.827   0.387  14.961  0.0342  0.1136 -0.0719
10892W        W26361  17.388  16.867   1.909  0.1500  0.0049  0.1292
10893W        W26362   7.209  14.877  12.138  0.0357  0.2558  0.3129
10894W        W26363  16.440  13.643   3.137 -0.0797 -0.2605 -0.4139
10895W        W26364  16.370  16.967   1.943  0.1795  0.0070  0.0909
10896W        W26365   0.904   7.251  15.803  0.3288  0.0768 -0.0947
10897W        W26366   0.177   6.019   3.624 -0.2291 -0.1990  0.1097
10898W        W26367   5.051  11.350  13.930  0.0126 -0.1447  0.3801
10899W        W26368   8.369   9.483   2.504 -0.1150 -0.0432  0.2107
10900W        W26369  13.669   3.722  12.519 -0.1103  0.0456 -0.1327
10901W        W26370   6.626   2.402  13.990  0.0164  0.1449 -0.1366
10902W        W26371   1.380   2.864  14.812  0.0478 -0.4271 -0.0641
10903W        W26372   6.541   4.747  11.354  0.1574 -0.0949 -0.1124
10904W        W26373  13.056  13.144   1.871  0.2237  0.1128 -0.0013
10905W        W26374  15.084  12.257   1.904  0.0610 -0.1637  0.3329
10906W        W26375  13.039  10.598  14.204 -0.1021  0.1563 -0.1119
10907W        W26376   9.917   6.416   3.344 -0.2034  0.0925  0.0788
10908W        W26377  11.657  17.245   3.293  0.2551 -0.0509 -0.0797
10909W        W26378   2.389   8.563   0.133 -0.0374 -0.0252 -0.3489
10910W        W26379  17.254   0.179  11.686  0.1086  0.2016 -0.0042
10911W        W26380   8.756   5.112  14.607 -0.2734  0.2377  0.0136
10912W        W26381   5.266  11.259  11.304 -0.0401 -0.0444 -0.0301
10913W        W26382  17.818  13.235  11.049  0.1538 -0.2669 -0.0372
10914W        W26383  12.368  12.624   5.269 -0.2559 -0.0029  0.0483
10915W        W26384   7.617   9.678   3.142 -0.1192 -0.1583 -0.2654
10916W        W26385   9.320  12.261   5.624  0.0610 -0.1513  0.0643
10917W        W26386   5.290   1.491  12.371 -0.3197 -0.1198  0.0844
10918W        W26387  16.937   5.141  15.768  0.2106 -0.1662 -0.2339
10919W        W26388  16.428   3.822  15.864  0.0257  0.1007  0.1911
10920W        W26389   4.882  13.429   5.027 -0.0702  0.2129  0.0840
10921W        W26390   9.978  14.631  12.651 -0.2398 -0.0316  0.2769
10922W        W26391  11.993   4.487   3.536 -0.1131  0.0258  0.1368
10923W        W26392   7.541   4.734  15.788  0.0949 -0.0339 -0.0030
10924W        W26393   0.807  11.666   9.932 -0.3096 -0.0827 -0.1323
10925W        W26394  17.260   5.345  11.156 -0.3056  0.3511 -0.0944
10926W        W26395  13.423   3.987  11.088 -0.1151 -0.2052  0.1180
10927W        W26396  14.924  10.480   1.910 -0.3963 -0.2458 -0.1629
10928W        W26397   5.200  12.915  11.498  0.1277 -0.3699  0.1241
10929W        W26398  17.747   8.694  15.655  0.1960  0.0839  0.0125
10930W        W26399   5.221  15.052   0.328  0.2583 -0.2759  0.1420
10931W        W26400  12.203   5.432   4.028 -0.0739  0.0023 -0.0253
10932W        W26401   2.730  13.682  14.042 -0.1995  0.1110  0.1626
10933W        W26402   5.568  10.038  13.744 -0.1356  0.1478 -0.2226
10934W        W26403   7.018  16.767   0.705 -0.0889  0.0645  0.0655
10935W        W26404  12.335   8.342   2.487 -0.1611  0.0677 -0.0024
10936W        W26405   9.322  16.568  15.198 -0.0983 -0.1800  0.0106
10937W        W26406   3.156  11.304  12.085 -0.0309 -0.0331  0.0547
10938W        W26407   6.831   8.514  13.968 -0.0068  0.3678 -0.0553
10939W        W26408   7.957  10.512  16.032 -0.2711 -0.1554 -0.0990
10940W        W26409  15.680  12.380   2.624  0.3092 -0.0479 -0.2238
10941W        W26410   2.657   6.619  13.412 -0.1539 -0.1177  0.0214
10942W        W26411   7.178   1.602  12.764  0.0126 -0.1488 -0.4157
10943W        W26412  10.819  16.249  11.296  0.1591  0.3479 -0.0798
10944W        W26413   8.803  17.107   3.938  0.2772 -0.0226  0.0907
10945W        W26414   9.990  11.978  14.484  0.3857 -0.0518 -0.0509
10946W        W26415   3.936  14.380  12.214 -0.0331  0.1935 -0.1559
10947W        W26416  14.599   3.933   6.779  0.2725  0.0478  0.0491
10948W        W26417   4.532  14.735   2.588  0.1730 -0.3932  0.2233
10949W        W26418  14.194   2.821   4.703  0.0440 -0.1236 -0.0693
10950W        W26419  14.335  10.795   1.225 -0.3506  0.0367  0.2355
10951W        W26420   7.018  16.904   4.318 -0.2726 -0.0436  0.3345
10952W        W26421  16.935  13.698  11.469  0.1190  0.1892 -0.0036
10953W        W26422  11.844  15.584  10.076  0.0730  0.1553 -0.1821
10954W        W26423  10.701  16.826   0.580  0.0270 -0.2195  0.0070
10955W        W26424   2.970  17.102   0.398 -0.1785 -0.0959  0.0929
10956W        W26425   3.180   9.917  13.065  0.0767 -0.0099  0.1765
10957W        W26426  11.719  17.990   3.787  0.1048 -0.1656 -0.1082
10958W        W26427   6.721   2.925  11.678 -0.0501 -0.0703  0.2061
10959W        W26428  15.449   5.740   2.886 -0.2356 -0.0152  0.3436
10960W        W26429   2.546   0.377   4.640 -0.2643  0.5549 -0.1408
10961W        W26430   8.643  14.532   3.259 -0.1557 -0.1791  0.2857
10962W        W26431  15.119   2.764   1.600  0.1221  0.0738 -0.1652
10963W        W26432  11.195   3.513  15.552  0.1230  0.0550 -0.0072
10964W        W26433  11.319  16.034  11.143  0.2538 -0.1001  0.2946
10965W        W26434   5.618  13.091  11.873 -0.0002  0.4441  0.4430
10966W        W26435  16.381  12.300   0.583  0.1844 -0.0201 -0.0874
10967W        W26436  15.122  13.899  14.575 -0.0175 -0.2144  0.1527
10968W        W26437   9.946   3.259   2.446  0.0223 -0.0127  0.2027
10969W        W26438   7.750  10.474   1.438  0.0793 -0.1226 -0.2512
10970W        W26439   1.164   8.006   4.909 -0.3420  0.0030  0.0779
10971W        W26440   9.199  10.295   3.725 -0.0092  0.1007 -0.1438
10972W        W26441  10.596   7.249   4.027  0.0165  0.0382 -0.2695
10973W        W26442   0.341   4.533  15.203 -0.2039 -0.1202 -0.0187
10974W        W26443  12.319  17.564   4.483 -0.2742 -0.0132  0.0860
10975W        W26444  12.540  10.613  12.822 -0.2129  0.1603 -0.0733
10976W        W26445  17.517  16.748  13.948 -0.0863  0.1183 -0.0287
10977W        W26446   8.043   5.657  11.364  0.2458  0.3202  0.1175
10978W        W26447  13.014  16.251  14.422 -0.0472  0.0884  0.1743
10979W        W26448  16.420   0.115   3.878 -0.1956  0.0395 -0.5362
10980W        W26449  15.617   0.740   0.215 -0.0410  0.1009 -0.3642
10981W        W26450   0.963  11.878  10.939  0.3135  0.0499  0.0954
10982W        W26451   6.501  16.182   1.170  0.0441  0.0968 -0.0336
10983W        W26452   3.409   5.314   3.790 -0.2060 -0.0682 -0.4067
10984W        W26453  16.738   0.820   5.545 -0.1065 -0.1975 -0.0874
10985W        W26454   6.413   2.169   5.123  0.1300 -0.0354 -0.0500
10986W        W26455   1.418   7.149   2.494  0.0121 -0.0468 -0.3087
10987W        W26456   5.793  13.558  16.071 -0.0270  0.0570  0.1188
10988W        W26457   0.843   3.841   4.456 -0.2799  0.1028  0.2868
10989W        W26458   8.806  13.076   0.457 -0.0149 -0.1758  0.3064
10990W        W26459  16.207   9.513  14.603  0.0005 -0.1183 -0.0774
10991W        W26460  10.285   7.639   2.530 -0.1728  0.3940 -0.1508
10992W        W26461   3.866   5.234  14.321 -0.1395  0.3231  0.0993
10993W        W26462  18.025  16.785   1.431  0.2463  0.0173  0.1737
10994W        W26463  16.834   8.825  14.951 -0.2134  0.0671  0.2478
10995W        W26464  17.653   6.803  11.151  0.2512 -0.1476 -0.0965
10996W        W26465   6.051  11.858   1.790 -0.2220  0.0089  0.1689
10997W        W26466  15.810   4.664  10.698 -0.3972  0.0291  0.1973
10998W        W26467   6.587  13.151   1.085  0.0237 -0.0773 -0.0340
10999W        W26468  10.138  16.943  16.203  0.0915 -0.2680  0.0508
11000W        W26469  13.953   4.798   2.980  0.2180  0.0821  0.2146
11001W        W26470   4.159   5.985  12.312  0.1359  0.3266  0.0913
11002W        W26471   8.364  14.713   1.264 -0.0975 -0.4055 -0.2274
11003W        W26472   0.030   6.384  13.231 -0.1075  0.0690  0.0772
11004W        W26473   6.121   3.038   5.775 -0.1430 -0.2975  0.0820
11005W        W26474  13.121   4.418  12.842 -0.0641  0.1935 -0.1831
11006W        W26475  13.465   8.894  12.791 -0.0363  0.0424  0.2892
11007W        W26476   4.764   6.595   5.248  0.5381 -0.2096  0.0573
11008W        W26477  13.713  15.319   3.712 -0.0021  0.2345  0.1721
11009W        W26478  16.311   9.247  10.720 -0.0594 -0.1235 -0.0437
11010W        W26479   4.861  18.046   4.918 -0.0664 -0.2215 -0.2435
11011W        W26480   0.437  13.147   4.915  0.3530  0.0454 -0.2198
11012W        W26481   3.774   4.223   2.217 -0.2853 -0.0519  0.0262
11013W        W26482   0.109  14.228  15.499 -0.0489  0.1615  0.0435
11014W        W26483   8.823   9.760  15.415 -0.0092  0.1730  0.0104
11015W        W26484  12.516  13.587  13.980  0.2566  0.2638  0.0152
11016W        W26485   4.786   6.012  15.877 -0.1636 -0.0995  0.1894
11017W        W26486   7.654  10.494   2.534 -0.3937  0.1033 -0.0268
11018W        W26487   1.688  13.848  15.287 -0.1937 -0.2345  0.1768
11019W        W26488   9.893   9.824   4.966 -0.2746 -0.0755 -0.0098
11020W        W26489  14.018   0.635  14.059  0.0149  0.0930  0.3404
11021W        W26490   6.717  13.702  13.912  0.1363 -0.2352 -0.1742
11022W        W26491   9.942  12.492  12.366  0.0099  0.1033  0.0351
11023W        W26492   5.003   5.366  12.279 -0.1954  0.0214 -0.2121
11024W        W26493  15.339   9.062  15.673  0.1433  0.1140  0.0609
11025W        W26494   0.659   2.837   2.544 -0.0864 -0.0396  0.1839
11026W        W26495  10.698   3.282  13.500  0.0209  0.2044  0.2025
11027W        W26496  12.423  14.072  13.056 -0.2729  0.1402 -0.0557
11028W        W26497   1.173  11.058  15.857  0.1574 -0.0140 -0.2811
11029W        W26498  18.057   8.967  12.535  0.0571 -0.1914 -0.0504
11030W        W26499   5.022   0.544   4.113 -0.0184  0.1263  0.1643
11031W        W26500  14.535  10.927  12.096 -0.0664  0.0459  0.0690
11032W        W26501   2.466   8.678   5.356  0.2325 -0.0264  0.1256
11033W        W26502  10.894   9.543   2.024  0.0928 -0.1509 -0.3073
11034W        W26503  12.094  13.911   4.002  0.0286  0.0837  0.1019
11035W        W26504  14.297  15.543   1.804 -0.2341  0.2022  0.0404
11036W        W26505   2.793   4.129  11.102 -0.0740 -0.0657  0.0591
11037W        W26506   8.645   8.226  16.244  0.1100 -0.0316  0.1793
11038W        W26507  12.532   5.115   2.126  0.1297 -0.1052 -0.7030
11039W        W26508   0.858   7.909  12.926  0.2672 -0.2769 -0.0449
11040W        W26509  15.126  10.286  10.316  0.1541 -0.0082  0.0818
11041W        W26510   2.519   8.710  10.431  0.1683  0.1287  0.0234
11042W        W26511   8.197   6.652   1.205  0.3917 -0.3493 -0.0965
11043W        W26512   8.757   7.461  13.642 -0.0067  0.4290 -0.4779
11044W        W26513  10.703  13.086  16.008  0.0938  0.3501  0.1979
11045W        W26514  16.494   9.851  14.920  0.0552 -0.1142 -0.1700
11046W        W26515   1.797   9.772  11.214  0.1343  0.1249 -0.3538
11047W        W26516  16.116   0.731   2.481 -0.1999  0.0611  0.0699
11048W        W26517  10.129   4.872   2.461 -0.5358  0.1283  0.1674
11049W        W26518   2.717  12.217  16.213 -0.1987  0.0672  0.2109
11050W        W26519   3.419   9.507  14.640  0.1142  0.3129  0.0959
11051W        W26520   1.605   7.084   1.908 -0.0936  0.1710  0.1819
11052W        W26521  16.344   2.473   5.550 -0.5297 -0.1404 -0.2406
11053W        W26522   9.427   6.320   0.845 -0.0239  0.1105 -0.0704
11054W        W26523   8.469  15.627  13.412 -0.0176 -0.3250  0.1706
11055W        W26524  13.419  10.532   0.938 -0.2828  0.2289  0.0240
11056W        W26525   5.833  13.560   0.674 -0.1586  0.1210 -0.1160
11057W        W26526   4.296   2.095  16.071 -0.1536 -0.0966 -0.4483
11058W        W26527   4.899  13.915   2.597 -0.0628 -0.3672 -0.0419
11059W        W26528   1.793  10.519   2.580  0.0535 -0.0575  0.1948
11060W        W26529  16.311  11.331   3.385  0.2580 -0.1330 -0.0420
11061W        W26530   9.598  11.833   0.589  0.1825 -0.0702 -0.1485
11062W        W26531  15.258  15.999  12.226 -0.2768 -0.1103  0.1102
11063W        W26532  12.247  14.938   2.103  0.0077 -0.1299 -0.3119
11064W        W26533   6.739  16.473  15.663 -0.0773  0.1936  0.0880
11065W        W26534   8.170   6.281  14.731  0.3431  0.1524  0.1851
11066W        W26535   4.053   8.747   3.267  0.1238 -0.0480  0.0126
11067W        W26536  11.708   3.469   2.283 -0.0425  0.0374  0.1912
11068W        W26537  15.348   5.826   4.391  0.0223 -0.1909  0.0328
11069W        W26538  12.563   2.396  14.166  0.0129  0.0725 -0.1021
11070W        W26539   1.673   9.614  16.104 -0.5236 -0.0904  0.0825
11071W        W26540   5.487   9.334   1.246 -0.1957 -0.2612  0.0701
11072W        W26541  11.711  10.667   1.192  0.2008  0.0079  0.0726
11073W        W26542   1.686  12.454   1.387 -0.0453  0.1732 -0.1479
11074W        W26543   3.439   1.761  16.098 -0.0021  0.1420 -0.2808
11075W        W26544  17.000   0.710  14.160 -0.0265 -0.0037  0.1419
11076W        W26545  13.594  12.020   3.985 -0.0621  0.2342  0.2321
11077W        W26546   4.308  10.414  15.721  0.1352  0.0939  0.3823
11078W        W26547   6.893   7.687   1.220  0.1000  0.0574 -0.0312
11079W        W26548   7.121   8.522  13.577 -0.0115 -0.0621  0.2688
11080W        W26549   4.148   2.780  15.381  0.1502  0.1726 -0.2011
11081W        W26550   2.619   5.170  15.933  0.1120 -0.0832 -0.1089
11082W        W26551   7.304  11.924  13.388  0.1787 -0.2791  0.0590
11083W        W26552   0.271   5.812   3.153 -0.1771  0.1486 -0.0347
11084W        W26553   3.672   3.711  11.537 -0.0529  0.1444  0.0603
11085W        W26554   3.387  16.975  11.867 -0.3547 -0.0429 -0.0516
11086W        W26555   2.835  10.233  13.882 -0.0766 -0.1825 -0.1707
11087W        W26556  17.141  17.238  13.868 -0.3173  0.2510  0.3231
11088W        W26557   7.960   7.121   5.498 -0.2134  0.0567  0.0123
11089W        W26558   3.933   2.814   0.592  0.0816 -0.2012 -0.1878
11090W        W26559   3.045   3.618   0.012 -0.1929 -0.0421  0.0281
11091W        W26560  15.847   8.236  14.137  0.1713 -0.1477 -0.0248
11092W        W26561   0.356  13.830   3.760  0.0184  0.0767  0.1596
11093W        W26562   8.132  12.167  15.316 -0.0677 -0.0065 -0.4990
11094W        W26563  17.944  11.468   3.789  0.0002  0.0481  0.0902
11095W        W26564   0.882   9.990  12.660  0.0515  0.4741 -0.3168
11096W        W26565   8.902   8.378   4.242 -0.1183 -0.3083 -0.1519
11097W        W26566   4.587   9.684   1.591 -0.1221  0.0315  0.2552
11098W        W26567  13.408  10.650  12.896 -0.2220 -0.0713 -0.0003
11099W        W26568   0.966  11.205   2.423  0.2077 -0.0319  0.2095
11100W        W26569  14.922   0.208  10.117  0.0302 -0.0034  0.0152
11101W        W26570  10.585  12.638   4.401  0.0954  0.1503  0.0443
11102W        W26571   7.546  17.440   1.509 -0.1630 -0.0105  0.1917
11103W        W26572   7.689   9.242  11.875 -0.2238  0.1137  0.0693
11104W        W26573   5.353   0.320   1.396  0.3670  0.0226  0.1545
11105W        W26574   8.741   2.583   4.724 -0.3705 -0.0195  0.0270
11106W        W26575  11.986   0.746  14.335  0.2925  0.1356 -0.0135
11107W        W26576  13.269  12.682   3.544 -0.0864  0.3593 -0.1297
11108W        W26577   6.616   1.680  12.015  0.1050 -0.0475 -0.4093
11109W        W26578   1.522   1.353  11.855  0.1431 -0.3102 -0.5186
11110W        W26579  11.957  12.447   5.524  0.1608 -0.1750  0.1601
11111W        W26580  15.285   9.898  15.916 -0.0183  0.0639  0.1933
11112W        W26581   8.431  13.514   3.991  0.0032 -0.0943  0.1278
11113W        W26582  17.953  17.248   1.165 -0.1305 -0.0290  0.2435
11114W        W26583   3.995   0.145  14.666  0.0128 -0.2454 -0.0634
11115W        W26584  15.104   8.853  12.865 -0.2578  0.1857 -0.1320
11116W        W26585  10.188   3.513   4.470 -0.2400 -0.0708 -0.1664
11117W        W26586   7.148  11.906   0.410  0.0951  0.0604 -0.0198
11118W        W26587   2.975  14.047   1.142  0.1310  0.1587 -0.0795
11119W        W26588  14.838   3.946  14.628 -0.0929  0.0286  0.2173
11120W        W26589   8.412  17.409   3.355  0.0752  0.4515 -0.3077
11121W        W26590  12.574  15.279   0.416  0.3146 -0.3712  0.1227
11122W        W26591   6.909  12.716  14.187 -0.0680  0.1178  0.0405
11123W        W26592   0.793   0.427  14.419  0.2464  0.1732 -0.2073
11124W        W26593   1.889  12.289  11.837 -0.3075 -0.0164  0.1727
11125W        W26594   6.770   1.449   1.492 -0.1042 -0.0852  0.1598
11126W        W26595  11.807   4.692   2.699 -0.4984 -0.1997  0.1094
11127W        W26596   5.300  11.325  15.023  0.0680 -0.1250 -0.1620
11128W        W26597  14.899   8.048   0.088 -0.3658 -0.0827 -0.0836
11129W        W26598   2.157   8.241  15.454 -0.1183 -0.1561  0.0916
11130W        W26599   4.294   2.451  11.073 -0.0360 -0.2077 -0.4159
11131W        W26600   6.998   2.985  14.321 -0.1614 -0.2242 -0.2138
11132W        W26601  12.534  11.107   2.266  0.2698 -0.4874  0.0644
11133W        W26602  14.328   4.188  13.215  0.1190  0.0696  0.1262
11134W        W26603  16.533   7.423   4.426  0.1436 -0.1367 -0.1704
11135W        W26604  13.802  10.442   0.554 -0.1780  0.1069 -0.2553
11136W        W26605  15.582   9.934  16.314 -0.0636 -0.4024  0.1492
11137W        W26606  14.193   6.751  13.641 -0.0064  0.0881 -0.1666
11138W        W26607   7.790   7.941  14.798  0.0777  0.1850 -0.0842
11139W        W26608   1.100   2.143   1.615 -0.2698  0.2026 -0.1576
11140W        W26609   5.308  17.269  13.836 -0.0068  0.1684  0.1219
11141W        W26610   1.956  16.294  13.561 -0.0841 -0.0204  0.1917
11142W        W26611  11.783   7.069  12.103 -0.3504  0.3747  0.1421
11143W        W26612   9.488   2.213   3.463 -0.0670  0.0464  0.2469
11144W        W26613  12.385   6.656   3.791 -0.2461 -0.0846 -0.0759
11145W        W26614   7.061   9.867   5.433  0.3689  0.0657 -0.1191
11146W        W26615   9.268   4.969   1.621  0.1158 -0.0276  0.1232
11147W        W26616   3.600   0.573  10.986 -0.2768 -0.0753  0.0288
11148W        W26617  17.764  15.027  11.850 -0.3404  0.5429 -0.0299
11149W        W26618   2.559  10.628  13.597 -0.0695  0.2043  0.1678
11150W        W26619   7.552   6.556   5.557 -0.0772  0.0662  0.1472
11151W        W26620   7.914  14.453   1.264  0.0479  0.2003  0.1781
11152W        W26621   5.690   3.664   1.537 -0.1657  0.1507 -0.0155
11153W        W26622   5.941   6.321   2.783 -0.0338  0.1984  0.4320
11154W        W26623  11.198   0.362   3.989 -0.2872 -0.0585 -0.2381
11155W        W26624   9.379  15.211   4.370 -0.1590  0.1914 -0.0326
11156W        W26625   5.731   9.827  12.822  0.1075  0.1167 -0.0224
11157W        W26626   2.367  10.007  12.808  0.2148 -0.0294  0.0331
11158W        W26627   9.701  16.662   3.376  0.2091  0.0814  0.0332
11159W        W26628   7.302  10.011  16.114  0.1705 -0.0825 -0.3013
11160W        W26629   9.375  13.889   0.130  0.2041  0.1255 -0.0960
11161W        W26630  16.463   5.387  16.243  0.0250 -0.0148 -0.1505
11162W        W26631   2.990  13.058  13.003 -0.2841 -0.0330 -0.1962
11163W        W26632  11.779  14.709   1.915  0.0507 -0.2128  0.1925
11164W        W26633   2.728  17.800   3.599  0.0549  0.0117 -0.0993
11165W        W26634  14.407  15.759  14.492 -0.3971  0.0783  0.0732
11166W        W26635   7.240  13.897  12.443 -0.3045  0.1900  0.1352
11167W        W26636  12.371  15.307   1.369  0.2492  0.1242  0.2288
11168W        W26637  12.586  16.771   4.645 -0.2719 -0.0703 -0.2358
11169W        W26638  11.464   9.797  14.835  0.2563  0.0789  0.0927
11170W        W26639   9.171  13.117   2.537 -0.0227  0.1602 -0.0809
11171W        W26640  17.943   9.671   2.924  0.0623  0.1110  0.0017
11172W        W26641   4.020  11.972   3.424  0.1569  0.1109  0.2694
11173W        W26642   7.270  10.948  12.901  0.1870 -0.1735 -0.0599
11174W        W26643  14.921   2.541  11.195  0.1263 -0.1971 -0.0690
11175W        W26644   5.426   9.107  11.232  0.1057  0.2193  0.2264
11176W        W26645   0.557   3.098  15.860  0.0042 -0.1125 -0.0158
11177W        W26646   6.039  13.279   1.965 -0.0402 -0.0234 -0.2393
11178W        W26647   9.073  13.700  16.083 -0.1158 -0.0047  0.1858
11179W        W26648  17.334  15.233  13.369 -0.4991  0.0724 -0.1238
11180W        W26649   0.405  12.481  15.920  0.0118 -0.0688 -0.1053
11181W        W26650   7.875   7.801  13.409  0.0271  0.0120  0.2442
11182W        W26651   1.092   6.166   3.721  0.0006  0.1028 -0.1673
11183W        W26652  13.443  15.783  11.715 -0.1431  0.1742  0.3666
11184W        W26653   6.253   5.216  11.310  0.3810  0.1888 -0.1414
11185W        W26654   7.426  12.814  13.141  0.1863 -0.0385 -0.2307
11186W        W26655   7.880   1.509  10.692 -0.2643  0.0038  0.2897
11187W        W26656   7.596  16.055   9.822 -0.0399  0.3674 -0.2017
11188W        W26657   4.833  14.464   3.342  0.0389  0.0044 -0.1540
11189W        W26658  13.051  13.285  13.492 -0.0744  0.2026 -0.0266
11190W        W26659  11.103   3.496   2.865 -0.1184 -0.1625 -0.1823
11191W        W26660  17.466   4.435   1.369 -0.1863  0.0876 -0.1386
11192W        W26661  15.237  13.150  12.675 -0.2110  0.0389  0.3477
11193W        W26662  17.322  15.147   0.924  0.3484 -0.0914  0.1198
11194W        W26663  13.480   8.772   0.895 -0.1746  0.2571 -0.0550
11195W        W26664  10.701  17.310  12.333 -0.0001  0.0594  0.1940
11196W        W26665   5.828   5.612   5.026  0.0643  0.0288 -0.0054
11197W        W26666  17.426   3.215  11.712 -0.1975 -0.1649  0.0703
11198W        W26667  14.755  15.136  13.122  0.2334  0.2529  0.2346
11199W        W26668  15.120   5.611  16.208  0.0001  0.0110  0.1454
11200W        W26669   5.742  10.904   2.342  0.2493  0.0496 -0.0162
11201W        W26670  16.556  16.303  14.321 -0.0045  0.0130 -0.0633
11202W        W26671  10.369   3.738   5.070  0.0719  0.0171  0.0830
11203W        W26672   2.153  12.612  12.853 -0.3280 -0.0543  0.2358
11204W        W26673  16.997   2.934   0.560  0.1286  0.0675 -0.1347
11205W        W26674  16.373   8.830   5.730 -0.0305 -0.0570 -0.0886
11206W        W26675  17.178   5.749   4.574 -0.1094  0.1637 -0.3077
11207W        W26676  13.044   7.405   1.864  0.2615 -0.1988  0.3008
11208W        W26677  17.374  15.252   3.440 -0.1030 -0.0014 -0.3561
11209W        W26678   6.510  15.021   3.557 -0.0546  0.1543  0.1143
11210W        W26679   7.613  17.393   5.062 -0.2592  0.1381  0.1566
11211W        W26680   1.289   5.571   4.845  0.2361 -0.2714 -0.1003
11212W        W26681  15.668  10.923   2.462 -0.1012  0.1996 -0.0054
11213W        W26682  14.352   7.217  11.225 -0.0044 -0.0041  0.1241
11214W        W26683   1.100   1.969  15.623  0.0610 -0.3353 -0.1024
11215W        W26684  17.824  16.582  13.113 -0.1633 -0.0912 -0.1218
11216W        W26685   6.122  14.822   3.365  0.1953 -0.2051 -0.1230
11217W        W26686   3.113  17.827   3.959  0.1398 -0.1319  0.2962
11218W        W26687   7.139   9.356   0.118  0.3348 -0.2385  0.0009
11219W        W26688   9.932  14.606  13.568 -0.1617  0.0473  0.2160
11220W        W26689   2.258   5.761   5.273 -0.0097 -0.0836 -0.2222
11221W        W26690   6.147   8.995  12.884  0.0631 -0.0367 -0.2476
11222W        W26691   0.530   6.070  15.593  0.2512  0.3400  0.2199
11223W        W26692  16.918  13.952  12.356 -0.1143  0.1795  0.1456
11224W        W26693  15.019   0.735   0.501 -0.1233  0.1757  0.0674
11225W        W26694   4.778  10.217   0.374  0.3241 -0.0534 -0.2169
11226W        W26695   4.738  11.356  11.304 -0.0079  0.0809  0.0504
11227W        W26696  16.624   1.620  12.120 -0.0045 -0.0257  0.2007
11228W        W26697   7.844   3.662  14.491 -0.2726  0.1870 -0.3029
11229W        W26698  11.188   0.122  12.544 -0.3497  0.1910  0.1767
11230W        W26699  13.339   0.112  14.140  0.2992  0.2888  0.2404
11231W        W26700  11.768   7.773  12.098  0.0217 -0.0696 -0.0274
11232W        W26701  13.960   8.867   0.679 -0.1364 -0.3578 -0.0220
11233W        W26702   7.934   2.619   2.464 -0.0523  0.2356 -0.1737
11234W        W26703  12.681  17.432   2.068 -0.0835  0.0138  0.3496
11235W        W26704   1.712   6.113  11.067  0.2697 -0.1566 -0.3703
11236W        W26705  12.434   6.776  11.719  0.1240  0.2964  0.1346
11237W        W26706   5.070   2.518   1.390  0.1670 -0.1747  0.0284
11238W        W26707  16.689   3.945   1.097  0.1044 -0.1138  0.0042
11239W        W26708   5.308   9.951   2.641  0.4990 -0.0142 -0.1316
11240W        W26709  11.417   4.623  14.728 -0.4648 -0.2968 -0.0811
11241W        W26710  13.836   5.770  11.212  0.0611 -0.0608  0.3009
11242W        W26711  14.115   3.354   1.550  0.0080 -0.0600  0.0729
11243W        W26712   6.159   3.059  11.728 -0.1855  0.1406 -0.0467
11244W        W26713  13.192  15.138  10.009  0.1337 -0.2685 -0.3832
11245W        W26714   2.976  15.702   3.759 -0.3418  0.0418 -0.1698
11246W        W26715   3.621  14.397  15.635 -0.2476  0.2825 -0.1666
11247W        W26716  12.833   0.869  14.658  0.4045  0.1638  0.1795
11248W        W26717   5.579   2.888   4.403  0.1043  0.0451  0.0022
11249W        W26718  16.782   3.040   3.985 -0.2253  0.0094  0.0235
11250W        W26719   7.394  17.549  13.891  0.0390  0.2205  0.0613
11251W        W26720   2.254  16.443   1.723 -0.4400 -0.1406 -0.0495
11252W        W26721   4.623   6.775   2.634  0.0815 -0.1256  0.2037
11253W        W26722  17.095  10.244  12.470  0.0392  0.0912 -0.2183
11254W        W26723   9.574   1.291   5.108 -0.1078  0.1621  0.0265
11255W        W26724  16.347  17.863   2.338  0.2181 -0.0141 -0.0059
11256W        W26725  10.600   7.487  12.250 -0.0006  0.1614 -0.1330
11257W        W26726   6.820  11.601   0.664  0.0128 -0.0474 -0.1971
11258W        W26727  14.017   9.457   4.986 -0.4295 -0.1303 -0.0429
11259W        W26728  13.488  15.269   2.512  0.2694  0.2383 -0.1040
11260W        W26729  17.260  11.079   2.437  0.0368 -0.1648 -0.0644
11261W        W26730   5.824   7.495   5.644  0.3535 -0.3099 -0.2574
11262W        W26731  17.341   9.568   1.161  0.1167  0.2243  0.0175
11263W        W26732   0.923   2.476  16.180 -0.2075  0.0647 -0.1449
11264W        W26733  16.332   8.753   3.485 -0.0460 -0.1287  0.0273
11265W        W26734   2.703   4.725   2.019  0.0315 -0.1786  0.0358
11266W        W26735   6.689   0.480   0.357 -0.0371  0.0454  0.1554
11267W        W26736   2.087   8.838  16.184 -0.2217  0.0477  0.0513
11268W        W26737   7.758  15.796  10.774 -0.2700 -0.1583  0.1113
11269W        W26738   9.143  11.078  14.437 -0.0270  0.1806  0.0193
11270W        W26739   7.832   9.213   3.225 -0.2968 -0.2948 -0.1660
11271W        W26740  16.329  15.525  13.889 -0.0503  0.0668 -0.1039
11272W        W26741  12.878  16.607   5.476 -0.0852  0.0709 -0.0483
11273W        W26742  11.493  14.002  12.021 -0.1485  0.0427  0.0540
11274W        W26743   3.119  12.053   4.563  0.1004 -0.2039 -0.0288
11275W        W26744   7.483   7.801  15.935 -0.1688  0.2112  0.0258
11276W        W26745  15.199  11.483   4.900  0.1233  0.3129 -0.1409
11277W        W26746  11.288  14.190   4.860  0.0533  0.3041  0.2539
11278W        W26747  17.925   0.184   9.539 -0.2254 -0.0754 -0.0361
11279W        W26748   1.378  13.634  13.539 -0.3029 -0.1707 -0.0325
11280W        W26749   9.623   2.467   1.749  0.0493 -0.2015  0.1660
11281W        W26750  12.386  12.127  12.256  0.0411 -0.2068  0.0514
11282W        W26751  10.213   6.202   1.764 -0.1708 -0.2526  0.0929
11283W        W26752  16.355   9.550   5.211  0.0478  0.0579  0.2238
11284W        W26753  13.912   7.463   1.944  0.2238  0.0788 -0.1289
11285W        W26754  10.610  11.211  15.437 -0.3839 -0.0370  0.1427
11286W        W26755  16.233   2.560   1.678 -0.0927 -0.1770  0.3438
11287W        W26756   6.866   0.844   5.076 -0.1858  0.1673 -0.1562
11288W        W26757  12.717   1.293   2.235  0.2107  0.0298  0.3135
11289W        W26758   0.644   4.252   5.755 -0.2235  0.1590  0.0619
11290W        W26759  13.709  15.300   5.263 -0.1786  0.0105 -0.2196
11291W        W26760  14.461  13.118  13.368 -0.1826 -0.1574  0.0165
11292W        W26761   9.868   5.013  10.629  0.0505 -0.1298  0.0715
11293W        W26762   3.987   9.967   3.973  0.2451  0.1968  0.2589
11294W        W26763  13.126  16.697  16.069  0.1474  0.0421  0.0222
11295W        W26764   0.713  17.484  10.845 -0.1806 -0.0195 -0.1842
11296W        W26765   5.617   5.164  12.881  0.0181  0.1649 -0.2220
11297W        W26766  14.828   2.186  13.271 -0.1359 -0.2578  0.1842
11298W        W26767  11.546   5.810   3.858  0.1676  0.4111  0.1033
11299W        W26768   2.448   3.589   2.153  0.0275  0.0435 -0.0241
11300W        W26769  10.159  15.751  14.997  0.1508 -0.0631 -0.1143
11301W        W26770  12.619   2.781  13.818  0.1698  0.1115 -0.1660
11302W        W26771  10.316   6.747   3.096 -0.1830 -0.4756  0.0625
11303W        W26772  11.844  15.990   0.660  0.0822  0.3681 -0.2645
11304W        W26773  11.889  11.540   0.098 -0.3923  0.0097  0.1713
11305W        W26774  10.087   5.821   4.629  0.2051  0.1558  0.1456
11306W        W26775  12.510   8.703   1.661 -0.1154  0.0037 -0.1671
11307W        W26776  16.638  14.493   6.253 -0.0458 -0.1257  0.2104
11308W        W26777  17.661   5.475  13.193  0.0312 -0.0395 -0.0393
11309W        W26778   6.055   1.310   0.741 -0.3283 -0.1699 -0.0292
11310W        W26779  11.728  15.023   4.821 -0.0434  0.0824  0.3367
11311W        W26780   4.523  13.176  10.956 -0.1269 -0.3218  0.0769
11312W        W26781   4.442   2.331  15.646 -0.2202  0.0890 -0.1542
11313W        W26782   6.500  13.884   5.297 -0.1655  0.0576 -0.0521
11314W        W26783   7.902  11.682   5.216  0.3493  0.2458 -0.2143
11315W        W26784  10.945  12.624  13.923  0.2533 -0.2156 -0.2375
11316W        W26785   3.439   6.279  10.729  0.1644 -0.0898  0.2430
11317W        W26786  17.893   7.463  14.089 -0.1716 -0.0937  0.1049
11318W        W26787   3.926   4.599  13.755 -0.1656 -0.0524  0.1650
11319W        W26788   9.866   8.556   0.847  0.2909  0.0225  0.0213
11320W        W26789   1.919  14.475   2.997 -0.0180 -0.0418 -0.0779
11321W        W26790   7.297   0.643  15.184  0.0178 -0.2150  0.1945
11322W        W26791   8.505   4.485   5.896 -0.1005 -0.0668  0.1362
11323W        W26792  16.577  17.727  13.934 -0.2125 -0.0823  0.1932
11324W        W26793  15.446  12.535   4.476  0.1052 -0.0128 -0.0292
11325W        W26794   9.800  13.534   5.467 -0.0852 -0.0333  0.0754
11326W        W26795   4.990  16.682   5.580 -0.1522 -0.1936 -0.1265
11327W        W26796  14.300   7.777   1.892 -0.0311 -0.1140 -0.0740
11328W        W26797   3.189   4.394   3.511 -0.1687  0.0472 -0.2400
11329W        W26798  16.460   8.221  15.384 -0.1797  0.0671 -0.1160
11330W        W26799  11.236  13.140  13.876  0.2097  0.1582 -0.4076
11331W        W26800  14.460  10.391   4.924  0.1265 -0.0784  0.0229
11332W        W26801   7.191   9.662  14.836 -0.0278 -0.1771 -0.2354
11333W        W26802  10.331   5.280   1.777  0.0913 -0.1245 -0.3115
11334W        W26803   0.565   4.794   4.554  0.2582  0.0226  0.0510
11335W        W26804   5.303  13.903  11.373  0.1848  0.2425  0.3857
11336W        W26805   7.680   4.471  13.349 -0.0099  0.2232  0.0881
11337W        W26806   6.551  17.150   4.718  0.0080 -0.2478  0.0722
11338W        W26807  10.734   9.894   5.320  0.0025  0.2239 -0.0157
11339W        W26808   1.245  12.456  15.345 -0.1325 -0.2366 -0.1570
11340W        W26809   8.824  10.311   4.274 -0.0776 -0.2748 -0.3065
11341W        W26810   9.806   5.622  14.384  0.0654 -0.1432  0.0585
11342W        W26811  14.958  13.535  13.806 -0.3722 -0.2301 -0.0141
11343W        W26812  16.659  13.768  14.786 -0.1392  0.0368  0.2671
11344W        W26813  13.037   7.083   2.442  0.0827  0.1178 -0.1174
11345W        W26814  13.386   8.174  11.603 -0.1222  0.2427 -0.2562
11346W        W26815  16.586  17.911  14.785 -0.1562  0.0999  0.0902
11347W        W26816   8.509   5.638  13.878  0.1045  0.1181  0.1129
11348W        W26817   5.158   4.197   6.218 -0.0622 -0.4070 -0.1377
11349W        W26818   5.060  14.593  15.350  0.0663 -0.0117 -0.2640
11350W        W26819  13.015  17.135  12.553 -0.0599 -0.3567 -0.3221
11351W        W26820  15.846  16.800   5.163 -0.3132 -0.2379 -0.0825
11352W        W26821  15.246   8.448   1.365 -0.0980 -0.3199 -0.1956
11353W        W26822  12.608   9.910  10.544  0.1463 -0.0884 -0.1675
11354W        W26823   2.761  18.046   4.943 -0.1371 -0.3319 -0.1657
11355W        W26824   0.323  14.056   5.567 -0.0612 -0.1500  0.1569
11356W        W26825  15.176  11.567   4.400  0.0409  0.3367 -0.0796
11357W        W26826   4.925   4.331   4.001 -0.0380 -0.0916 -0.0873
11358W        W26827   5.996  15.198   0.247  0.2772  0.3103 -0.0891
11359W        W26828  12.814  12.351   5.190  0.1219  0.2598  0.1231
11360W        W26829  17.531   5.083   0.688 -0.1700  0.2579  0.1281
11361W        W26830   6.325  16.328   4.257  0.0946 -0.0802  0.0211
11362W        W26831  13.175   2.588  12.301 -0.3179  0.1181 -0.2439
11363W        W26832   7.142   3.800  14.656  0.1585 -0.0018 -0.2828
11364W        W26833  10.430   5.147  16.252  0.1576 -0.0404  0.0242
11365W        W26834  17.948   3.990   3.594 -0.0551  0.1802  0.0743
11366W        W26835  12.726   5.978   2.409  0.0058  0.1150  0.3034
11367W        W26836   3.757  14.103  15.248  0.0452 -0.1084 -0.3168
11368W        W26837   9.843   8.896  13.654  0.0327 -0.1316  0.0550
11369W        W26838   9.397   8.487   1.026 -0.1090  0.2344 -0.0684
11370W        W26839  15.218   6.662   4.143  0.0328 -0.1978  0.0517
11371W        W26840  15.640   2.190   2.132 -0.0909 -0.0706  0.0404
11372W        W26841   7.258   1.470   0.716  0.0830 -0.0885  0.0571
11373W        W26842   3.686   4.973  12.750 -0.1928  0.0144 -0.2372
11374W        W26843  14.373  14.256  14.992 -0.1502 -0.1789  0.0907
11375W        W26844  17.284   6.321   0.933  0.2553 -0.0448  0.2013
11376W        W26845  10.160   9.909   0.439 -0.0245  0.0502 -0.1530
11377W        W26846   4.381  17.124  15.650  0.1737  0.0827  0.1715
11378W        W26847  11.046   7.314   3.537  0.1560 -0.1162 -0.2284
11379W        W26848  14.691   8.646   5.166  0.2515 -0.1286  0.5454
11380W        W26849  15.642   1.910   5.379 -0.1285 -0.0376 -0.0267
11381W        W26850   3.715  10.327   3.637 -0.0633 -0.1713 -0.0989
11382W        W26851   6.300  11.445  14.085 -0.0354 -0.4057  0.0841
11383W        W26852   9.290  15.392   3.460 -0.1505 -0.1956  0.0703
11384W        W26853  15.514  15.008  13.235 -0.4584  0.2468  0.1239
11385W        W26854  13.568   4.296  12.579  0.1051 -0.2373 -0.0758
11386W        W26855   7.059   3.281   0.588  0.2568 -0.1396  0.0551
11387W        W26856  17.292   1.501  13.497  0.0093 -0.0360  0.3639
11388W        W26857   9.405   9.928   5.147 -0.0582  0.3629 -0.1882
11389W        W26858   7.341  12.652   2.316 -0.1145 -0.4845  0.3047
11390W        W26859  11.847  15.962  11.443 -0.0763  0.1882 -0.2990
11391W        W26860   7.428  14.599  12.503 -0.2501 -0.1493  0.1629
11392W        W26861   4.448   9.509  12.773  0.0414 -0.0842  0.2663
11393W        W26862   6.725  12.284  10.942  0.0741  0.1716  0.0167
11394W        W26863   9.980   4.475  14.616 -0.0534  0.1152  0.0042
11395W        W26864  13.987  13.776  12.053  0.2179  0.1745  0.1592
11396W        W26865  15.899  10.725   1.446 -0.0847  0.1367  0.1776
11397W        W26866  15.878   5.222   0.199  0.0367  0.1113  0.2492
11398W        W26867  13.679  10.951   4.952  0.0075 -0.4599  0.3558
11399W        W26868   2.324  12.260   4.764  0.2499  0.1941  0.0733
11400W        W26869   0.758   8.177   3.474 -0.0762  0.0373  0.2108
11401W        W26870   9.031  10.416  14.051  0.3743  0.2831  0.1087
11402W        W26871  17.500  10.752   4.843  0.1061  0.2664  0.2000
11403W        W26872  11.866   4.913  15.930  0.0753 -0.3991  0.0931
11404W        W26873   8.933  11.759   2.624 -0.0195  0.0318 -0.2182
11405W        W26874   0.127   2.680   4.370 -0.1650 -0.1978 -0.0948
11406W        W26875  12.460   7.128  15.176  0.0461 -0.0015  0.1629
11407W        W26876   8.470  14.601  15.087 -0.2483 -0.2357 -0.0607
11408W        W26877   9.409   0.120   6.460  0.0432  0.1630 -0.0844
11409W        W26878  11.759   4.682   4.625  0.3605 -0.0705 -0.4140
11410W        W26879   4.895  17.031  11.261  0.0425  0.1025  0.0164
11411W        W26880  17.270   3.186  12.339 -0.0453 -0.1218 -0.1089
11412W        W26881  14.619  14.929  13.553  0.1529 -0.1374 -0.0501
11413W        W26882   8.386  11.775  14.203  0.0795  0.0538 -0.3577
11414W        W26883   4.550   1.292   3.117 -0.1297  0.1329 -0.1780
11415W        W26884  16.875   1.213  12.564  0.1336 -0.1240 -0.1925
11416W        W26885   5.802  16.305   1.796  0.1017 -0.0981 -0.1834
11417W        W26886   3.726   3.910  11.970  0.0700  0.3007 -0.1358
11418W        W26887   4.292  15.002   2.883  0.0861  0.1185 -0.2923
11419W        W26888   1.251  11.502   2.780 -0.4097 -0.3633 -0.1285
11420W        W26889  12.583  15.476  14.956 -0.0195  0.0569 -0.0128
11421W        W26890  11.500  14.392  13.291  0.2584 -0.2076 -0.3539
11422W        W26891  16.344  11.221   4.594 -0.0008 -0.1776 -0.0351
11423W        W26892  13.335   8.900  15.101  0.1241  0.2736 -0.2049
11424W        W26893  17.021   0.782  16.176 -0.0702 -0.0163 -0.1691
11425W        W26894   4.446  10.050   1.216 -0.2203  0.2085  0.0743
11426W        W26895   5.581   9.348   0.291  0.0738  0.2961 -0.0106
11427W        W26896   8.812   7.461  15.495 -0.2975  0.0975  0.1788
11428W        W26897   8.950  10.772  12.203  0.0658  0.1508  0.1907
11429W        W26898   3.587  12.676  13.978  0.0163  0.3256  0.0509
11430W        W26899   3.525   8.006   5.677 -0.1891  0.3907  0.0367
11431W        W26900   6.096  17.507  15.642 -0.2923 -0.1334  0.1097
11432W        W26901   0.625   3.456  14.915 -0.1542 -0.0363  0.2021
11433W        W26902   0.309   1.103  14.111  0.1186  0.0190 -0.2325
11434W        W26903  12.707   6.299   2.044  0.1467  0.1275  0.0094
11435W        W26904   4.301  15.668   1.697  0.0028 -0.1227 -0.2033
11436W        W26905   2.253   2.906  10.775  0.1337 -0.1821  0.1490
11437W        W26906  17.868   2.205  15.427 -0.1422  0.2140 -0.1747
11438W        W26907  10.533   0.123   2.857  0.2231 -0.0834 -0.0864
11439W        W26908  16.042   6.552  15.480  0.3963 -0.0323 -0.0481
11440W        W26909   3.623  14.526  10.741 -0.1257 -0.2332 -0.0496
11441W        W26910  13.579   9.256   4.845  0.0333  0.1595  0.0130
11442W        W26911   5.354   0.728   3.629 -0.0863 -0.1014 -0.1122
11443W        W26912  16.040  13.759   2.896 -0.0805 -0.2742 -0.0493
11444W        W26913  13.991   3.511  13.513  0.2084  0.1461  0.0675
11445W        W26914   0.350  11.514   1.633 -0.0051  0.1463  0.1678
11446W        W26915  12.446  16.032  15.256 -0.0564 -0.3033 -0.0512
11447W        W26916  12.904  10.907  11.927 -0.1572  0.1974 -0.1053
11448W        W26917   3.553  17.455  14.451  0.2409  0.3677 -0.0423
11449W        W26918  11.643  12.915   3.053 -0.1822 -0.0551 -0.0421
11450W        W26919  15.270  11.681   0.621  0.2774 -0.1912 -0.2011
11451W        W26920   1.362  18.066  12.775  0.0049 -0.3345  0.2591
11452W        W26921  10.754  10.564  14.326  0.2075 -0.0767  0.2434
11453W        W26922   0.560   8.294   4.063  0.2599 -0.2427 -0.1168
11454W        W26923   2.700  15.656  14.605 -0.0961  0.0809 -0.2699
11455W        W26924   8.306   5.157  12.773  0.0758 -0.0775 -0.0142
11456W        W26925  15.884   1.496   1.599  0.4805  0.0434  0.0004
11457W        W26926  13.663   8.585   3.006 -0.1045 -0.0481  0.4147
11458W        W26927  10.366   6.860  14.944  0.2206 -0.2976 -0.0868
11459W        W26928  14.185  12.037  13.912 -0.1183  0.1273 -0.0365
11460W        W26929  15.368   3.980  11.648  0.1988 -0.0280 -0.0483
11461W        W26930   6.302   7.975  14.376 -0.0003  0.0243  0.0504
11462W        W26931  14.658   1.343  11.630 -0.0228  0.1123  0.1103
11463W        W26932   7.210   8.482  12.220  0.2316 -0.1685 -0.2595
11464W        W26933  16.171   9.796   1.861  0.0661 -0.1769 -0.1446
11465W        W26934   0.090   8.247  13.999 -0.1272 -0.0531 -0.0119
11466W        W26935  11.805  14.428   1.462  0.0257 -0.0148 -0.1730
11467W        W26936   9.296   1.670  12.013 -0.1787  0.0272 -0.1040
11468W        W26937  11.652   8.955  14.278 -0.0399 -0.1055  0.3644
11469W        W26938  11.448   4.765  14.191  0.1733  0.1598 -0.0497
11470W        W26939   7.504   1.737   3.715 -0.2820  0.2393 -0.0905
11471W        W26940  12.551  11.378  13.347  0.1600 -0.0271 -0.1807
11472W        W26941   2.451  10.311  11.374 -0.1454  0.1386  0.2106
11473W        W26942  12.432   1.669  16.259  0.1798 -0.0508 -0.3141
11474W        W26943  15.857   0.601  14.132  0.0092 -0.0291 -0.2755
11475W        W26944   5.797  10.586  16.153 -0.2886  0.0341 -0.2289
11476W        W26945   5.341   9.478   3.412  0.1162  0.1481 -0.2661
11477W        W26946   6.188   8.828  11.509  0.0815 -0.2379  0.0986
11478W        W26947   3.912  14.239   3.819 -0.0184  0.1619 -0.0777
11479W        W26948   1.387   1.312   0.073  0.2490  0.1921 -0.0819
11480W        W26949  14.851   4.155   5.016 -0.1218 -0.1138  0.2587
11481W        W26950   4.366  13.610  10.644  0.4628  0.0267  0.0449
11482W        W26951  10.505  13.667  10.762  0.0845  0.1416 -0.1090
11483W        W26952  16.285  17.150   5.174  0.2358 -0.1207  0.1807
11484W        W26953   6.529  11.113  15.182 -0.2079 -0.0290  0.0858
11485W        W26954  15.716   2.670  13.057 -0.0421  0.0730 -0.1564
11486W        W26955  11.398   8.847  10.739  0.0182 -0.1430  0.1600
11487W        W26956   2.925  12.046  14.006  0.2311  0.4306 -0.0639
11488W        W26957   8.875  17.736   5.539  0.1366 -0.0954  0.1017
11489W        W26958   8.946  12.579  12.189  0.4594  0.0435 -0.1320
11490W        W26959  13.682  14.035   0.974 -0.1288 -0.0422 -0.1671
11491W        W26960   6.957  13.231   0.606  0.2237  0.1328  0.0295
11492W        W26961  12.936   1.770   0.700 -0.3648 -0.1327 -0.0609
11493W        W26962   7.351   1.224  11.565 -0.2494  0.2222 -0.0720
11494W        W26963  17.872   8.444  13.623 -0.0159  0.5265  0.1521
11495W        W26964   7.753   4.167  15.195  0.0539 -0.0666  0.1025
11496W        W26965  12.526  17.829   5.757 -0.2661 -0.0868 -0.1085
11497W        W26966  13.205  13.343   0.507 -0.1367  0.1482  0.3626
11498W        W26967   1.385  15.046  14.072 -0.0538 -0.2179 -0.0821
11499W        W26968   4.020  16.792  11.145  0.3002  0.1538 -0.0180
11500W        W26969  11.011   4.192  13.586 -0.1056 -0.0905  0.0164
11501W        W26970  13.615   5.405  15.104 -0.0250  0.3310  0.0123
11502W        W26971   4.510   9.139  11.381  0.1690 -0.1879  0.4223
11503W        W26972   8.951  11.449   0.025  0.0017  0.0148 -0.0358
11504W        W26973  12.365  13.604   4.308 -0.0920  0.1367 -0.2441
11505W        W26974  16.123  10.961   5.133  0.3197 -0.0288 -0.0741
11506W        W26975  17.136   2.137   4.493 -0.0242  0.0754  0.1009
11507W        W26976   6.190  14.774  11.974  0.3223 -0.1669 -0.2230
11508W        W26977   9.501  16.235   3.211 -0.3960 -0.1320 -0.0980
11509W        W26978   8.554   3.186   2.760  0.1308  0.3251 -0.1095
11510W        W26979  11.637   7.733  15.323  0.1200 -0.1846 -0.0381
11511W        W26980   1.007  14.417  11.695  0.2090  0.1420 -0.0869
11512W        W26981   4.377   4.855  10.853 -0.1019 -0.0528 -0.0465
11513W        W26982  17.445  14.180   2.485 -0.0262 -0.0175 -0.1673
11514W        W26983  10.142  17.457   5.589 -0.1707 -0.1870 -0.0309
11515W        W26984   4.778  12.822   1.003  0.2005  0.0590  0.0624
11516W        W26985  10.666   2.776   1.598  0.3320  0.1572 -0.1037
11517W        W26986  15.145  13.165   1.554 -0.1347 -0.2311  0.2042
11518W        W26987   2.733  14.189  15.433  0.0711 -0.2186 -0.4011
11519W        W26988  15.421   9.581  13.328  0.0431  0.0542  0.3360
11520W        W26989   1.466   3.567  12.302  0.2409 -0.0493  0.3614
11521W        W26990   1.051   4.895   4.414 -0.0361 -0.0436  0.2723
11522W        W26991   3.092  12.748   4.877 -0.0225  0.2205 -0.2199
11523W        W26992  10.971   6.276  15.906  0.1254  0.3646  0.1105
11524W        W26993   5.938  12.792   1.998  0.0062  0.0440  0.2299
11525W        W26994   7.946  10.358   2.070 -0.3172  0.0034  0.1990
11526W        W26995   8.350  16.124  15.116  0.1485 -0.0910 -0.2240
11527W        W26996   9.149  16.885  13.427  0.1624  0.0772 -0.3970
11528W        W26997   3.208   7.135   3.565  0.0191  0.0049 -0.2064
11529W        W26998  10.063  13.046   6.228  0.5199  0.3325  0.1379
11530W        W26999  13.774  12.447   4.277 -0.0399 -0.1255 -0.1795
11531W        W27000   7.583   7.400   5.162 -0.1876 -0.1659 -0.0998
11532W        W27001   6.894   1.312  11.787  0.3421  0.0252 -0.0595
11533W        W27002  13.130  10.519  14.701  0.3449 -0.0730 -0.0917
11534W        W27003  12.425  14.855   5.039 -0.1983  0.0584 -0.0453
11535W        W27004   8.470   1.351   2.255  0.0422  0.1665  0.1118
11536W        W27005   6.423   2.025   4.053 -0.0571  0.0650 -0.0276
11537W        W27006   4.232   9.716  14.502 -0.3283 -0.0374  0.2369
11538W        W27007  12.290  10.392  11.560 -0.1208  0.0081  0.3086
11539W        W27008  17.664   8.760   3.573 -0.5529 -0.1055 -0.2653
11540W        W27009  14.185   4.933   2.442  0.0902 -0.0451 -0.1818
11541W        W27010  15.307  11.621  15.548  0.0320  0.0044 -0.1583
11542W        W27011   2.264   3.970   3.242  0.1272 -0.1313  0.0985
11543W        W27012   2.798   8.586   4.779  0.1096 -0.0718 -0.0132
11544W        W27013   2.656   3.699   3.370  0.2385 -0.0402 -0.0180
11545W        W27014  15.677  16.440   4.135 -0.1971 -0.2497  0.2059
11546W        W27015   6.373  16.006  16.267 -0.1561 -0.2146 -0.1136
11547W        W27016   9.286   8.140   3.907  0.0524 -0.4998 -0.1978
11548W        W27017   2.484  11.863  12.397  0.0492  0.0752 -0.0372
11549W        W27018   7.211   9.400  11.864  0.1348 -0.1716 -0.0125
11550W        W27019  13.154   0.490   2.600  0.0198  0.0017 -0.0778
11551W        W27020  17.098   7.601   4.549  0.0626 -0.0262  0.1221
11552W        W27021   2.431   4.143  11.642 -0.3888 -0.1063 -0.0498
11553W        W27022   4.492   0.398   5.162 -0.3254  0.0712 -0.0990
11554W        W27023   1.108  14.427   0.105 -0.0516 -0.1320 -0.3077
11555W        W27024  14.422   0.653  12.781 -0.2012 -0.1728 -0.2358
11556W        W27025   8.811   4.564  11.941 -0.0785 -0.1759  0.2398
11557W        W27026   8.125   8.236   1.110  0.1306 -0.1221  0.0567
11558W        W27027  15.444   0.970   5.186  0.1294 -0.0832  0.1964
11559W        W27028  17.609   0.602   4.326 -0.3401  0.2491 -0.1396
11560W        W27029  11.194   4.596   4.510  0.0236 -0.2053 -0.0152
11561W        W27030  11.550  15.305  14.490  0.0821 -0.0716 -0.0705
11562W        W27031  10.107   5.282   3.827 -0.1180  0.0881 -0.0648
11563W        W27032   2.305  14.551  11.467  0.2667  0.0745 -0.3096
11564W        W27033   3.791  17.242  14.926  0.0593  0.0373 -0.2183
11565W        W27034  11.369  14.241   1.875  0.0001 -0.0939  0.1693
11566W        W27035  17.959  16.861  13.721  0.1536  0.3731  0.0686
11567W        W27036  17.809   5.209  11.521  0.0174  0.1789  0.0615
11568W        W27037   8.030   2.271  13.847 -0.4510  0.0794 -0.1131
11569W        W27038  11.949   3.278   0.791  0.2267  0.0026 -0.1635
11570W        W27039   6.008  15.192  15.312 -0.2198  0.3163 -0.0453
11571W        W27040  15.449   1.389  15.701 -0.2003  0.3830  0.0223
11572W        W27041  17.694   0.949  10.699 -0.2000 -0.1714 -0.2911
11573W        W27042   8.692  12.701  12.664  0.0527 -0.2961 -0.0501
11574W        W27043   6.215  13.992   4.121 -0.0254 -0.2046  0.0329
11575W        W27044   2.425   0.345  16.296  0.1502 -0.0374  0.0597
11576W        W27045   5.601   4.586  14.162 -0.1244 -0.3229  0.1746
11577W        W27046  16.566   6.648   2.437  0.1309  0.0428 -0.2642
11578W        W27047   5.898   9.049  11.023  0.0898 -0.0743 -0.2167
11579W        W27048   6.190   3.256   1.383  0.1001 -0.1855  0.1432
11580W        W27049   2.043  15.566  15.204  0.0426 -0.0460 -0.6658
11581W        W27050   3.918   2.482   4.255  0.0196 -0.1996  0.1567
11582W        W27051   8.068  16.178   2.633  0.1688 -0.0491  0.0592
11583W        W27052   1.682   4.038  16.073 -0.3714  0.3586 -0.2022
11584W        W27053  17.934   4.720  14.973  0.0000  0.1506 -0.2707
11585W        W27054   6.276   7.381   2.192 -0.0132 -0.1763 -0.0056
11586W        W27055   7.101  11.557  14.448  0.0603  0.1321  0.1640
11587W        W27056   9.091   6.690  13.419 -0.1190 -0.2399  0.1010
11588W        W27057  10.735  16.654  14.205  0.0474  0.0265 -0.1090
11589W        W27058  14.899   0.034  13.260 -0.0294 -0.1086  0.2171
11590W        W27059   9.982   3.586   1.627 -0.1461 -0.0242  0.0321
11591W        W27060  10.826  11.404  13.267 -0.3023 -0.1584  0.0025
11592W        W27061  10.941  15.820   5.590  0.0697  0.0788  0.2386
11593W        W27062   8.306  16.626  15.566  0.0325 -0.2526  0.1907
11594W        W27063  10.302  15.185  13.245  0.0608  0.0138  0.0467
11595W        W27064   9.696  14.850   2.071  0.0722 -0.1460 -0.0806
11596W        W27065   9.391   7.421   4.514  0.1124  0.3910 -0.0098
11597W        W27066   4.619   3.461  15.878 -0.2293 -0.2652 -0.2195
11598W        W27067  12.007   9.885   1.281  0.2481 -0.3169  0.1115
11599W        W27068  11.990  13.848   0.527  0.0651 -0.2024  0.0657
11600W        W27069   4.020  14.278  14.267 -0.0685 -0.2806 -0.1553
11601W        W27070   9.458   2.603  14.932  0.1258 -0.2283  0.0730
11602W        W27071  13.350  15.980   3.720 -0.1000  0.0151 -0.0259
11603W        W27072   5.075   7.325  13.028  0.1649  0.0029  0.3352
11604W        W27073  16.634   5.083   0.625 -0.0168  0.1493  0.2282
11605W        W27074  16.772   6.276   2.729 -0.1567 -0.2477  0.1681
11606W        W27075  13.035   6.483   3.113 -0.1616 -0.3270 -0.2407
11607W        W27076  15.077   5.419   3.479  0.4245 -0.1261 -0.2170
11608W        W27077  17.507   6.694  16.096 -0.0706  0.1289  0.2478
11609W        W27078   4.053   3.007  11.765  0.0029  0.1004 -0.1092
11610W        W27079   4.837   5.577   4.849 -0.0437 -0.1136  0.0753
11611W        W27080  10.752  10.644   0.763 -0.0256  0.0566  0.2591
11612W        W27081  17.431   1.976   1.540 -0.3130  0.1052 -0.0481
11613W        W27082  17.951  16.274  14.555 -0.0593 -0.4787 -0.0261
11614W        W27083  17.588   8.161   2.090 -0.2536  0.1333  0.1872
11615W        W27084  10.709   6.856   1.227  0.1043 -0.0742  0.1764
11616W        W27085   9.376   9.853   5.628  0.4990 -0.3971  0.2030
11617W        W27086  14.910  10.239   2.483 -0.1729 -0.1664  0.1581
11618W        W27087  12.370  17.061   2.297 -0.2048 -0.0516  0.0564
11619W        W27088  10.942   6.373   5.824  0.2207 -0.1749  0.0323
11620W        W27089   8.074  11.608  15.945  0.0550  0.1845  0.2995
11621W        W27090   1.228   8.072   5.899 -0.1938 -0.2659  0.0458
11622W        W27091   7.770   1.465  14.406 -0.0151  0.1851 -0.0661
11623W        W27092   1.421  10.857  14.288  0.0129  0.2882 -0.0251
11624W        W27093  15.939   8.554   5.913 -0.2524  0.2160  0.1538
11625W        W27094   3.261  15.664  14.779 -0.0160 -0.2678  0.0100
11626W        W27095   6.752  14.832  15.466  0.1033  0.1422  0.2536
11627W        W27096   8.334   1.846   4.099 -0.2042  0.1361  0.1214
11628W        W27097   3.723  16.947   4.021 -0.0047 -0.2286  0.0611
11629W        W27098  11.234  18.057  14.706 -0.1495 -0.2087 -0.1013
11630W        W27099  14.548  12.421  12.079  0.2555  0.0363 -0.1484
11631W        W27100  15.489  14.067  13.224  0.1427  0.3161 -0.1445
11632W        W27101  10.514  11.348  14.275 -0.0791 -0.0962 -0.3147
11633W        W27102  11.696   2.659   4.993 -0.2955  0.2475 -0.0120
11634W        W27103   7.901  13.187   4.396 -0.0899  0.2580 -0.0009
11635W        W27104   0.568   6.186  14.238 -0.0116  0.0802 -0.0975
11636W        W27105   0.801   6.367  11.100  0.1176 -0.0657  0.1188
11637W        W27106   4.799   4.898  12.439 -0.0199  0.0710 -0.1202
11638W        W27107  15.215   0.559  12.563  0.1942  0.0285 -0.3591
11639W        W27108  16.802   6.657  10.979 -0.0416 -0.2901  0.3753
11640W        W27109   5.457  13.803   5.678  0.2017  0.0102  0.3694
11641W        W27110   7.084   0.995   0.613  0.1731 -0.0615 -0.0593
11642W        W27111   6.720  16.751   0.197 -0.0651 -0.2842  0.0700
11643W        W27112   2.532   1.835  15.255  0.0419  0.5735  0.0235
11644W        W27113  12.730   1.798   4.300  0.1260  0.2386  0.4078
11645W        W27114  10.901   9.040   4.384  0.1139  0.3136  0.0406
11646W        W27115   3.755  16.744   2.093 -0.2734  0.0068  0.0748
11647W        W27116  17.491   9.766   3.183 -0.0414  0.0171 -0.0990
11648W        W27117  14.508  17.614   4.064 -0.1021 -0.2165  0.3498
11649W        W27118   6.877   9.218   2.379  0.2294  0.1948  0.1664
11650W        W27119   3.194  17.953  11.252  0.1279 -0.3347  0.3641
11651W        W27120   5.661   6.529  12.618  0.0288 -0.0411  0.0124
11652W        W27121  10.271  17.210   4.454  0.1979 -0.1218 -0.0303
11653W        W27122   7.777   8.226  15.852  0.1657  0.0106  0.0686
11654W        W27123  12.792   4.303   5.234  0.0543  0.0907  0.0761
11655W        W27124   2.642   3.633   4.371 -0.1567 -0.3115 -0.3590
11656W        W27125  14.844   6.476   3.272  0.2974  0.0605 -0.0536
11657W        W27126  13.930   3.562  11.800  0.2692  0.0413  0.0205
11658W        W27127  11.846   8.775  12.848  0.0890 -0.0587  0.0509
11659W        W27128  17.436   1.489   2.243  0.2802  0.1337  0.3543
11660W        W27129   1.997   7.632  14.862 -0.1707  0.3355  0.1910
11661W        W27130   4.138  11.981   2.087 -0.1946 -0.1996 -0.0483
11662W        W27131  12.573  10.269   5.924  0.1450 -0.2658 -0.0008
11663W        W27132   8.263   2.984   1.218  0.2515  0.0201  0.0601
11664W        W27133   2.540   0.254  13.121  0.0311  0.0641 -0.2448
11665W        W27134  13.043   9.805  11.360  0.0233 -0.1409 -0.0266
11666W        W27135  11.970   0.042  15.440  0.0354 -0.1270 -0.0514
11667W        W27136  12.380  17.039  15.944 -0.0138  0.1453  0.0097
11668W        W27137   6.083   9.841  15.742  0.2493 -0.1950 -0.0755
11669W        W27138  11.678  16.576  16.309  0.0217 -0.1465  0.1736
11670W        W27139   8.532   3.501  12.273 -0.0643  0.1510  0.0705
11671W        W27140   2.286  11.503   6.224  0.0941  0.0530  0.1142
11672W        W27141   7.071  15.263   3.347 -0.0893 -0.0460  0.0887
11673W        W27142   9.180   7.600   6.251 -0.2822  0.2441 -0.0743
11674W        W27143   8.610   1.976   2.108  0.0735 -0.0744  0.1054
11675W        W27144   6.010   5.457   0.055  0.0782  0.0691 -0.1422
11676W        W27145  10.392  15.585  15.880  0.1735  0.1314 -0.1488
11677W        W27146  13.992   0.081  15.860 -0.0247  0.0750  0.2315
11678W        W27147  14.359  13.088   3.192 -0.3674  0.0085  0.0521
11679W        W27148  15.067  10.144  16.284  0.1304  0.2620 -0.0378
11680W        W27149   9.454   4.713   3.616 -0.2621 -0.1720 -0.0798
11681W        W27150   9.001  14.507   2.504  0.2086 -0.0559  0.0029
11682W        W27151  11.235  18.025   4.378 -0.2501  0.3480  0.0191
11683W        W27152  11.878  16.307   1.088  0.0094 -0.0849 -0.1407
11684W        W27153   0.884   6.788  15.500 -0.2176  0.0692  0.1391
11685W        W27154   7.130   4.092  15.963  0.1386  0.0758  0.0726
11686W        W27155   5.353   4.612   4.029  0.0884  0.0412 -0.0209
11687W        W27156  14.562  17.635   2.487  0.2432 -0.2030  0.1740
11688W        W27157   6.132   1.734   2.376  0.0639  0.0762  0.0935
11689W        W27158  17.207  14.056  14.892 -0.1942 -0.3482 -0.0513
11690W        W27159  12.737   2.091  13.177 -0.0304 -0.0650 -0.3679
11691W        W27160   5.338   9.642  16.258 -0.1082 -0.1644  0.0256
11692W        W27161  16.197   3.837   1.250 -0.0488 -0.0323  0.2317
11693W        W27162  15.468   0.905   3.587  0.1186  0.1861 -0.2463
11694W        W27163  11.349  16.095  14.869  0.2783  0.0098 -0.1195
11695W        W27164  15.877   2.882  14.921  0.1677 -0.0055  0.3466
11696W        W27165   0.680  12.285  12.650  0.2953 -0.0812 -0.1250
11697W        W27166   5.090  12.786  12.686 -0.0447 -0.2489  0.4569
11698W        W27167  16.161  17.455   1.472  0.1043  0.2264  0.0525
11699W        W27168  10.197  10.494  11.797  0.1413  0.0473 -0.4621
11700W        W27169  13.113  12.531  13.397 -0.2248  0.0040 -0.0894
11701W        W27170   9.885  10.093  11.542 -0.0490  0.1102 -0.0245
11702W        W27171  10.033  11.690   0.825  0.1587  0.2713  0.1615
11703W        W27172  16.559   0.333   1.525 -0.1597  0.3485  0.2355
11704W        W27173   2.879  16.650   3.623 -0.0749  0.0857  0.0287
11705W        W27174   5.603   4.727  12.393 -0.1475 -0.2894  0.1268
11706W        W27175  12.644   9.577  11.743 -0.0517 -0.1949  0.0970
11707W        W27176   5.392   5.480  15.074  0.2893 -0.0173 -0.1894
11708W        W27177   9.062  16.564   4.025  0.0677 -0.2092  0.0751
11709W        W27178   4.713  12.654  13.148  0.1486 -0.0327 -0.0590
11710W        W27179  11.565   6.365   2.828 -0.2721 -0.0002  0.0625
11711W        W27180  14.585  10.110   5.302 -0.0897  0.0845 -0.1528
11712W        W27181   4.409   5.136   4.839  0.0938  0.0359 -0.0375
11713W        W27182  16.457   6.976   0.767  0.0501 -0.1531 -0.1420
11714W        W27183  16.562   0.501  14.194  0.0784  0.1040  0.0160
11715W        W27184  17.185   7.508  15.212 -0.2486  0.0068 -0.0568
11716W        W27185   0.804   7.773   3.805 -0.0659  0.0340  0.0859
11717W        W27186   0.843  11.654   5.271  0.1780  0.0591  0.0675
11718W        W27187  11.457   8.739   3.130 -0.0297 -0.2384 -0.0818
11719W        W27188  16.518  13.858   2.629 -0.1379  0.2019  0.3543
11720W        W27189   2.643   6.454   2.787 -0.1458 -0.2793  0.1727
11721W        W27190  16.407   0.936   3.514 -0.4326  0.3022  0.0662
11722W        W27191  14.585   6.682  11.667 -0.1180 -0.0086 -0.0114
11723W        W27192  12.866   8.580   4.198  0.2321 -0.0159 -0.1882
11724W        W27193  13.491  12.752   2.129  0.0684 -0.3586  0.1628
11725W        W27194  10.158   7.636  11.199 -0.1264 -0.1110  0.3527
11726W        W27195  12.837  14.828  12.771  0.0948 -0.3667  0.0732
11727W        W27196  14.835   4.250   0.373  0.1980 -0.3705  0.0796
11728W        W27197   3.200   0.196   4.129  0.1201  0.3016 -0.0118
11729W        W27198  17.219  17.883  10.077  0.1389 -0.0747 -0.0553
11730W        W27199   7.564  13.497  12.607  0.1346 -0.2440  0.1550
11731W        W27200   3.937   5.732  14.393  0.1063  0.1196  0.0633
11732W        W27201  16.864   8.376  13.910 -0.0109 -0.1939  0.0977
11733W        W27202   2.031  17.776   4.443  0.1167  0.0760  0.0843
11734W        W27203  16.891   6.575  12.423 -0.1426 -0.0466  0.0873
11735W        W27204   5.870  12.233  15.434  0.2938  0.1605 -0.2935
11736W        W27205   6.792   7.548   5.287  0.1916  0.1673  0.1030
11737W        W27206  14.306  11.333   2.942  0.1751 -0.0086 -0.0218
11738W        W27207  13.556   2.744  14.950 -0.1969 -0.1526 -0.2572
11739W        W27208   1.047  12.871  13.128 -0.2684  0.0440 -0.1726
11740W        W27209  15.333  14.288   1.525 -0.0583 -0.1534  0.1293
11741W        W27210   0.492   2.739  11.098 -0.0162 -0.0665  0.2261
11742W        W27211   7.484  13.512   2.241 -0.3815 -0.0342 -0.2805
11743W        W27212   1.203  12.786  12.382 -0.0916  0.0850 -0.1006
11744W        W27213  10.824  15.827  14.388  0.0482 -0.2048 -0.2265
11745W        W27214  10.238   3.617   2.752 -0.2929  0.0082 -0.0021
11746W        W27215  14.611   3.479   1.868  0.0853  0.1811  0.2009
11747W        W27216   1.436  15.177  13.507  0.0262 -0.3067 -0.0045
11748W        W27217   2.724   4.546  13.737 -0.2233  0.1070  0.0954
11749W        W27218   1.320   0.093   1.442 -0.1222  0.4045 -0.2882
11750W        W27219   7.952   3.594  11.963  0.1083 -0.0142  0.0589
11751W        W27220   6.777   8.909   1.984 -0.1274  0.0956  0.0708
11752W        W27221  14.673  13.121   4.434 -0.0175  0.3090 -0.3150
11753W        W27222   5.033   8.623  14.831 -0.2036  0.0017 -0.2162
11754W        W27223   3.993   2.540   0.180 -0.0744 -0.3062 -0.0303
11755W        W27224   7.931   6.308  12.515  0.0933  0.2279 -0.4671
11756W        W27225  13.995   0.789  16.062  0.5532  0.0552  0.0171
11757W        W27226   7.974   1.524   2.523 -0.2888  0.1892  0.3631
11758W        W27227   5.800   7.808  14.247  0.0473 -0.0499  0.0055
11759W        W27228   4.085  17.644  16.228  0.2709  0.1644  0.1026
11760W        W27229  16.768   1.773   5.409 -0.0567 -0.2147 -0.0182
11761W        W27230   9.432  11.761  12.932  0.1324 -0.2948  0.0843
11762W        W27231   3.791   1.469  14.911 -0.0582 -0.2256 -0.0436
11763W        W27232   3.502  10.998   0.084 -0.3685  0.0356  0.1631
11764W        W27233   2.487   3.091  14.927  0.0792 -0.1498  0.0573
11765W        W27234  16.769   5.224   3.434  0.3067 -0.0852 -0.0565
11766W        W27235  16.780   2.548  10.929 -0.0475 -0.2424 -0.0316
11767W        W27236   1.359  11.325  12.219 -0.0627  0.1308  0.1219
11768W        W27237   0.360  17.113   2.377  0.0280  0.0709  0.2563
11769W        W27238   2.543   3.976   0.714  0.1748 -0.1141 -0.1793
11770W        W27239  16.482   5.930  15.755  0.0552 -0.1452  0.1412
11771W        W27240   8.271  17.371  11.357  0.4015 -0.0250 -0.0078
11772W        W27241   6.115   4.040   6.589 -0.0802 -0.0149  0.0243
11773W        W27242   8.281  10.026   2.401 -0.0896  0.2487 -0.0985
11774W        W27243   5.209   2.063   4.283 -0.0629 -0.4028  0.0901
11775W        W27244   1.543  14.070   1.966 -0.3492  0.2499  0.2308
11776W        W27245   8.515  13.623  13.626 -0.2353 -0.0594  0.3388
11777W        W27246  14.914  12.039  14.531 -0.0058  0.0792 -0.3246
11778W        W27247   1.886  14.414  13.927  0.1842  0.0348 -0.1826
11779W        W27248  13.940  11.977   1.646 -0.2031  0.0226 -0.1486
11780W        W27249  17.887  17.919  16.087 -0.0835  0.2497 -0.1253
11781W        W27250  17.232  17.480  14.783  0.0030  0.0240 -0.0462
11782W        W27251   8.659  16.460   0.221 -0.1896 -0.1218 -0.0782
11783W        W27252  16.932   8.902  12.670 -0.1021  0.2228  0.2286
11784W        W27253   4.858   2.714   3.053  0.1158 -0.1769 -0.0606
11785W        W27254   5.600   3.701   2.697 -0.2569  0.2701  0.2666
11786W        W27255   3.847   4.751  15.077 -0.0859 -0.0476  0.0104
11787W        W27256   4.227   5.736   4.278  0.2398 -0.0105 -0.0397
11788W        W27257   0.800  16.482  16.259  0.0174 -0.0908  0.0427
11789W        W27258   8.203   7.991  12.432 -0.0687  0.2154 -0.0412
11790W        W27259   5.838   5.100   1.385  0.0167 -0.1664  0.1003
11791W        W27260   5.621   5.950   0.371 -0.1423 -0.1057 -0.0759
11792W        W27261  17.839   0.226  11.984  0.3704  0.0967  0.1624
11793W        W27262  17.043   6.773   4.193 -0.1945 -0.0557  0.1265
11794W        W27263   5.903  17.790  14.535  0.3774 -0.1062 -0.0957
11795W        W27264   6.622  13.554  12.395  0.2034  0.0830  0.1051
11796W        W27265  14.875  12.902  12.422 -0.2288 -0.3094  0.0318
11797W        W27266   8.434   7.262  12.101 -0.5327  0.3237  0.0238
11798W        W27267  13.794   4.650   0.125 -0.0655 -0.1671 -0.0947
11799W        W27268   3.842  12.569   1.157  0.1229  0.2349  0.2329
11800W        W27269  17.637  10.680   0.576 -0.0164  0.0588  0.2190
11801W        W27270  11.439  13.044   0.158 -0.0740  0.0846 -0.0891
11802W        W27271   7.043   3.526   4.389  0.2139 -0.0944 -0.1827
11803W        W27272   0.471   7.864   0.717 -0.1774 -0.3171 -0.2945
11804W        W27273  14.299   0.460   1.539  0.1354  0.1166 -0.0212
11805W        W27274   5.979   6.155  14.606 -0.0905  0.0460  0.1467
11806W        W27275  14.535  18.023   0.720  0.2257  0.0765  0.2073
11807W        W27276  15.925   6.048  11.877  0.1552  0.1447  0.2502
11808W        W27277  14.334  11.190   3.471  0.0736 -0.1002 -0.1103
11809W        W27278   9.136  14.077  11.750 -0.2587 -0.1465  0.4222
11810W        W27279  16.787  15.811   4.880 -0.2401 -0.0363 -0.2431
11811W        W27280   7.250   5.701  15.067 -0.0304  0.0818 -0.2893
11812W        W27281  12.916   2.426   2.756 -0.0071  0.1574  0.1028
11813W        W27282  17.964   0.148   4.288  0.0241 -0.3109 -0.1023
11814W        W27283  17.529  15.646   5.931 -0.0559 -0.0769  0.0751
11815W        W27284  15.228   3.589  14.647 -0.1656 -0.3841  0.1632
11816W        W27285   3.595  11.313  14.023  0.0021  0.2642 -0.2346
11817W        W27286   2.459   7.741   4.694  0.0364 -0.1344 -0.4540
11818W        W27287  12.404   1.056   2.546  0.1095 -0.2909 -0.1276
11819W        W27288   1.824   9.536  12.073 -0.5158  0.1250  0.2329
11820W        W27289   1.886  13.446  12.062  0.2149 -0.0688  0.0687
11821W        W27290   7.735   0.860  14.488  0.0292 -0.2664 -0.0310
11822W        W27291  14.945  15.460   1.867 -0.0151 -0.0379  0.2331
11823W        W27292  10.007   8.601   2.385 -0.0680 -0.1471  0.4258
11824W        W27293   0.776   7.623   0.380  0.0687 -0.0669  0.0514
11825W        W27294   1.331  17.408   3.382  0.1011 -0.1726  0.1250
11826W        W27295   1.227   9.703   2.670  0.0262 -0.0714  0.2306
11827W        W27296  14.263   6.889  15.401  0.3530 -0.1829  0.3981
11828W        W27297   0.674   5.655  10.877  0.0114 -0.1605  0.0621
11829W        W27298  12.343  14.938  14.180  0.3442 -0.1895  0.0588
11830W        W27299   6.327   4.287  11.306  0.2110 -0.4844 -0.0126
11831W        W27300   4.243   4.135   2.315 -0.0610 -0.0701 -0.1770
11832W        W27301  17.477   4.151  14.479  0.0595  0.1169  0.0744
11833W        W27302   6.439   9.357   2.085 -0.0584  0.0662  0.0010
11834W        W27303  13.270   9.225   0.091  0.2586  0.0800 -0.0136
11835W        W27304  15.448  14.265   4.007  0.3198  0.1425  0.0395
11836W        W27305   9.675   0.940  12.802  0.2123 -0.1678 -0.0029
11837W        W27306  16.791  16.961  12.478  0.0295  0.0550  0.0007
11838W        W27307   5.961   1.645   0.399  0.0407 -0.2816  0.1331
11839W        W27308  15.888   2.962   1.152 -0.0945  0.0475  0.1292
11840W        W27309   2.692   0.552   3.731  0.0614  0.0597 -0.0585
11841W        W27310   6.317   7.282  10.960  0.0545 -0.1839 -0.1509
11842W        W27311  13.122   6.158   0.570  0.0384  0.1177  0.1647
11843W        W27312   7.735  16.800  11.683  0.0667 -0.0765  0.2457
11844W        W27313  12.883  10.420   2.321  0.1340 -0.2276 -0.1367
11845W        W27314   4.839  10.470  10.878 -0.0887 -0.0918 -0.2571
11846W        W27315   2.266   0.997   1.522 -0.0014 -0.0412 -0.1111
11847W        W27316   6.712   6.285  11.452 -0.1543 -0.0115 -0.1111
11848W        W27317   4.888  16.292   1.533  0.0025 -0.0262 -0.1324
11849W        W27318  14.717  14.195   0.761  0.1041  0.2905  0.0492
11850W        W27319   8.144   4.203  11.620  0.0405  0.0731 -0.1104
11851W        W27320   9.145   1.197  12.168 -0.5074  0.1010 -0.1571
11852W        W27321  17.525  15.109   4.870 -0.0414 -0.0502 -0.2249
11853W        W27322   7.209   5.403   0.272 -0.0916 -0.0007  0.0832
11854W        W27323  16.423  12.586  15.949 -0.0062  0.1196  0.0435
11855W        W27324  17.542   5.585  11.734 -0.1948  0.1261  0.3056
11856W        W27325  13.670   2.920  12.276 -0.0674 -0.0654  0.2420
11857W        W27326  14.907  17.063  16.265  0.1201  0.0582  0.1026
11858W        W27327  13.321   3.157   5.777  0.3542  0.2648 -0.1078
11859W        W27328   8.216  17.293   0.072  0.2136 -0.0497 -0.0179
11860W        W27329   9.896   7.523  10.310 -0.1757 -0.3600  0.0853
11861W        W27330  12.059  12.592   2.827 -0.0120 -0.4524  0.1558
11862W        W27331   1.396   9.960  12.404  0.0866  0.1216 -0.0673
11863W        W27332   0.661  17.185  13.274 -0.0335  0.0900 -0.0400
11864W        W27333   3.885   1.079  11.874 -0.0481 -0.0996 -0.1860
11865W        W27334  14.098   9.490   5.939  0.1539 -0.1610 -0.3132
11866W        W27335  10.641   1.309  11.903 -0.1383 -0.0816  0.0106
11867W        W27336   7.848  17.285  10.964 -0.1638  0.1979  0.1850
11868W        W27337   8.460   6.289  12.687 -0.1692 -0.2000 -0.1745
11869W        W27338  13.502   4.907  15.076  0.0351  0.0073  0.1770
11870W        W27339  12.504   3.019  12.773 -0.0676  0.1716 -0.0352
11871W        W27340  15.653  15.210  16.274 -0.0010 -0.0152 -0.0139
11872W        W27341  11.727  11.697  13.083 -0.3693 -0.0456 -0.0323
11873W        W27342   0.166  17.757   1.800  0.0564  0.2442  0.0909
11874W        W27343  12.763   0.266   2.334 -0.1133 -0.0527  0.1386
11875W        W27344  14.504  16.871   2.091  0.1251  0.0437  0.2083
11876W        W27345   3.022  17.458  13.919  0.0228 -0.2094  0.2457
11877W        W27346   4.869  13.684  16.140 -0.0589  0.0753  0.0341
11878W        W27347  13.182   5.737   3.691  0.3931  0.1288  0.0370
11879W        W27348   7.960   4.247  16.215  0.2382  0.0115 -0.0610
11880W        W27349  17.327  10.754  13.608 -0.1734 -0.3667  0.0407
11881W        W27350  12.417   0.772  11.963 -0.2133 -0.0672  0.1901
11882W        W27351  17.348  12.249  13.974  0.1120  0.1901  0.0638
11883W        W27352   8.457   0.708   3.474 -0.2127  0.2461 -0.1673
11884W        W27353   2.116  17.403   4.754  0.0191  0.0363 -0.0721
11885W        W27354  14.500   5.617  16.196  0.1215 -0.0677 -0.2756
11886W        W27355   1.867   3.759  15.695 -0.0886  0.3213  0.2356
11887W        W27356   0.845   9.738   0.573 -0.0282  0.2418  0.0047
11888W        W27357  10.794  12.309   4.769 -0.0844 -0.1037  0.0838
11889W        W27358  17.258   1.844  12.068  0.0977  0.1590 -0.2258
11890W        W27359   4.039  13.305  10.967 -0.3140 -0.1077  0.3125
11891W        W27360   1.803  17.925   0.004  0.1080 -0.4809 -0.1727
11892W        W27361   0.898   2.793   1.220 -0.1204 -0.2038  0.1610
11893W        W27362   8.594  12.937   5.625 -0.1918 -0.0397 -0.1957
11894W        W27363  11.098  14.476  15.959 -0.0240  0.0649  0.1668
11895W        W27364  13.292   9.709   1.052  0.1485 -0.1474  0.0696
11896W        W27365   8.338  10.928   2.781  0.2532 -0.1386  0.0927
11897W        W27366   0.882   7.152  12.503 -0.1138 -0.0194  0.1537
11898W        W27367  12.991   1.043   2.697 -0.0022 -0.1104 -0.0895
11899W        W27368   7.487  16.435  15.190 -0.4819  0.0470  0.2819
11900W        W27369   0.900   2.437  11.277  0.0762  0.1872  0.0086
11901W        W27370  15.282   4.203  15.816 -0.0163 -0.0218 -0.1092
11902W        W27371  14.347   8.018  15.204 -0.1571 -0.0366 -0.1855
11903W        W27372  11.332   7.708  12.367  0.3388  0.2127 -0.0702
11904W        W27373   1.265   5.511   0.916  0.0819 -0.0627 -0.0820
11905W        W27374  16.127   7.932  10.382 -0.0092 -0.2279 -0.0871
11906W        W27375   7.082  11.885   1.430  0.0847 -0.1923 -0.0070
11907W        W27376   5.765  14.500   1.208 -0.0281  0.1450 -0.1225
11908W        W27377   5.059   2.027   1.432  0.2663  0.0217  0.3102
11909W        W27378  15.985  17.197  14.513  0.0679  0.1330  0.0611
11910W        W27379   5.991  10.744  11.394  0.0285  0.3567  0.0606
11911W        W27380   8.647   0.025   4.869 -0.4275  0.0024  0.0880
11912W        W27381  15.512   3.996   2.172  0.2190  0.5257 -0.0773
11913W        W27382   6.474   4.629  14.945 -0.0600 -0.0128  0.2961
11914W        W27383  16.433  14.670  15.697 -0.1373  0.0597 -0.1749
11915W        W27384   9.014  13.274  11.205 -0.0365 -0.3055 -0.2552
11916W        W27385  11.899   0.764   1.320 -0.1470  0.2958  0.2801
11917W        W27386   7.484   5.333   0.691  0.3077 -0.1587  0.2191
11918W        W27387   3.914  14.839  16.237 -0.4301 -0.0632 -0.1065
11919W        W27388  11.566  10.639   5.221  0.1156  0.0798 -0.2448
11920W        W27389  16.487  17.195  13.250 -0.0259  0.0041  0.0870
11921W        W27390   0.301   7.032  15.604 -0.0500  0.2274 -0.0276
11922W        W27391   1.006  10.143  11.239  0.2141  0.0927  0.2165
11923W        W27392   8.405   8.921  15.677  0.0652 -0.0737 -0.1125
11924W        W27393   4.973   0.268  15.292  0.3740  0.0452  0.3541
11925W        W27394  14.516  17.298  14.244  0.1463  0.1616 -0.3023
11926W        W27395   5.412   0.360  12.966 -0.1855 -0.3399 -0.2213
11927W        W27396   9.507   7.748  14.742 -0.0513  0.2901 -0.1392
11928W        W27397  11.426   7.008   0.596 -0.0519 -0.0823 -0.0656
11929W        W27398   1.422   7.292  12.300  0.1215  0.0564  0.2377
11930W        W27399  10.790  17.933   4.154 -0.1117  0.0007 -0.0776
11931W        W27400   4.525  17.891  15.307  0.1391  0.2103 -0.0011
11932W        W27401   6.405  12.434  14.281  0.2066 -0.0124  0.1793
11933W        W27402  14.718   9.785  12.651  0.3553  0.0661 -0.0256
11934W        W27403   1.955   0.265  16.043  0.1083 -0.1523  0.2437
11935W        W27404   5.391  10.222   4.385  0.0019  0.0119 -0.0924
11936W        W27405  13.100   5.289  15.299 -0.2570 -0.0248  0.0402
11937W        W27406  15.899  12.521   4.208 -0.0965 -0.1277 -0.1418
11938W        W27407  15.876  16.652   4.672  0.1437  0.0347 -0.1369
11939W        W27408   0.668   9.522  12.805  0.1766  0.1714  0.2652
11940W        W27409  15.543   3.849  16.072 -0.2688 -0.3588 -0.0552
11941W        W27410  16.927   5.455   2.439 -0.0293  0.3863 -0.1259
11942W        W27411   9.807  10.018   1.138 -0.1656 -0.2417  0.0604
11943W        W27412   9.867   0.093  11.688 -0.1983 -0.1319 -0.0520
11944W        W27413   9.399  10.704  14.698  0.1843  0.1603  0.0998
11945W        W27414   8.378  16.144  14.406  0.0452 -0.3388  0.0368
11946W        W27415  12.529  16.220   3.419  0.0437  0.3230 -0.0513
11947W        W27416   3.585   5.685  13.147 -0.0031 -0.0773 -0.0627
11948W        W27417  10.845   6.841  11.128  0.2051 -0.1641  0.0884
11949W        W27418   9.906  15.983   4.485  0.2544  0.0534 -0.1143
11950W        W27419  17.906   0.056   4.966  0.0718  0.1161  0.0325
11951W        W27420   1.398   2.724   3.341  0.1975  0.2378 -0.1820
11952W        W27421  11.057   9.711   1.028  0.2047 -0.0888  0.2412
11953W        W27422   4.652  14.975  13.874  0.2923 -0.1338 -0.3069
11954W        W27423  16.045  16.597  11.431  0.1270 -0.2029 -0.0345
11955W        W27424   5.739   9.405  12.054 -0.0396 -0.2370  0.1417
11956W        W27425   2.178  14.808  11.091  0.2012  0.1449  0.4447
11957W        W27426   4.506   3.347   4.168 -0.1231 -0.0936  0.3621
11958W        W27427   8.906   8.615  11.067 -0.0240  0.7126  0.0340
11959W        W27428   6.234   1.402  12.489  0.2493  0.0665  0.1280
11960W        W27429  13.708  15.251  15.650  0.1639  0.3089  0.1096
11961W        W27430  11.967   0.143   2.288 -0.2357  0.1020 -0.1838
11962W        W27431  10.306   0.277   5.302  0.0773 -0.0274 -0.0985
11963W        W27432  10.673   7.049   5.331  0.0220  0.2774 -0.3067
11964W        W27433  11.464  14.830   0.573 -0.0839 -0.3407 -0.4153
11965W        W27434   8.494  13.330   5.284  0.1452  0.1069 -0.3117
11966W        W27435  11.409   7.527   4.279  0.0036  0.2772 -0.3262
11967W        W27436   8.419  17.857  12.261 -0.1861 -0.0575 -0.0584
11968W        W27437  11.481  16.309  12.265 -0.2183  0.1100 -0.0197
11969W        W27438  11.603   1.639  10.559 -0.2992 -0.1790  0.0894
11970W        W27439  14.708   2.512  15.233  0.0549 -0.0374 -0.0595
11971W        W27440  15.404  14.245   4.546 -0.0121  0.2231 -0.1462
11972W        W27441  11.788   6.505   4.258 -0.0500  0.1509  0.2204
11973W        W27442  12.778  14.066  16.319  0.0135  0.1156 -0.0996
11974W        W27443   6.280  13.225   4.805 -0.1336 -0.0262  0.0671
11975W        W27444   0.514  15.045  13.161  0.1356 -0.1001 -0.0117
11976W        W27445  12.377   5.982   0.661  0.2311  0.1650  0.1630
11977W        W27446  10.638   6.348  10.784 -0.0457 -0.1534 -0.2984
11978W        W27447  14.877   2.792  13.877  0.2483 -0.3211 -0.1168
11979W        W27448  12.587   9.802  15.119  0.0922  0.0514  0.2573
11980W        W27449  13.754  17.465   4.740  0.2003  0.1197 -0.1606
11981W        W27450  12.824   8.606   5.038 -0.0886  0.1992 -0.2644
11982W        W27451  10.731   6.554   0.825  0.0850 -0.0561  0.1493
11983W        W27452  15.961   1.785  15.535  0.2616 -0.3583 -0.0360
11984W        W27453  15.613   5.957  16.225  0.0062  0.2201 -0.3236
11985W        W27454   1.584   6.409   0.641 -0.2869 -0.0866 -0.0017
11986W        W27455  10.992   0.889  11.929 -0.3058 -0.3098 -0.1220
11987W        W27456   8.667   9.502  12.598  0.2352 -0.3152  0.0954
11988W        W27457  11.251  15.604   2.409 -0.0235 -0.1344 -0.0712
11989W        W27458   3.602   3.112  13.911 -0.0108  0.0417 -0.3119
11990W        W27459   3.623   9.590  11.772 -0.0790  0.0749  0.1770
11991W        W27460   3.541  16.365   1.021 -0.0728 -0.3371 -0.0020
11992W        W27461   2.403  14.240   0.841 -0.3228  0.2433  0.0716
11993W        W27462   3.736   6.479   4.767  0.1614  0.0799  0.0124
11994W        W27463   6.820   0.444   1.321  0.1959 -0.3321 -0.1235
11995W        W27464   5.801   3.939  16.084 -0.1057  0.3195 -0.2127
11996W        W27465   5.785   8.389   3.082 -0.2002 -0.1319 -0.0020
11997W        W27466   0.633   4.848   3.278  0.1026  0.4965 -0.2862
11998W        W27467  17.932  13.192  14.130  0.2048  0.3176 -0.1593
11999W        W27468  16.322   1.384   0.602  0.3663  0.1592  0.0529
12000W        W27469  17.216  11.859  11.973  0.0332  0.1901  0.0008
12001W        W27470  16.502  12.402   0.118  0.2451  0.0511  0.1164
12002W        W27471  13.033   6.413   5.664 -0.0075  0.0548 -0.0513
12003W        W27472   9.789   8.265  15.071  0.0991  0.0610 -0.0159
12004W        W27473  16.175   5.796   4.396 -0.2168 -0.0781  0.1574
12005W        W27474   1.221   5.006  13.040  0.0497 -0.0369  0.0705
12006W        W27475   9.292  15.100  13.077  0.2673  0.2678  0.2349
12007W        W27476  17.527  10.343  15.879 -0.0329 -0.1263  0.1420
12008W        W27477   8.856  14.072   3.313  0.2754  0.1394 -0.2459
12009W        W27478   6.327   6.230   0.307  0.0607 -0.4742  0.1804
12010W        W27479   8.145  10.817  14.040 -0.2183  0.0426 -0.3080
12011W        W27480   0.319   4.400  12.776  0.0060  0.1622  0.0619
12012W        W27481   2.039   1.720  14.374  0.2091 -0.0785 -0.1334
12013W        W27482  12.730   4.445  12.524 -0.0966  0.2917  0.4412
12014W        W27483  10.478   5.373   5.396 -0.2495 -0.0678  0.1895
12015W        W27484   0.926   4.053   0.503 -0.0637  0.0109  0.2471
12016W        W27485   0.731   1.458  11.322  0.1412 -0.0216 -0.1446
12017W        W27486   8.851  15.897  14.236  0.1044  0.1416 -0.0157
12018W        W27487   7.692   6.464  13.953 -0.1271  0.1845  0.1250
12019W        W27488   5.997  11.599  14.510  0.1219  0.1084 -0.1076
12020W        W27489   3.631  14.000  12.485  0.1465 -0.0675 -0.0119
12021W        W27490   6.041  13.645   5.003 -0.1052  0.1311  0.0789
12022W        W27491  16.167   8.323  11.723  0.1015 -0.0945 -0.1779
12023W        W27492  13.497   3.083   2.853 -0.0472  0.0220 -0.4005
12024W        W27493   4.066  13.213  13.177  0.2147 -0.0546 -0.3513
12025W        W27494   8.633  14.772   5.627  0.0303  0.1491 -0.0203
12026W        W27495   3.424  10.336  14.708  0.2635  0.1003 -0.1120
12027W        W27496   0.610   3.756   0.231 -0.2068  0.1894 -0.1457
12028W        W27497   9.057  12.894  14.779 -0.0579  0.0140 -0.1794
12029W        W27498  15.610  14.531  13.306  0.1371  0.0194 -0.0843
12030W        W27499  12.741  13.985   2.942 -0.0794  0.1854  0.2032
12031W        W27500  17.407  10.399   5.266 -0.1869 -0.3788  0.0654
12032W        W27501  16.401  13.520   0.117  0.0035 -0.0750  0.1429
12033W        W27502   4.352   9.905   0.183  0.0837 -0.1191 -0.1152
12034W        W27503   4.420   4.089   3.991 -0.0756  0.2548  0.1224
12035W        W27504  15.687   4.509  12.076 -0.3388  0.0051 -0.1781
12036W        W27505  15.749   5.483   4.504 -0.0205  0.4090  0.0076
12037W        W27506  16.223  17.178   3.848  0.0342 -0.2173 -0.0117
12038W        W27507   9.387   0.095  14.165  0.0552 -0.1806  0.1141
12039W        W27508  16.126  14.351  11.998  0.0537 -0.0160  0.0194
12040W        W27509   7.585  17.869   3.314 -0.0199 -0.1108 -0.2500
12041W        W27510  14.461   2.483  14.774 -0.0780 -0.0530 -0.2253
12042W        W27511  16.057   0.301  12.173 -0.2194 -0.1277 -0.0076
12043W        W27512   7.321   9.210  12.550 -0.0267  0.0748 -0.0627
12044W        W27513   0.651   5.648  11.414 -0.0681  0.3231 -0.0334
12045W        W27514   4.646  14.644  14.942 -0.1901 -0.2432  0.0960
12046W        W27515  17.101  17.296  12.085 -0.2192 -0.0560  0.0189
12047W        W27516  14.000   7.212  12.451  0.0226 -0.0547  0.1520
12048W        W27517  14.537  13.023  13.854  0.1779  0.4806 -0.1077
12049W        W27518   8.473   0.311  14.207 -0.1839 -0.0505  0.1325
12050W        W27519  14.147  15.424  11.154 -0.0728  0.1318  0.0735
12051W        W27520  13.134   4.061  13.786  0.2303 -0.2240 -0.0650
12052W        W27521  11.467   6.456  14.253  0.1392  0.0433  0.1843
12053W        W27522   1.830  17.699  15.815  0.1351  0.0992 -0.1060
12054W        W27523  12.101  15.074  13.759 -0.0314 -0.2862  0.0958
12055W        W27524   5.553   3.026  13.663  0.0848 -0.1845  0.2982
12056W        W27525   9.862   4.607  14.095  0.0410  0.0701  0.0654
12057W        W27526   8.996  16.333   2.973  0.1055 -0.1025 -0.2217
12058W        W27527   9.285  17.733  15.128 -0.1023  0.0475 -0.2885
12059W        W27528   0.369  16.235   2.212  0.2886  0.0145 -0.4737
12060W        W27529   5.641   6.889   4.369 -0.1291  0.1903 -0.0547
12061W        W27530  10.994   6.307   5.018 -0.1183  0.1936  0.1065
12062W        W27531   0.228   0.143  16.047  0.1895  0.0095 -0.1553
12063W        W27532   9.591   5.158  13.990  0.0560  0.1763  0.1833
12064W        W27533  13.521   6.159   4.396 -0.2712  0.0124 -0.2189
12065W        W27534   8.928   9.871   2.428 -0.0348  0.3809 -0.1499
12066W        W27535  14.429  11.765  15.818  0.1314 -0.0620 -0.1090
12067W        W27536   0.583  13.772   4.206 -0.0880 -0.1510  0.3587
12068W        W27537  16.033   0.267  16.185 -0.2493  0.0278  0.1461
12069W        W27538   7.565   2.258  14.029 -0.0216  0.2549  0.0971
12070W        W27539  10.783  12.527  13.444 -0.2235  0.1674 -0.0565
12071W        W27540   2.335  11.004  12.302 -0.0591 -0.1446 -0.1812
12072W        W27541  13.013   5.394  14.276 -0.1166  0.0572  0.1709
12073W        W27542   3.274   9.094   3.369  0.2971  0.1201 -0.0879
12074W        W27543  14.428  11.152  10.996  0.0882 -0.0423 -0.0405
12075W        W27544  16.326   2.685   3.777  0.1533 -0.0520  0.1799
12076W        W27545   4.663   0.298  13.722 -0.3307  0.1498 -0.1394
12077W        W27546   3.521   7.711   3.806  0.3567  0.0746 -0.1284
12078W        W27547  13.491   4.726   1.397 -0.4353  0.3049  0.0291
12079W        W27548   1.359  16.211   2.650  0.0977  0.0777 -0.1844
12080W        W27549  14.484  13.767  14.944  0.3298  0.0182 -0.4096
12081W        W27550   7.432   4.383  16.190  0.4108  0.2713 -0.2267
12082W        W27551  15.783  17.110   2.127 -0.0241  0.1590  0.0250
12083W        W27552   2.169   5.709   1.771  0.1826  0.0162 -0.2408
12084W        W27553   8.526   5.455  11.480  0.1301 -0.2058  0.0052
12085W        W27554   1.996  14.568   2.497 -0.1886 -0.1000  0.4016
12086W        W27555  11.364   2.315   1.914  0.0899  0.1400 -0.0899
12087W        W27556   0.690  10.891  14.999  0.0584  0.2515  0.1162
12088W        W27557  16.165  16.028   5.885 -0.0243  0.0760  0.0735
12089W        W27558  15.168   9.028  12.195  0.1718 -0.3101 -0.3054
12090W        W27559   9.287   0.736  11.887  0.1875  0.0543 -0.0606
12091W        W27560   3.077  12.198  11.204  0.0503  0.0796 -0.1353
12092W        W27561   1.385   0.320  12.345 -0.0583 -0.1305 -0.0674
12093W        W27562   4.834   4.561   0.878  0.0498 -0.1985  0.1360
12094W        W27563  17.162   9.304   0.792  0.0307  0.0089 -0.0835
12095W        W27564  12.605  11.744   2.801  0.0452 -0.0938  0.3446
12096W        W27565  14.557   8.014  13.782 -0.2530  0.0514 -0.0055
12097W        W27566   0.810   8.181  15.393 -0.2223 -0.0640 -0.3725
12098W        W27567  10.634   8.928  15.607  0.0530  0.0149  0.0484
12099W        W27568   8.412   2.935   2.270 -0.0212 -0.1263 -0.1400
12100W        W27569  15.754   2.422  14.769 -0.2279  0.1515  0.2745
12101W        W27570  10.194   9.852  11.237 -0.0962  0.2848  0.1052
12102W        W27571   0.182  10.790  15.823 -0.2368 -0.0890  0.4124
12103W        W27572   2.081  16.727   2.182 -0.2107 -0.0117 -0.1635
12104W        W27573  10.288  17.475   3.639 -0.0804 -0.2103 -0.0687
12105W        W27574  12.372   3.579  14.428  0.0894  0.0196 -0.1156
12106W        W27575  18.089  10.290   0.528  0.2832  0.0349 -0.0548
12107W        W27576   6.647  16.357   4.890  0.1405  0.1732  0.1008
12108W        W27577   2.673  11.006   3.111 -0.1804  0.1843  0.1054
12109W        W27578   5.289  12.236  10.458  0.0828  0.1849 -0.0885
12110W        W27579  16.941  12.206  13.668  0.4059  0.0402  0.1557
12111W        W27580   2.807  12.827  14.307  0.1825 -0.1581 -0.0899
12112W        W27581   1.055   6.350  14.160 -0.0487  0.1008 -0.1811
12113W        W27582  11.174  15.000  13.576 -0.3156  0.0031  0.0158
12114W        W27583   0.703   1.925   0.640 -0.0088  0.1497 -0.1817
12115W        W27584  15.477   8.846   4.649 -0.0591 -0.0787  0.2843
12116W        W27585   4.375   1.895   3.605  0.0908 -0.2695  0.2952
12117W        W27586   1.052   8.988  10.281  0.2742  0.1498  0.1576
12118W        W27587   3.973   8.286   1.288 -0.1566 -0.0352  0.1874
12119W        W27588   3.697  15.711   5.431  0.0867  0.4177 -0.0891
12120W        W27589   5.361   7.518  14.262  0.3302 -0.1237  0.0681
12121W        W27590   4.518   9.014  12.458 -0.0678 -0.3065 -0.2216
12122W        W27591  11.560  11.475  13.528 -0.0638  0.0491  0.1143
12123W        W27592  13.149   8.562   2.281  0.1933  0.2695 -0.1505
12124W        W27593   3.345  17.969   5.558  0.2349 -0.0908  0.1444
12125W        W27594   1.241   2.684  13.782 -0.3029  0.0457  0.1078
12126W        W27595   9.088   8.119   4.933  0.1144  0.0383  0.0739
12127W        W27596   1.248  11.045   1.588 -0.0203 -0.1591  0.1528
12128W        W27597   2.451   5.855  15.365  0.0565 -0.1678 -0.0360
12129W        W27598   6.342   8.206  13.003  0.1245  0.1385 -0.0957
12130W        W27599  16.993  14.919  15.980  0.0529 -0.2639  0.1281
12131W        W27600  16.211  14.925   5.228 -0.0518  0.3430 -0.0061
12132W        W27601   9.098   3.743  12.084 -0.0095  0.2028  0.1256
12133W        W27602   8.215   1.193   1.497 -0.2244 -0.1241 -0.2361
12134W        W27603   0.770  14.955  11.228 -0.0972 -0.2015 -0.0798
12135W        W27604   2.795  10.197  11.785 -0.2034 -0.0732  0.1210
12136W        W27605  13.833  16.614   4.227 -0.1939 -0.0926 -0.1350
12137W        W27606  12.212   4.842   0.860 -0.1098  0.2274 -0.1275
12138W        W27607  16.963   8.695   0.256 -0.0334  0.1171 -0.1280
12139W        W27608   8.761   6.664  15.936  0.0860 -0.2914  0.3149
12140W        W27609  10.554  11.886   5.724 -0.0806 -0.1351 -0.0490
12141W        W27610   2.250  15.229   0.194 -0.0100  0.0750 -0.1483
12142W        W27611  16.722  15.444  11.691  0.2782  0.2719 -0.1401
12143W        W27612   4.074   4.933  11.224  0.0327  0.0771 -0.1812
12144W        W27613  14.855  10.544  12.289  0.0746 -0.1798 -0.1142
12145W        W27614  13.118  16.042   1.609  0.3749 -0.4471 -0.0012
12146W        W27615   3.063   6.625  15.998 -0.3963 -0.0012 -0.1234
12147W        W27616   9.059  15.444   4.729 -0.1582 -0.1341  0.1262
12148W        W27617   0.509   3.623  11.133  0.3021 -0.2604  0.0315
12149W        W27618   2.956  13.230  15.964 -0.0917  0.0607 -0.1280
12150W        W27619   7.220  11.818  15.078  0.0702  0.1078 -0.0461
12151W        W27620   6.396   7.422   4.458  0.0990 -0.1147 -0.3285
12152W        W27621   8.692   7.285  14.159 -0.0320 -0.3554  0.1753
12153W        W27622  16.981   4.725   1.386 -0.1814 -0.1403  0.1949
12154W        W27623  16.069   4.787  15.609  0.2496  0.2111  0.0140
12155W        W27624   1.639   6.248  13.170  0.1220 -0.3501  0.0068
12156W        W27625  17.704   1.103  11.559  0.0139 -0.1358 -0.1206
12157W        W27626  14.766  17.821  15.716  0.0453  0.0161 -0.2486
12158W        W27627  14.943   3.980   0.788 -0.2275  0.0568 -0.0674
12159W        W27628   5.923   3.529   3.398  0.2531  0.1018  0.0892
12160W        W27629   3.955  11.055  10.967 -0.2514  0.1477 -0.3053
12161W        W27630  15.468   3.820   5.459 -0.3357 -0.0154 -0.2147
12162W        W27631  15.886   0.765  15.193 -0.0576 -0.1351  0.1754
12163W        W27632  11.066   1.448   3.664 -0.1534 -0.0358 -0.2513
12164W        W27633   8.107  15.462  13.715  0.1997 -0.1949  0.0126
12165W        W27634  14.253  10.185  11.847 -0.0139  0.0206  0.2010
12166W        W27635  11.535  15.877  11.879 -0.3132 -0.0578 -0.0113
12167W        W27636  15.415   1.310   4.280 -0.1151 -0.1067  0.1807
12168W        W27637   7.468  12.996  15.466  0.2693 -0.0983  0.3574
12169W        W27638  17.084   2.713  12.356 -0.0797  0.2041  0.0193
12170W        W27639  13.407   2.532   6.151  0.2373 -0.1985 -0.0040
12171W        W27640  16.865   8.119  15.754  0.2454 -0.0023 -0.1278
12172W        W27641   7.949   4.697   2.254  0.0246 -0.2753 -0.0435
12173W        W27642  16.576   0.897   1.701  0.1086 -0.1373  0.1965
12174W        W27643  11.432   7.841   6.044  0.1922  0.1073 -0.1173
12175W        W27644  11.098   0.684   0.851  0.0718 -0.1785  0.0247
12176W        W27645   8.093  11.486   3.420  0.2160  0.1947 -0.0975
12177W        W27646   0.022  16.357  11.293 -0.2418  0.0847  0.1512
12178W        W27647   2.256   6.195   3.898  0.0232  0.1108  0.1009
12179W        W27648   8.350  14.482   2.739  0.0687 -0.0878  0.2910
12180W        W27649  13.995   1.252   1.776  0.1755  0.0826 -0.1373
12181W        W27650   3.455  15.450   2.513 -0.0778 -0.3331 -0.0906
12182W        W27651  12.761   5.906  14.413  0.2283  0.1998 -0.1211
12183W        W27652   8.738   4.249  15.067  0.2703 -0.0429 -0.1569
12184W        W27653  12.463  13.006   0.001 -0.0739 -0.2229 -0.0858
12185W        W27654   3.199  14.504   1.457  0.2248 -0.1443  0.2067
12186W        W27655  10.821  10.480   3.354  0.0006  0.1586 -0.1360
12187W        W27656   7.385   6.418   4.695 -0.0777  0.1551  0.0619
12188W        W27657   0.708   4.214   4.793  0.2820 -0.0998 -0.1246
12189W        W27658   0.659   6.883  16.088 -0.1074 -0.1503 -0.0520
12190W        W27659   5.120   8.518   2.079  0.0081 -0.4275 -0.1242
12191W        W27660   1.235   5.334   4.370  0.1655 -0.1984 -0.1831
12192W        W27661   0.503   4.862  11.845  0.1680  0.0727 -0.0254
12193W        W27662   4.576   8.826   1.077  0.2361 -0.5082 -0.0243
12194W        W27663   6.578   0.161   5.633 -0.0910 -0.0577 -0.0599
12195W        W27664   0.387  12.393   2.265 -0.0639  0.0683  0.1267
12196W        W27665  17.968   7.555   4.631  0.1341 -0.1439 -0.3795
12197W        W27666  12.979   9.639   3.376 -0.1286 -0.2910  0.0307
12198W        W27667  12.899   7.406  11.200  0.2180 -0.0114 -0.1631
12199W        W27668   4.075   8.323   4.555  0.4584 -0.1249 -0.1086
12200W        W27669   5.643  12.902  10.392 -0.0014 -0.0864 -0.1068
12201W        W27670   7.184   3.336  14.956  0.0237 -0.0236  0.0088
12202W        W27671   9.245  15.580   2.534  0.0555  0.1325 -0.1973
12203W        W27672  17.367  17.487  13.487  0.0957 -0.3483 -0.0428
12204W        W27673  16.436   7.515   0.695 -0.1072  0.0540 -0.2219
12205W        W27674   8.839  12.685  15.986 -0.0276 -0.0125 -0.1364
12206W        W27675  14.114   7.585  14.114  0.1355 -0.2454 -0.0363
12207W        W27676   5.747   0.489  11.538 -0.1000  0.0764  0.0247
12208W        W27677   1.682   2.522  14.074 -0.0656  0.2259  0.2848
12209W        W27678  12.603   3.048   1.972  0.0617 -0.2142 -0.1843
12210W        W27679   5.994  10.233   5.201 -0.0727 -0.0431 -0.0693
12211W        W27680   2.881  14.861  14.613  0.1982  0.0377 -0.2911
12212W        W27681  14.090  12.068  16.246 -0.2086  0.1184 -0.0567
12213W        W27682  17.580   2.187  11.737  0.0944 -0.1362 -0.1006
12214W        W27683  10.675  12.961  15.134 -0.2130  0.1305 -0.0464
12215W        W27684   3.918   2.704  13.218 -0.1578 -0.0468 -0.4173
12216W        W27685   9.908   0.601   1.256 -0.1079  0.1339  0.1041
12217W        W27686   2.256   6.363  10.863  0.0807 -0.1427 -0.1657
12218W        W27687  16.189   3.228   5.738  0.1546 -0.3694  0.0736
12219W        W27688  13.285  15.602  11.229 -0.0366 -0.1641  0.1974
12220W        W27689  12.392   5.651   2.337  0.3160 -0.0979  0.0009
12221W        W27690   9.396   5.361  16.259  0.1996 -0.2570 -0.0932
12222W        W27691  14.934  13.888  13.243 -0.1233 -0.3557  0.0363
12223W        W27692  15.528  14.485   3.406 -0.0459 -0.2789 -0.1171
12224W        W27693  16.441   9.385  11.261 -0.0116 -0.0809  0.2722
12225W        W27694  17.871   3.783   0.093 -0.0034 -0.1763 -0.2570
12226W        W27695   0.232  15.545   2.968 -0.1753 -0.2608  0.2369
12227W        W27696   8.628   5.076   0.337 -0.0339 -0.5057 -0.2146
12228W        W27697   6.735   6.862   3.318 -0.0730 -0.2127 -0.2893
12229W        W27698  13.256  17.388  13.004  0.0569  0.0693  0.1611
12230W        W27699   0.312   5.467   2.691 -0.4845 -0.0757  0.0702
12231W        W27700   9.814   1.636   2.743  0.0950 -0.2005  0.1496
12232W        W27701  12.487  12.792   4.246  0.3479 -0.0289 -0.0030
12233W        W27702  15.161   5.771  13.896 -0.0922  0.0505  0.2176
12234W        W27703  15.443   8.828   2.296  0.0096 -0.0406  0.1079
12235W        W27704   8.892   9.248  13.085  0.0695  0.2295  0.2297
12236W        W27705   4.294   3.100  12.601  0.0781  0.0230 -0.0270
12237W        W27706   3.481  14.966  13.734 -0.1481  0.2595 -0.0568
12238W        W27707  16.324  15.882  13.361 -0.1391  0.0015 -0.0844
12239W        W27708   6.382   2.369   3.276 -0.1204 -0.0272 -0.1541
12240W        W27709  16.365   4.415  15.757  0.0393  0.2948 -0.0708
12241W        W27710   0.306   4.957  13.402 -0.5504  0.2024  0.2877
12242W        W27711   5.469  13.534  13.196  0.1900 -0.1470 -0.0698
12243W        W27712   5.365   9.790   1.208 -0.3678  0.1824 -0.1679
12244W        W27713  11.097   7.665  16.157 -0.2078 -0.0381 -0.1076
12245W        W27714   5.955   0.531   5.269 -0.2155  0.0120  0.2280
12246W        W27715  13.565  16.894  13.809 -0.1085  0.4925 -0.2537
12247W        W27716   1.460   4.241  13.938  0.0926  0.2049 -0.3281
12248W        W27717   7.217   7.697  11.521  0.1352 -0.1708  0.2800
12249W        W27718   7.535   1.910  12.350  0.0989  0.2354 -0.1639
12250W        W27719  14.652  16.297   0.167  0.0544 -0.0195 -0.0144
12251W        W27720  15.064   4.506   0.796 -0.0603  0.0901 -0.3041
12252W        W27721   6.562  12.800  13.498  0.0177 -0.1391 -0.0028
12253W        W27722  12.706  17.578  14.651 -0.1988 -0.0383 -0.0509
12254W        W27723  15.216  14.198  15.419 -0.6273  0.1014 -0.0405
12255W        W27724  15.987   0.413   0.339 -0.1510 -0.1305  0.0961
12256W        W27725  10.431   5.989  15.084 -0.0938  0.1943 -0.4368
12257W        W27726   3.974   0.737  15.562 -0.2417  0.4233 -0.1064
12258W        W27727  12.013  15.026  12.436 -0.1151  0.0137 -0.0996
12259W        W27728   6.526  15.792  12.807 -0.1376 -0.1679 -0.1356
12260W        W27729   7.225  11.294   1.300  0.1335 -0.0573 -0.0702
12261W        W27730   0.291  16.373  15.495  0.2581 -0.0516 -0.0584
12262W        W27731   1.022   2.927  16.244  0.0237  0.0709  0.2157
12263W        W27732  13.788  12.522  14.842  0.0889  0.2398  0.1618
12264W        W27733  12.503  13.486  11.100 -0.0655  0.2433  0.1183
12265W        W27734  13.641  11.164  15.472  0.0474  0.2182  0.1266
12266W        W27735   6.369   5.086   2.624  0.2463  0.0044  0.0884
12267W        W27736   5.340  13.969   2.954 -0.0635  0.1596 -0.2110
12268W        W27737  12.362  14.214   2.580  0.0914  0.1536  0.1868
12269W        W27738  11.989   2.192   5.084 -0.0485  0.0188 -0.1409
12270W        W27739  12.348   6.790  16.021 -0.1820  0.1742  0.1298
12271W        W27740  11.389   6.532  11.879  0.2327 -0.1771  0.1781
12272W        W27741  11.797   6.462  16.187 -0.2262 -0.0836  0.0840
12273W        W27742   3.681   8.569  14.317 -0.2170 -0.2047 -0.0792
12274W        W27743   3.786   1.498  14.056 -0.3081  0.0394 -0.2196
12275W        W27744   5.320   3.252   2.042  0.0352 -0.1649  0.1132
12276W        W27745   7.592  14.786   4.974  0.1388  0.0186 -0.0393
12277W        W27746   1.478  14.751   5.380 -0.0285  0.1981  0.1708
12278W        W27747  13.491   5.238   3.133  0.0673 -0.0795  0.0607
12279W        W27748  11.008   4.795  11.805  0.2801  0.2396 -0.1003
12280W        W27749  17.396   7.206  14.141 -0.0966 -0.1411 -0.0815
12281W        W27750  14.541   2.413  16.013  0.0411 -0.0307 -0.1372
12282W        W27751   3.403   4.714  13.066  0.2525 -0.3038 -0.1209
12283W        W27752   8.976  17.564  12.110  0.0224  0.1308  0.2547
12284W        W27753   2.114  12.988  13.756 -0.1585 -0.0045 -0.3230
12285W        W27754  11.576  16.459  13.891  0.3759  0.3966 -0.0666
12286W        W27755   9.426  12.826   4.001  0.1460  0.1680  0.0506
12287W        W27756   1.243   9.465  14.485 -0.0881  0.3463 -0.0538
12288W        W27757  15.931   8.277   3.102  0.0869  0.0597  0.1345
12289W        W27758   6.216  14.697   0.069 -0.2185  0.1802  0.1134
12290W        W27759  11.424  11.477  16.068  0.1048  0.1246 -0.3429
12291W        W27760   8.127  15.146   3.438 -0.0898 -0.1238  0.3066
12292W        W27761  12.187   4.828  15.506 -0.1994 -0.1131 -0.2055
12293W        W27762   1.639   1.267  14.678 -0.1722 -0.3341 -0.1515
12294W        W27763   3.166   5.677   2.906 -0.0128 -0.1309  0.3610
12295W        W27764   5.728   0.482   1.030  0.3206 -0.1081 -0.1751
12296W        W27765   0.656  17.783   0.320 -0.0873 -0.1474  0.1349
12297W        W27766  12.117   4.242   0.381  0.3898  0.0006  0.0062
12298W        W27767   5.935   8.878  11.919 -0.1104 -0.2110  0.2799
12299W        W27768   9.333   6.521  12.210 -0.2896  0.0681  0.2460
12300W        W27769  14.050  10.822   5.279  0.1665 -0.1188  0.0490
12301W        W27770   0.626   7.581  12.448  0.2451 -0.0436  0.3338
12302W        W27771  12.690  17.816  10.987  0.0228  0.1272 -0.1659
12303W        W27772   5.130   3.560  11.808 -0.2386 -0.1074 -0.0581
12304W        W27773  17.797   1.906   0.892  0.4256  0.1367  0.1198
12305W        W27774  10.910   5.813  13.451 -0.0394  0.1413 -0.0230
12306W        W27775  17.021  17.920  11.363  0.1908  0.0691  0.0040
12307W        W27776  10.733  13.015  12.052 -0.1787  0.0626 -0.0085
12308W        W27777  13.986  16.376   2.049  0.0988  0.3513 -0.2131
12309W        W27778  14.235  13.986  11.114 -0.1209 -0.1969  0.2822
12310W        W27779   5.435   1.841  13.637 -0.2400 -0.0826 -0.2097
12311W        W27780   2.573   5.575   2.873 -0.1056  0.0117  0.1493
12312W        W27781   7.073   0.359   0.768  0.1124 -0.2729  0.0403
12313W        W27782   5.428  14.223  14.460  0.0639 -0.0748  0.0479
12314W        W27783  12.757  12.613  10.238 -0.1365  0.0384  0.4019
12315W        W27784  15.157  13.342  11.683  0.1855  0.0322  0.1954
12316W        W27785   4.025  14.415  15.989  0.0085 -0.0649  0.0429
12317W        W27786   1.267   8.420   0.188  0.0732  0.1261 -0.4167
12318W        W27787  16.645  10.064   3.763  0.1306  0.0668  0.1244
12319W        W27788  12.551   9.939  15.620  0.0265  0.1522  0.0707
12320W        W27789   5.626   4.994   5.876 -0.2079  0.0145 -0.0466
12321W        W27790   9.742  17.161   3.718 -0.0099  0.0005 -0.1593
12322W        W27791  17.108  14.692   1.121 -0.1311 -0.3962 -0.1592
12323W        W27792  16.068   4.018  16.193 -0.1859 -0.1435  0.0214
12324W        W27793   3.434   3.937   0.314 -0.0945  0.1588 -0.0490
12325W        W27794  15.891   2.471   3.608  0.2261  0.1064  0.1705
12326W        W27795   9.470  16.961  11.496  0.0456  0.2486  0.3196
12327W        W27796  14.142   3.794   0.169  0.3322  0.1552  0.3164
12328W        W27797  14.728  16.066   2.548  0.1845  0.1752 -0.3045
12329W        W27798  15.594   0.835  11.279 -0.0273  0.1525 -0.0731
12330W        W27799  17.326  11.446  14.177  0.3283  0.2253 -0.0334
12331W        W27800   5.165  17.493   3.503  0.3785  0.1694  0.1835
12332W        W27801   8.068  15.422   4.348  0.0585 -0.0906  0.0511
12333W        W27802  15.347   0.209  11.746 -0.1811  0.1104  0.1972
12334W        W27803   6.173   7.426  15.741 -0.1364  0.1361  0.0467
12335W        W27804   9.369  11.424   5.119  0.0450  0.1349 -0.0229
12336W        W27805   8.161  13.952  12.933  0.1469  0.2667  0.1925
12337W        W27806   6.072   6.329  13.281  0.0964  0.2503 -0.1855
12338W        W27807   1.429   7.096   3.888  0.2744 -0.1739  0.3139
12339W        W27808  13.098   1.975   2.399  0.0928  0.2931 -0.0928
12340W        W27809   3.187  15.201   0.823  0.1472 -0.0403 -0.0636
12341W        W27810   3.437   3.245   1.713  0.0500  0.3466 -0.3016
12342W        W27811   4.504  16.779  10.965 -0.2690  0.2042 -0.0053
12343W        W27812  13.874  15.935  15.399 -0.0565  0.4322  0.0689
12344W        W27813  14.725  11.591   0.199  0.6082 -0.1930  0.0621
12345W        W27814   1.500   3.245  12.700 -0.0546 -0.1874 -0.2534
12346W        W27815  15.388   8.455   4.378 -0.0031 -0.2200 -0.2296
12347W        W27816  14.020  10.374  14.518 -0.2544 -0.0317 -0.1573
12348W        W27817   7.737   6.123   3.549  0.0021  0.1469 -0.0539
12349W        W27818  12.490   8.030  13.075 -0.0411 -0.1688 -0.4257
12350W        W27819  11.551   8.653  11.803  0.0251 -0.0816  0.0532
12351W        W27820   6.827   1.019  11.350  0.0073  0.1026  0.1929
12352W        W27821   6.601   5.001   5.105 -0.1536  0.0395 -0.2041
12353W        W27822   0.912   0.953  13.170  0.2096 -0.0655  0.0139
12354W        W27823   1.387   7.753   4.541  0.2242 -0.0833  0.2863
12355W        W27824  13.887  13.829  15.518  0.1740 -0.1418 -0.1532
12356W        W27825   6.446   6.363   0.994  0.3204 -0.0568 -0.1804
12357W        W27826   4.815   5.624  10.909  0.2039  0.2859  0.1340
12358W        W27827   3.464  13.620   2.338 -0.2704  0.3348  0.1403
12359W        W27828   2.698   4.475   0.018 -0.0049 -0.1964 -0.2341
12360W        W27829   1.867  10.725   6.047 -0.1523  0.1527  0.1933
12361W        W27830  15.907   8.059  10.804  0.0748 -0.0857  0.0954
12362W        W27831   5.736  10.141   1.381 -0.0932 -0.1463 -0.1030
12363W        W27832   5.252  15.484  10.775  0.0279  0.0029  0.1195
12364W        W27833  15.227   0.579  12.084  0.0456  0.2535 -0.1408
12365W        W27834   0.755   0.590  12.190  0.1983  0.4130  0.1266
12366W        W27835   1.512  15.901   1.420  0.0392 -0.3728 -0.1641
12367W        W27836   1.469  14.902   1.769 -0.1975 -0.0486 -0.0314
12368W        W27837  10.854   6.968   4.307 -0.0918 -0.1586 -0.0669
12369W        W27838  14.646  10.463  15.224 -0.0490  0.1341  0.1112
12370W        W27839  10.243   2.368   0.847 -0.0927 -0.0878 -0.0350
12371W        W27840   3.512  14.770  13.115 -0.0585  0.2779  0.0153
12372W        W27841  12.454  17.858  12.475 -0.2252  0.3750 -0.1196
12373W        W27842   5.624  15.631  16.091 -0.2231 -0.0534 -0.1640
12374W        W27843  14.067   8.432  14.802 -0.0493 -0.0683  0.2429
12375W        W27844  14.925   4.490   1.520 -0.0674 -0.0146  0.0172
12376W        W27845   7.603   0.035  15.790 -0.0891 -0.3164  0.3202
12377W        W27846  12.139   2.736  14.147 -0.2518 -0.0434 -0.0327
12378W        W27847   5.708   3.193   5.194  0.1047 -0.1020  0.0132
12379W        W27848   2.424  14.324  11.073  0.1211 -0.0534  0.2109
12380W        W27849  13.354   6.597   3.661 -0.3557 -0.0259 -0.0666
12381W        W27850  13.893  11.088  14.129  0.0001  0.0249  0.1438
12382W        W27851   1.544   6.619   2.519 -0.0333 -0.0477 -0.1996
12383W        W27852   3.534  14.527  11.349 -0.0450 -0.1169  0.0634
12384W        W27853   8.186   6.411   0.376  0.2214 -0.1381 -0.1225
12385W        W27854  14.130   3.512   5.317  0.1310 -0.2079  0.0638
12386W        W27855  17.294   0.256  12.163  0.0534 -0.1772 -0.0791
12387W        W27856  15.201  12.088   2.829  0.0277 -0.0361 -0.1836
12388W        W27857   5.444  13.349   4.292 -0.0788  0.0967  0.1094
12389W        W27858  10.723   1.092   3.461  0.1186  0.2079 -0.3839
12390W        W27859   4.599   9.441  11.772  0.0964 -0.2273  0.1374
12391W        W27860   8.154   5.541  11.859  0.2374  0.1766 -0.1842
12392W        W27861   5.847  15.143   5.256  0.0445 -0.2599  0.1651
12393W        W27862  17.691  16.151  12.705 -0.0178  0.1533 -0.2369
12394W        W27863   2.252   1.766  11.915 -0.2436  0.0234 -0.0267
12395W        W27864   7.192   7.844   3.936  0.1470 -0.0877 -0.1474
12396W        W27865  15.459   2.268   1.408  0.3265  0.2859  0.0648
12397W        W27866   4.107  12.640   0.140 -0.0395  0.1101 -0.2357
12398W        W27867  12.721  17.213   1.630 -0.1941  0.0876  0.0598
12399W        W27868  15.197  17.198   4.584  0.2271  0.2395  0.2816
12400W        W27869  11.001  14.983   0.445 -0.1744 -0.3034 -0.0343
12401W        W27870   8.979   0.021   5.235  0.1255  0.2067 -0.1953
12402W        W27871   8.779   4.771   1.377 -0.0570  0.0310  0.1635
12403W        W27872   4.651  13.012   2.222 -0.2466 -0.0881 -0.1337
12404W        W27873   6.684   4.060  14.780 -0.1299 -0.1483  0.1495
12405W        W27874  10.366   8.936   4.259 -0.2125 -0.1875  0.1004
12406W        W27875  15.381   9.574   5.363  0.1354  0.0053  0.0338
12407W        W27876  14.125   7.095   1.017  0.0849 -0.4062  0.2285
12408W        W27877  13.413   0.833   0.412  0.0056  0.2442 -0.2351
12409W        W27878   1.116   6.334  12.313  0.2381  0.0212 -0.0473
12410W        W27879   4.763   5.616   0.921 -0.3233 -0.1303  0.1249
12411W        W27880  16.611   9.781   1.069  0.1788 -0.0854 -0.0227
12412W        W27881   0.252  10.548   0.881  0.1723 -0.0373 -0.0046
12413W        W27882   1.412  14.862   3.808 -0.2364 -0.2956  0.0791
12414W        W27883   5.325  17.944   1.568  0.0829  0.1602 -0.1055
12415W        W27884   6.360  14.250   2.670 -0.1201  0.1364  0.2381
12416W        W27885   3.216   6.384   4.773 -0.0651 -0.0765  0.4699
12417W        W27886  16.090  12.693   3.291  0.2478 -0.3388 -0.0996
12418W        W27887   4.525   0.332   0.709 -0.0652 -0.1426  0.2535
12419W        W27888  10.749   8.434  13.443 -0.3289  0.1731 -0.0268
12420W        W27889  15.234  14.893  11.922  0.0575 -0.1542  0.3352
12421W        W27890   3.590  13.216   4.175  0.0054  0.0955  0.2367
12422W        W27891   6.395  10.492   5.199 -0.0704  0.0144  0.1216
12423W        W27892  15.420   9.959  12.636 -0.0201 -0.1293 -0.2237
12424W        W27893   1.780  17.034  11.931 -0.1674  0.1493  0.0243
12425W        W27894  15.993   3.698   5.119 -0.1769  0.1130  0.2375
12426W        W27895   5.713  13.485   1.397 -0.1216  0.0816 -0.1376
12427W        W27896   3.986  12.519   3.562 -0.3438  0.1396  0.0150
12428W        W27897  14.874   9.661   3.050 -0.0170  0.1752  0.0301
12429W        W27898  10.714  11.452  11.992  0.1512  0.2504 -0.1655
12430W        W27899   4.376  15.428  11.245  0.1562  0.0087  0.0266
12431W        W27900   3.197  12.111   2.439  0.2194  0.2098 -0.1850
12432W        W27901  15.591   7.840   5.235 -0.3208 -0.0513 -0.0849
12433W        W27902   1.176   5.312   2.814  0.1878  0.0545 -0.2559
12434W        W27903  16.434  15.646  12.425  0.0502  0.3546 -0.0797
12435W        W27904  11.109   8.452  13.790 -0.1630 -0.0613 -0.2298
12436W        W27905  11.455   1.617   4.554 -0.3890  0.3609 -0.0414
12437W        W27906  11.901  12.900   0.017 -0.0939 -0.1749 -0.0807
12438W        W27907   9.578   8.803   5.910 -0.0246 -0.1275  0.2049
12439W        W27908  11.924  16.249  11.923 -0.1836  0.0203 -0.1582
12440W        W27909  13.947   1.636  14.135 -0.0211 -0.0539  0.1366
12441W        W27910  13.740   6.706   0.382 -0.0181 -0.0919 -0.1035
12442W        W27911  10.066   5.384  11.015  0.0822 -0.1141  0.1177
12443W        W27912   5.315  14.127   5.257  0.1047 -0.1934 -0.2699
12444W        W27913   9.339   8.019  15.594  0.0615  0.1251  0.3027
12445W        W27914   1.683   0.444   0.557  0.4248  0.1940 -0.0653
12446W        W27915   4.860  10.290  16.063  0.1014  0.0361 -0.0019
12447W        W27916  15.837  14.126   0.543 -0.3230 -0.2502  0.0333
12448W        W27917   4.952  13.488   3.468 -0.1531  0.1416  0.0248
12449W        W27918  13.107  17.981  14.497 -0.1461  0.1623  0.1065
12450W        W27919  11.680  17.531  16.103 -0.2388 -0.1547  0.1197
12451W        W27920  12.721  17.513  15.920  0.1394 -0.2194  0.2134
12452W        W27921   4.495  16.564   1.869 -0.1249  0.1721  0.0882
12453W        W27922   2.967   3.681  12.414  0.1601 -0.1051  0.0014
12454W        W27923  12.631   0.827   6.060 -0.2776 -0.1765  0.0748
12455W        W27924   5.420   0.860  12.342  0.0856 -0.2261  0.3846
12456W        W27925  15.567   0.440  10.850  0.1504 -0.1068 -0.1020
12457W        W27926  11.146   4.424   3.344 -0.1103  0.0041 -0.1103
12458W        W27927  10.197   7.644  15.207  0.1209  0.2138  0.1295
12459W        W27928  14.045  14.659  14.967 -0.0262 -0.2244  0.1780
12460W        W27929   9.835  13.912  12.794 -0.0858 -0.3302  0.0531
12461W        W27930   1.222  14.820  12.626 -0.3949 -0.0119 -0.2067
12462W        W27931   2.777   6.044   0.917  0.2872  0.3887 -0.0110
12463W        W27932   3.545  18.091   0.567 -0.0543 -0.1552  0.0372
12464W        W27933  16.935   7.077   3.689  0.0000  0.0143  0.1425
12465W        W27934  15.648  13.868  12.172  0.1165 -0.0062 -0.0713
12466W        W27935   1.514  15.813   1.980  0.1770 -0.1963  0.1266
12467W        W27936   7.240   2.469   5.841  0.1315 -0.1578 -0.2868
12468W        W27937  13.925   7.598   0.236 -0.1787  0.0105 -0.1710
12469W        W27938   1.067  16.962  13.551  0.0308 -0.3547  0.1386
12470W        W27939  16.829   6.899  10.480  0.0846 -0.0874 -0.1670
12471W        W27940  17.663   5.202   1.857  0.0309  0.0670 -0.1440
12472W        W27941   8.852  10.944   0.763  0.1688  0.0919 -0.2718
12473W        W27942  11.019   8.983  16.223 -0.0841  0.3939  0.0969
12474W        W27943   1.705   6.986   2.873  0.1113  0.0251 -0.1238
12475W        W27944  12.852  12.867   5.121 -0.1327  0.0860  0.2542
12476W        W27945  15.218  17.283  12.726  0.0459  0.0336  0.2681
12477W        W27946   8.518  17.735   2.305  0.3771 -0.3395 -0.2881
12478W        W27947   0.887  15.640   5.256  0.0153  0.1865 -0.0381
12479W        W27948  11.029  16.299  14.018 -0.0469 -0.2555 -0.0154
12480W        W27949   1.705  16.347   5.396  0.1514  0.0029 -0.1345
12481W        W27950  11.037   9.145   1.115 -0.1359 -0.0374 -0.0904
12482W        W27951   1.682  13.522   0.664 -0.1770  0.2308 -0.0930
12483W        W27952  14.879   0.873  12.942 -0.0786  0.1829 -0.1292
12484W        W27953   0.122   7.719  12.290  0.2071  0.2461 -0.2500
12485W        W27954  11.532  11.526   0.779  0.1844  0.1180 -0.1550
12486W        W27955   4.145   0.929   2.516 -0.0453  0.0270  0.1540
12487W        W27956  13.954   7.495   4.348  0.2627 -0.1020  0.1045
12488W        W27957   1.195  11.892  15.928 -0.1456 -0.0698 -0.0448
12489W        W27958   8.272   4.962   2.521  0.1914 -0.0461  0.0777
12490W        W27959   0.093   3.390  12.602 -0.2069  0.1663  0.4788
12491W        W27960   0.138   5.511  11.435 -0.1055 -0.2527  0.0916
12492W        W27961  13.872  17.998   3.030  0.2948  0.2197 -0.1777
12493W        W27962   1.304   4.686  12.538  0.0923 -0.3086  0.0375
12494W        W27963   7.520   3.652  15.488 -0.0093 -0.1619 -0.1195
12495W        W27964  14.810   6.998   2.400  0.2434 -0.1020  0.3069
12496W        W27965   9.654   6.766   3.078  0.0786 -0.2430 -0.0140
12497W        W27966   9.418  11.844  15.505 -0.0504  0.2706  0.0493
12498W        W27967   1.866  17.557   1.131 -0.2524  0.1710  0.3129
12499W        W27968  12.322   8.713  15.953 -0.2689 -0.3924  0.3612
12500W        W27969  16.855  12.302  14.254  0.2360 -0.1336 -0.2976
12501W        W27970   6.190  17.735   4.565  0.0603  0.0624  0.1327
12502W        W27971  10.498  10.328   2.952 -0.0422  0.2383 -0.0381
12503W        W27972  15.124   5.326  11.640  0.3144 -0.1232  0.3940
12504W        W27973  12.506  13.904  12.053  0.1351 -0.0135 -0.0510
12505W        W27974   6.944   0.804  12.404  0.1175  0.2977  0.0946
12506W        W27975   3.996   7.229  13.021  0.0750  0.1675  0.1237
12507W        W27976  10.574  13.950  12.559 -0.1510  0.3975  0.2164
12508W        W27977   7.021  12.360   1.204 -0.2784 -0.1980 -0.0717
12509W        W27978   4.849  14.213   5.101 -0.2743  0.3285 -0.0779
12510W        W27979  17.165  12.923   4.628  0.0944  0.0657 -0.0289
12511W        W27980  10.553  12.777   0.266  0.0336 -0.1299 -0.1474
12512W        W27981  10.677  14.596   1.442  0.0151 -0.0054 -0.0018
12513W        W27982  14.765   6.351   1.914 -0.0817  0.0213  0.2979
12514W        W27983   1.114  17.630   2.910  0.5177 -0.1128 -0.1978
12515W        W27984  12.612  15.974  10.914  0.1913 -0.3760 -0.1717
12516W        W27985   5.709  16.552  15.899 -0.3556  0.0121  0.0777
12517W        W27986   4.086  14.286   4.804 -0.0028 -0.0032 -0.0620
12518W        W27987   7.066  14.944  12.668 -0.1229 -0.0770 -0.2471
12519W        W27988   6.041  14.503  12.945  0.0783  0.2321 -0.0635
12520W        W27989  10.451  14.655   4.847  0.1695  0.0789  0.0152
12521W        W27990   5.962  13.514   2.453  0.2121  0.0277  0.0855
12522W        W27991   3.775  17.258  10.988 -0.0969  0.1775  0.5449
12523W        W27992   5.455  15.143   4.559 -0.0136  0.0836  0.3017
12524W        W27993  15.588   1.423  12.511  0.0577  0.1876 -0.1895
12525W        W27994  15.008   6.664  14.818  0.2433 -0.0371 -0.0451
12526W        W27995   4.060   0.887  16.083  0.1439 -0.0359  0.0365
12527W        W27996  12.490  13.562  12.877  0.0615  0.1197  0.3115
12528W        W27997  17.797  13.695  11.917 -0.0714  0.1153 -0.0941
12529W        W27998   5.168  10.334  15.645  0.1787 -0.1783  0.1982
12530W        W27999   0.120   1.488   1.199 -0.0512  0.0704 -0.1872
12531W        W28000   6.042   0.054   4.306  0.3171 -0.5020  0.0879
12532W        W28001  12.718  11.424  15.901  0.3039  0.1094  0.2565
12533W        W28002   7.677   0.277   5.125  0.1238 -0.3025 -0.1076
12534W        W28003   0.218  17.593   3.595  0.2749 -0.0582 -0.3049
12535W        W28004   3.638   0.485   0.464 -0.0218  0.1854 -0.0004
12536W        W28005   9.686  12.637   0.717  0.1767  0.1801  0.0259
12537W        W28006  15.399   5.671   0.298 -0.0780  0.0910  0.3794
12538W        W28007   5.628   7.460  13.076 -0.3926 -0.3367  0.0009
12539W        W28008  11.785   4.267   3.963  0.2145 -0.2828 -0.0190
12540W        W28009  12.952  15.654  12.418 -0.2465 -0.1831  0.2965
12541W        W28010  13.498  15.501  14.731 -0.1188 -0.0144 -0.1942
12542W        W28011  17.476   6.351   4.730 -0.0835 -0.1223  0.1978
12543W        W28012  14.754  14.807  14.339  0.0339 -0.1187  0.2164
12544W        W28013  17.034   5.026   2.028 -0.0264  0.1825  0.2316
12545W        W28014  10.020  16.303  14.247 -0.4310 -0.0227 -0.0634
12546W        W28015  11.682   4.487   5.238 -0.1035 -0.3519  0.1934
12547W        W28016   6.189   7.559   3.133 -0.1505  0.2006 -0.3334
12548W        W28017  15.861   3.465  15.683 -0.1744 -0.1235  0.0341
12549W        W28018   1.897  12.712   4.901  0.1109  0.2502  0.1210
12550W        W28019  13.449   3.792  11.540  0.0971 -0.4240  0.0595
12551W        W28020   8.045   4.205   1.605  0.0595  0.0006  0.0340
12552W        W28021  11.576  17.698   6.192 -0.0162 -0.1410 -0.1796
12553W        W28022   6.239   8.100   3.966 -0.2528  0.1110  0.2221
12554W        W28023  13.029   8.854  13.979 -0.1838 -0.0146 -0.0196
12555W        W28024   7.196  12.197   5.043  0.2367 -0.1150 -0.1313
12556W        W28025  15.379  11.882   3.342 -0.0767 -0.1577 -0.1501
12557W        W28026   8.632   5.919   1.046 -0.1700 -0.2710 -0.0663
12558W        W28027   5.875  10.236  14.698 -0.0953 -0.3223 -0.2082
12559W        W28028   6.818  16.548   2.196  0.2334  0.0863  0.1014
12560W        W28029  11.521  15.093  11.287  0.2922  0.1378 -0.0448
12561W        W28030   6.608   5.282  15.653  0.0388  0.2908  0.1156
12562W        W28031   7.602  17.952   3.975  0.0108 -0.0151 -0.2235
12563W        W28032  16.350  13.412  14.550 -0.0856  0.0997 -0.0299
12564W        W28033  17.552  11.711   1.329 -0.0642 -0.3566 -0.1302
12565W        W28034  11.929   9.817   0.703 -0.4706 -0.0910  0.1203
12566W        W28035  10.226  13.222  14.022 -0.0428 -0.3121 -0.2837
12567W        W28036  17.335  13.766   2.178  0.2835  0.2239  0.0512
12568W        W28037   8.032  14.894   0.949  0.0744 -0.3137 -0.1329
12569W        W28038   4.124   3.224   1.415  0.0621  0.0821  0.2779
12570W        W28039   6.311   6.189   4.587  0.1830  0.1211 -0.0769
12571W        W28040  17.274   7.489   3.612 -0.0516 -0.0313  0.0609
12572W        W28041   7.976  17.692   5.901 -0.0475  0.1354  0.1767
12573W        W28042   6.043  16.357   3.772  0.1787  0.0926 -0.1990
12574W        W28043  12.487   3.133  12.238 -0.1268 -0.0563  0.3863
12575W        W28044   0.433   2.266  16.250 -0.2256 -0.0741  0.2243
12576W        W28045   7.477   0.254   2.983 -0.0726  0.0731  0.0615
12577W        W28046   1.206  11.772  14.624 -0.6938 -0.2039  0.0790
12578W        W28047  10.194  15.122  11.773 -0.0262 -0.3541 -0.1271
12579W        W28048   7.632   7.842  13.845  0.2931  0.3415 -0.2094
12580W        W28049  14.167   5.960  11.949  0.1905  0.0185  0.2847
12581W        W28050  10.685   6.109  15.545  0.0633 -0.1396 -0.2735
12582W        W28051  12.023  13.851  12.836 -0.1981  0.0896  0.0160
12583W        W28052  18.021  16.489   4.384  0.1514 -0.0448  0.1660
12584W        W28053   4.357  14.149   5.198 -0.0020 -0.0852  0.1863
12585W        W28054   4.077   3.469  12.944 -0.4311  0.1984  0.0718
12586W        W28055  16.826  11.997  15.597  0.0807  0.0622 -0.0233
12587W        W28056   7.154  10.494   2.633 -0.1308  0.0019  0.1807
12588W        W28057   3.977  15.609   0.795  0.0781  0.0069 -0.0671
12589W        W28058  17.958   4.730   1.526  0.2144 -0.0966  0.1807
12590W        W28059   0.960  16.828  12.500  0.0446 -0.0389 -0.3405
12591W        W28060   4.139   1.874  13.423  0.1418  0.3428  0.0304
12592W        W28061   2.029   2.314   1.219 -0.1403  0.0108  0.0813
12593W        W28062   2.241  15.184  10.775 -0.2032 -0.0787  0.3790
12594W        W28063  15.502   7.102  15.165 -0.1526  0.2741 -0.0849
12595W        W28064   5.228   3.908  14.614 -0.0138  0.3401 -0.2971
12596W        W28065  10.685  12.853   5.507  0.2249 -0.0980  0.0873
12597W        W28066   5.223   3.889   0.687  0.1837 -0.2084 -0.0679
12598W        W28067   8.584   9.777   2.054 -0.2554 -0.1824 -0.1157
12599W        W28068  12.042   7.047  10.344 -0.0406 -0.0489  0.2025
12600W        W28069   6.650   7.079   5.293  0.0566 -0.0541 -0.1873
12601W        W28070   9.143  15.795  14.778  0.3362  0.0109 -0.1163
12602W        W28071   4.577   4.832   5.237  0.3580  0.0509 -0.0536
12603W        W28072   5.855   2.787  14.020  0.0709  0.5102  0.3771
12604W        W28073  10.858   0.006   0.752  0.1316 -0.1813  0.0061
12605W        W28074  15.638   1.447   2.067 -0.2591  0.0505 -0.3033
12606W        W28075   2.802   1.644   0.330  0.1218  0.2840 -0.1911
12607W        W28076  14.541  12.062  12.397 -0.0543 -0.1163  0.2367
12608W        W28077  17.849   7.876  15.300  0.0118 -0.1213  0.0102
12609W        W28078   5.217  12.655   0.563  0.0280 -0.0661  0.1567
12610W        W28079   3.050   3.096   0.022  0.1459  0.2916  0.0996
12611W        W28080   0.700   0.701   5.774  0.2152  0.0456  0.1297
12612W        W28081  15.472   8.976   3.566 -0.2518 -0.1289  0.2015
12613W        W28082  15.017  15.599  13.800  0.1612 -0.0660  0.1872
12614W        W28083  10.202   4.087  13.385 -0.1147 -0.0357 -0.1878
12615W        W28084   5.232   0.901  10.707 -0.0774  0.0558 -0.2891
12616W        W28085   8.427  15.496   3.607  0.0663  0.1136 -0.1765
12617W        W28086   2.463   1.223   5.015 -0.3074 -0.2341  0.1346
12618W        W28087  16.435  16.738  15.458  0.0183  0.1413 -0.2643
12619W        W28088   3.243   9.025  15.353  0.1628 -0.0200 -0.1784
12620W        W28089   3.809   2.093  16.257 -0.0212 -0.1057  0.3204
12621W        W28090   6.668   1.063   1.921  0.3711  0.0388  0.4369
12622W        W28091  16.940  18.072   1.458  0.0856 -0.2921  0.1807
12623W        W28092  13.239   0.562  14.565 -0.1998  0.1593  0.2337
12624W        W28093  14.880   1.792  11.786  0.2008 -0.1412 -0.1574
12625W        W28094  16.840  15.066   4.331 -0.0616  0.0514  0.1351
12626W        W28095   0.072   3.412  12.094 -0.2042  0.0047 -0.0799
12627W        W28096  14.820  15.986   3.022 -0.0189 -0.1738 -0.2072
12628W        W28097   0.221   0.508  15.690  0.2469 -0.1107  0.1395
12629W        W28098   0.498  17.281  15.098  0.0556  0.0612 -0.0298
12630W        W28099  13.386  14.411   1.094 -0.0281  0.1758  0.2223
12631W        W28100  12.494   0.005   1.263  0.0314 -0.0407  0.0085
12632W        W28101   3.558  11.213  15.506  0.0206  0.3611  0.1680
12633W        W28102   5.350  17.956  13.090 -0.0640  0.0236 -0.0606
12634W        W28103   3.701  15.773   1.210  0.2196 -0.1961 -0.0388
12635W        W28104   4.300  17.444  15.310 -0.1458  0.1353  0.1321
12636W        W28105  14.120   7.980   0.520 -0.3395 -0.0320 -0.0881
12637W        W28106   4.782  16.442  13.902  0.1724  0.2120  0.1741
12638W        W28107   6.647   3.497  13.508  0.0013 -0.0715  0.0275
12639W        W28108   3.448  12.391   4.793  0.1590  0.1023  0.1008
12640W        W28109  14.247   0.383   4.082  0.3190 -0.0926  0.0585
12641W        W28110   4.132   1.289  13.778  0.2991 -0.0065 -0.0407
12642W        W28111   9.778  14.599   2.578  0.0050  0.0753 -0.0148
12643W        W28112   6.417  18.087   4.807 -0.1314 -0.1956 -0.0420
12644W        W28113   4.076   5.447   2.903  0.3145 -0.0809  0.4127
12645W        W28114  15.154  15.428  14.348 -0.4804 -0.0454  0.1940
12646W        W28115  11.407  15.341   0.476  0.4765 -0.0860 -0.2706
12647W        W28116   5.087   0.084  13.473 -0.0841 -0.0852  0.0010
12648W        W28117   5.098   4.550   2.469  0.0187  0.1565 -0.0848
12649W        W28118   4.731   6.883   0.260  0.0885  0.0362  0.1144
12650W        W28119  16.668   2.552  12.131  0.2389 -0.0969  0.0934
12651W        W28120  16.726  12.641   2.150  0.1221  0.0512 -0.2539
12652W        W28121  10.892  16.030   1.622  0.0533  0.1566  0.2168
12653W        W28122   9.191   4.870   4.051  0.1936 -0.0102  0.2563
12654W        W28123   0.299  12.912  14.142 -0.0414  0.1170 -0.1293
12655W        W28124  15.567  10.407   5.529  0.0270  0.0350  0.0026
12656W        W28125  15.148   0.245  11.046  0.0122  0.1367  0.0243
12657W        W28126   7.167   0.708   1.139  0.2498 -0.1295 -0.1438
12658W        W28127  11.349   0.917  12.290 -0.2242 -0.0194  0.1821
12659W        W28128   7.190  12.666   1.839 -0.0650  0.2609 -0.1944
12660W        W28129  16.096  17.857   1.054  0.0135  0.0080 -0.1162
12661W        W28130   1.457   4.521   4.536  0.0058 -0.1007 -0.0045
12662W        W28131   2.883   2.896   4.968  0.0851 -0.0555 -0.1329
12663W        W28132  16.502   3.577   1.874 -0.0068 -0.0600 -0.0597
12664W        W28133  16.406   2.146  15.495  0.3067  0.2737 -0.3443
12665W        W28134  12.981  13.125  12.556  0.0409  0.1628 -0.0630
12666W        W28135  17.957  16.246   0.805  0.0326 -0.2743  0.1334
12667W        W28136  13.064  11.472  13.244  0.0431  0.0453  0.0103
12668W        W28137   6.940  17.373  10.742 -0.3514 -0.2000  0.0812
12669W        W28138   9.567   8.124   5.141  0.0099  0.0492  0.0944
12670W        W28139  12.541  14.487  16.320  0.0053 -0.0572  0.2649
12671W        W28140   8.758   1.002  13.430  0.3677  0.2081 -0.1115
12672W        W28141  13.198   8.346   2.719 -0.1537  0.1328 -0.0980
12673W        W28142  13.969   7.352  11.655 -0.2870  0.0496  0.0881
12674W        W28143   9.059  17.262   2.745 -0.0371  0.1689 -0.0107
12675W        W28144   2.519  14.880  16.230  0.1625 -0.2349  0.1293
12676W        W28145   7.917   8.898  15.512 -0.1992 -0.1082 -0.1592
12677W        W28146   3.294  17.122  14.845  0.0763  0.0570  0.1473
12678W        W28147   7.450   0.016   2.271  0.2431 -0.1773 -0.0798
12679W        W28148   2.295   9.251   3.866 -0.0026  0.4113 -0.0425
12680W        W28149   0.348  14.963  16.019 -0.1345  0.0100 -0.2032
12681W        W28150   2.494  10.560  11.814  0.1679  0.1636 -0.1284
12682W        W28151  11.595  13.634  12.407 -0.4170  0.1987 -0.0265
12683W        W28152  10.976  10.647   2.936  0.1848  0.3329  0.2619
12684W        W28153  10.637  12.778   4.976 -0.1325  0.1962  0.0412
12685W        W28154   6.390   9.273   2.593  0.0765 -0.1774  0.1509
12686W        W28155   0.725   8.938   4.300  0.3074 -0.3305 -0.2246
12687W        W28156   4.521  12.077  14.430  0.2488  0.0289 -0.0079
12688W        W28157  16.395   6.881  15.388  0.0871 -0.0259 -0.1894
12689W        W28158  16.019  17.615  11.694 -0.0487 -0.4837  0.2217
12690W        W28159  17.826   9.790   1.299  0.0589 -0.2560 -0.0075
12691W        W28160   4.300  10.484  11.067 -0.1618 -0.1154 -0.1708
12692W        W28161  15.732   4.143  13.122 -0.1543 -0.1337  0.0991
12693W        W28162   6.651   3.402   3.768 -0.0538  0.0735 -0.0646
12694W        W28163  10.769  10.080   4.532 -0.1097 -0.5072  0.1191
12695W        W28164   4.761   7.996   3.155  0.1365 -0.0552 -0.1601
12696W        W28165   2.988  16.678  11.875  0.2619  0.0136 -0.2575
12697W        W28166  16.043   9.274   0.472  0.0722 -0.2951 -0.3859
12698W        W28167  15.297   4.842  11.907  0.0184 -0.1812  0.0546
12699W        W28168   6.660  13.868   1.600  0.1017  0.0342 -0.5808
12700W        W28169   5.130  11.592   4.482 -0.1782  0.0149 -0.0485
12701W        W28170   2.801  14.359  12.617 -0.1457 -0.1821  0.1051
12702W        W28171  17.936  17.464  14.386  0.0822  0.0948  0.0558
12703W        W28172   8.222  14.500  13.501  0.2240 -0.2708  0.2653
12704W        W28173   3.652  13.959   4.899 -0.0588  0.0847  0.0705
12705W        W28174  10.798   8.843  13.029 -0.2371 -0.2026 -0.1169
12706W        W28175   5.566   1.997   1.243  0.1998 -0.1982 -0.0923
12707W        W28176   5.480  12.589   2.119 -0.0690  0.3206  0.1843
12708W        W28177   9.859  15.542   0.818  0.0572  0.2412  0.0448
12709W        W28178   0.454  13.486  15.891 -0.0826  0.0899 -0.0681
12710W        W28179   2.570   7.177   5.557  0.0060  0.1412 -0.0880
12711W        W28180   9.989  10.115  13.849  0.1069 -0.1572 -0.0494
12712W        W28181  18.065  10.123  10.887 -0.0022  0.0143  0.0432
12713W        W28182   4.314   7.449   1.348 -0.2128  0.1359  0.1596
12714W        W28183   2.106   9.573  12.538  0.0543  0.1229 -0.1072
12715W        W28184  11.613  11.586   2.434 -0.0269 -0.3322 -0.0940
12716W        W28185   7.961  13.576   0.709  0.0624 -0.2431 -0.2383
12717W        W28186  14.741  16.141  15.373 -0.2979 -0.2008  0.1401
12718W        W28187   6.766   4.185   1.994  0.0185 -0.1532  0.0057
12719W        W28188   3.548   2.214  15.854 -0.4699  0.0844 -0.0925
12720W        W28189   0.279   9.591  14.478  0.4429 -0.1123 -0.0025
12721W        W28190  14.042  15.971  11.126  0.0051  0.3723 -0.0267
12722W        W28191  10.097  12.117  12.694  0.0490  0.1826 -0.0442
12723W        W28192   1.684  11.487  15.341 -0.0965  0.1531  0.0717
12724W        W28193   1.255  17.006   4.441 -0.3465  0.0909  0.1690
12725W        W28194  13.444   7.523   3.487 -0.0445  0.2906  0.3403
12726W        W28195  13.663  17.545   2.995 -0.0407 -0.0466 -0.1034
12727W        W28196   2.482   9.751  11.456 -0.0401  0.2720  0.2058
12728W        W28197   4.710   0.540  15.685 -0.0343  0.0953 -0.0197
12729W        W28198  13.695   3.613   0.448  0.0439 -0.0750  0.2577
12730W        W28199   6.184   6.127  15.461  0.0584 -0.2095  0.1013
12731W        W28200  13.142  11.337  12.329 -0.3601 -0.2549 -0.1469
12732W        W28201  17.447   9.569  11.951 -0.2076  0.1971 -0.1985
12733W        W28202   7.500  17.854   5.748  0.0679  0.2498  0.2535
12734W        W28203  10.290   1.602  13.027  0.1899 -0.0476  0.0384
12735W        W28204  13.434  12.281  11.763  0.1704 -0.3426 -0.0119
12736W        W28205  17.184   1.520  11.496  0.1307  0.1857 -0.1192
12737W        W28206  12.941   0.444   4.483  0.0477 -0.0703 -0.3433
12738W        W28207   0.097  13.976   3.388 -0.0708  0.1002  0.1511
12739W        W28208   3.441   2.604   0.598 -0.0036 -0.1068 -0.0248
12740W        W28209   9.904  11.865   1.754 -0.0782  0.2070  0.2309
12741W        W28210   8.000   0.112  12.679  0.2695 -0.1480 -0.0908
12742W        W28211   1.518  16.802   1.336 -0.1082 -0.0412 -0.0702
12743W        W28212   2.330   7.414   1.119 -0.0599  0.0207  0.1191
12744W        W28213  15.033   9.954   1.201  0.3730 -0.1122  0.0822
12745W        W28214   2.182  12.875   2.290  0.2254  0.1129  0.0906
12746W        W28215  13.669  11.950  13.960  0.3751  0.1234  0.2365
12747W        W28216   9.810  14.876  13.016  0.3718  0.0914  0.1765
12748W        W28217  13.458   8.632  11.474  0.1904  0.0624 -0.0697
12749W        W28218   4.252   2.114   4.072  0.2192 -0.2260  0.1971
12750W        W28219  13.846   8.821   5.812  0.2884  0.2645 -0.2270
12751W        W28220   2.108  13.563   4.715 -0.0390 -0.1556  0.0237
12752W        W28221   6.011  17.227  10.875  0.3180 -0.0916  0.2665
12753W        W28222   3.187  10.556   4.589 -0.1013 -0.1705 -0.1077
12754W        W28223   7.428  14.198   1.220 -0.0066  0.0774  0.0081
12755W        W28224  17.025  13.675  15.124 -0.4810  0.3003  0.2699
12756W        W28225  16.375   7.163  14.922 -0.1047 -0.2037 -0.3096
12757W        W28226  11.385   0.476  11.058  0.2960  0.2183 -0.0288
12758W        W28227   7.227   2.263   3.092 -0.1669 -0.2177 -0.0319
12759W        W28228  17.221   6.027   0.429 -0.0677 -0.1699 -0.1754
12760W        W28229   0.005   4.392   4.470  0.3803  0.2732  0.0420
12761W        W28230  14.191   0.519   3.603 -0.0723  0.0733  0.0725
12762W        W28231   8.294   9.547  12.085  0.0012  0.1780 -0.0345
12763W        W28232   7.520   3.416   4.489 -0.1900 -0.2065 -0.0848
12764W        W28233   8.086   4.344   4.851 -0.1359  0.2214  0.1394
12765W        W28234   7.583   4.995   1.113  0.0423  0.1166 -0.0176
12766W        W28235   2.405  10.502  13.072  0.0937 -0.1887 -0.1814
12767W        W28236  15.789   3.072  12.265  0.1849 -0.1680  0.2936
12768W        W28237  12.276  15.240  12.020 -0.0077  0.0610 -0.1420
12769W        W28238   8.756   5.139  10.779  0.1946  0.2047  0.2304
12770W        W28239  15.999  17.165   0.184 -0.1834  0.2719  0.1476
12771W        W28240   7.318   3.062  13.812  0.1202 -0.2449 -0.0381
12772W        W28241  14.284  14.948   0.720 -0.3546  0.0674  0.0055
12773W        W28242  12.648   1.107  14.213 -0.1716 -0.2341  0.0917
12774W        W28243  10.175   2.848   3.486 -0.0239  0.1913 -0.0224
12775W        W28244  11.671  17.162  12.670  0.1106  0.4913  0.1044
12776W        W28245   8.090   2.499   1.238 -0.2768  0.1991 -0.3217
12777W        W28246   2.303  16.706   4.347  0.1771 -0.4136  0.1804
12778W        W28247  11.389  12.953   3.561 -0.0078 -0.1410 -0.2691
12779W        W28248  14.621   6.381   5.243 -0.0347  0.4130 -0.2296
12780W        W28249  11.600  10.066  13.312  0.0758  0.1030 -0.0416
12781W        W28250   5.346  17.777   2.538 -0.0352  0.1715  0.0148
12782W        W28251   7.148  13.442  10.933  0.0221 -0.2144  0.2372
12783W        W28252  15.793   5.952   4.714  0.0551  0.1280  0.0524
12784W        W28253  17.280  13.462  12.969  0.0392 -0.1167  0.2208
12785W        W28254   1.481  16.812  16.088 -0.3406  0.3606 -0.2522
12786W        W28255  15.542   1.675   2.998  0.2043 -0.1801 -0.0240
12787W        W28256   8.742   8.567   1.731  0.1029  0.1261 -0.0019
12788W        W28257   4.295  17.759  13.688  0.1550  0.0649  0.0458
12789W        W28258   4.451  11.194   3.239  0.1528  0.0713  0.0949
12790W        W28259  15.961  13.365   2.526 -0.0519  0.2470  0.0322
12791W        W28260  12.675  14.722   4.012 -0.0816  0.2056 -0.2377
12792W        W28261   4.497  16.859  13.756 -0.1197 -0.4659  0.0215
12793W        W28262   5.985  17.288  14.492  0.0152  0.2763  0.0959
12794W        W28263   5.073   4.604  14.953  0.0268  0.0229 -0.0591
12795W        W28264   8.318  11.006  14.704 -0.0245 -0.1520 -0.2040
12796W        W28265   7.036   6.713  13.188 -0.0352  0.0420  0.0012
12797W        W28266   0.350  14.105  14.260 -0.0045 -0.5018 -0.2465
12798W        W28267  13.552   0.815  11.265  0.3929 -0.0537 -0.2436
12799W        W28268  14.276  16.243   2.883  0.0045  0.2036 -0.1288
12800W        W28269  15.062   0.316   2.528 -0.0107  0.0640  0.0996
12801W        W28270  12.407   0.564  14.225 -0.0538 -0.2332  0.1351
12802W        W28271  16.044   4.338   4.657  0.1237 -0.1686 -0.1837
12803W        W28272  11.562  12.241   3.763 -0.5330 -0.0069  0.0117
12804W        W28273   1.905   4.869   0.050 -0.2763  0.1546 -0.2125
12805W        W28274  10.233   2.527  15.493 -0.1932  0.4351  0.1639
12806W        W28275  14.225   8.648  14.266 -0.1547 -0.2635 -0.1074
12807W        W28276   2.220  12.858  14.237 -0.0248  0.0553  0.1823
12808W        W28277   4.510   6.110  11.993 -0.1588  0.2316 -0.3489
12809W        W28278   7.589   0.343  11.806  0.0782 -0.2084 -0.1228
12810W        W28279   5.026  11.822  13.520 -0.1953  0.3504 -0.1512
12811W        W28280  11.274   3.532  12.942  0.1286  0.2149  0.0253
12812W        W28281   8.601  13.433   1.777 -0.1048  0.3498  0.1235
12813W        W28282   8.916  14.581   3.639 -0.2488  0.0907  0.3628
12814W        W28283   8.821  11.880   2.100 -0.1117  0.0521  0.0310
12815W        W28284   8.881  14.082   2.829 -0.0287  0.1540 -0.0687
12816W        W28285   7.460  10.121  12.329 -0.4352  0.2512  0.0556
12817W        W28286   6.663  10.374  12.365  0.1352  0.1331  0.2638
12818W        W28287   1.550  12.794  15.556  0.2628 -0.0810 -0.1698
12819W        W28288  13.638  14.633   2.900 -0.3293  0.0974  0.0547
12820W        W28289  12.167   0.089  15.039 -0.0157 -0.0608  0.1819
12821W        W28290   4.729   2.802   5.510 -0.1247  0.0335 -0.2150
12822W        W28291   4.332  12.459  15.317  0.0992  0.0940 -0.3727
12823W        W28292  11.915   9.723   3.267 -0.2199 -0.0133  0.0546
12824W        W28293  10.310   9.528   5.086 -0.1181 -0.0072 -0.1944
12825W        W28294   2.035   0.802   5.088  0.2690 -0.1446  0.4023
12826W        W28295   0.235  14.551  14.510  0.0639  0.3050  0.0589
12827W        W28296   6.619  12.255  11.676 -0.0175 -0.0890 -0.2920
12828W        W28297  13.528   8.100  12.530  0.0702  0.0141  0.3009
12829W        W28298  15.406   6.199   5.925 -0.2132 -0.1940  0.1044
12830W        W28299  14.767   0.560  11.796  0.0358 -0.2806  0.0655
12831W        W28300   4.693   6.622   0.968  0.5641  0.0374  0.1646
12832W        W28301   3.432   7.318   5.059 -0.0119  0.2183  0.0154
12833W        W28302  14.323  12.216   5.421 -0.0752 -0.0955 -0.1268
12834W        W28303  17.685   9.453   5.090  0.0834 -0.2012 -0.1473
12835W        W28304  16.150   4.659  12.215  0.4600  0.0100 -0.2426
12836W        W28305  14.717  13.375  12.046 -0.0486 -0.0338 -0.0922
12837W        W28306   5.874   5.352  11.940 -0.2190  0.0103  0.1590
12838W        W28307   9.773   3.903   2.177 -0.1633  0.0502 -0.0716
12839W        W28308  17.508   8.330  12.724  0.0778  0.0199  0.1425
12840W        W28309  10.732   5.401   2.620  0.0542 -0.0068  0.0860
12841W        W28310   5.051  10.570   0.169  0.0613 -0.0309 -0.1290
12842W        W28311  10.782  17.246   2.242 -0.2243 -0.2462 -0.0544
12843W        W28312   7.386   5.835   3.818  0.0683  0.1190 -0.3469
12844W        W28313   2.068  16.992   0.295  0.1275 -0.3321 -0.1860
12845W        W28314   8.121   8.444  15.508  0.1105 -0.0420 -0.1087
12846W        W28315   8.898  17.611  14.779 -0.0080  0.1459 -0.0128
12847W        W28316   6.472  10.686  13.535 -0.1391  0.3430  0.3404
12848W        W28317  12.031  11.532   0.874  0.0433  0.0955  0.1457
12849W        W28318  15.549   2.178  16.006 -0.1333  0.2999 -0.0814
12850W        W28319  15.975  16.057  13.106 -0.0337 -0.1453 -0.0219
12851W        W28320   9.879  16.417   0.805  0.0952 -0.0096 -0.1108
12852W        W28321  12.841  15.074   0.761  0.1523  0.0690  0.1100
12853W        W28322   9.242   9.206  16.136 -0.1620  0.3227 -0.0045
12854W        W28323   9.859  15.851  14.070 -0.0886 -0.1973  0.0112
12855W        W28324  15.123   1.791  13.013 -0.3245  0.1547  0.0995
12856W        W28325  17.111  14.074   0.618  0.1293  0.0517 -0.0294
12857W        W28326   3.289  13.874  12.153  0.1585  0.3587 -0.0608
12858W        W28327  10.712   2.760   4.241 -0.1345  0.0364 -0.2487
12859W        W28328   2.886  17.422  13.386 -0.0858 -0.3078 -0.0282
12860W        W28329   2.944   6.014  11.486 -0.0052  0.1271 -0.0641
12861W        W28330  16.886   9.757   2.337 -0.2875 -0.2181 -0.4600
12862W        W28331   3.188   6.638   2.692  0.1146  0.1810 -0.1144
12863W        W28332  13.857  10.596  15.169  0.0968 -0.0226  0.1251
12864W        W28333  12.436   7.361  14.756 -0.0782 -0.1789 -0.0865
12865W        W28334  13.866  10.695  13.149 -0.0930  0.2569  0.0299
12866W        W28335   4.142  15.874  11.324 -0.3091 -0.0712 -0.2639
12867W        W28336   8.785   6.489  13.069 -0.0758 -0.0128 -0.1982
12868W        W28337  14.320   8.144   3.420 -0.0919  0.1744 -0.0254
12869W        W28338  14.987  11.116   4.389 -0.2631 -0.0486 -0.4430
12870W        W28339  16.632   5.074   3.903  0.0009  0.1825 -0.0037
12871W        W28340  13.949   8.070   0.090 -0.0247  0.0896 -0.4023
12872W        W28341  11.073   2.865  14.580  0.1444 -0.2202  0.0496
12873W        W28342   0.090  12.553   1.394  0.0772  0.2852  0.2491
12874W        W28343   2.401  15.089  11.560  0.3022 -0.1219 -0.1154
12875W        W28344  17.197  11.351  11.638  0.1800  0.2039  0.3194
12876W        W28345   2.637   6.873  11.663  0.2353  0.0896  0.0738
12877W        W28346   0.297   5.633   4.084 -0.1249  0.2310 -0.2290
12878W        W28347   4.712   9.344   5.106  0.0049 -0.1520 -0.2240
12879W        W28348   5.175   9.186   4.612 -0.0660 -0.0458 -0.1649
12880W        W28349   1.874   1.574  16.266 -0.0658 -0.1314 -0.0475
12881W        W28350   3.015   4.848  13.986  0.0695  0.1507 -0.0782
12882W        W28351  11.117   9.861   0.336  0.1346 -0.1248 -0.1823
12883W        W28352  14.520  13.626  13.466  0.0464  0.0835 -0.1312
12884W        W28353   9.454   6.605  14.467  0.0446 -0.0739  0.1411
12885W        W28354   9.465   5.155   4.460  0.1214  0.0725  0.1828
12886W        W28355  11.199  12.692   4.883  0.2955 -0.1428 -0.1376
12887W        W28356  16.423  11.180  15.497  0.1820  0.1802 -0.0562
12888W        W28357   5.303   9.398  14.500  0.0127 -0.2816  0.2173
12889W        W28358   9.134   4.072   2.657 -0.3163 -0.1214  0.1149
12890W        W28359  11.474  15.583  11.281 -0.0910  0.0469  0.0741
12891W        W28360  10.153   7.093  14.126  0.0288  0.1230 -0.0670
12892W        W28361   4.390  14.978  13.360 -0.1770  0.1688 -0.1027
12893W        W28362   1.559   7.888   4.035  0.0417 -0.5284  0.2237
12894W        W28363   9.483   6.683   2.525 -0.2136 -0.0590 -0.0467
12895W        W28364  14.653  13.845  12.818 -0.1144 -0.2131  0.2338
12896W        W28365  10.914   8.279   1.406  0.1520 -0.0557  0.0932
12897W        W28366   3.630   0.889   0.075 -0.2483  0.3154 -0.1776
12898W        W28367   6.224  13.298  15.148 -0.1812  0.4284 -0.1742
12899W        W28368  15.574  14.374  11.125  0.1113  0.1017  0.0953
12900W        W28369   3.106  15.647  13.020  0.1524 -0.0802 -0.0469
12901W        W28370   0.735  16.493   1.969 -0.1744 -0.1331  0.1126
12902W        W28371  17.406  13.714   2.633 -0.1420  0.2126  0.2785
12903W        W28372  15.139  10.753  14.394 -0.0999  0.0254  0.2425
12904W        W28373   6.823   7.269  11.441 -0.0270 -0.0754  0.1298
12905W        W28374  12.709   6.498   0.798 -0.0259 -0.2208 -0.1452
12906W        W28375  15.773  12.738  14.966 -0.0312  0.1878 -0.0159
12907W        W28376  10.911  16.107   4.126 -0.3667  0.3110  0.0359
12908W        W28377   7.384   0.663  14.174 -0.0621 -0.0956  0.2985
12909W        W28378   4.893  16.211  10.276  0.1531  0.2582 -0.3077
12910W        W28379  14.015  13.332  12.800  0.2578  0.1713  0.0192
12911W        W28380   1.398  17.634  16.152 -0.0688  0.2792 -0.0952
12912W        W28381   3.362  12.942  14.336  0.5636 -0.3246 -0.0617
12913W        W28382   7.073  14.421   3.698  0.2330 -0.0803 -0.1704
12914W        W28383  11.736   1.526  15.972  0.2750 -0.1119  0.3173
12915W        W28384   5.494   7.106   0.587 -0.0465  0.2587 -0.0103
12916W        W28385  17.809   9.292   1.315 -0.1972 -0.0985  0.0048
12917W        W28386  13.797   8.735  11.934  0.0817 -0.1210 -0.2690
12918W        W28387   8.037   9.545  15.915 -0.2279  0.3016  0.1011
12919W        W28388   4.628   5.340   3.029 -0.0158  0.0541  0.1758
12920W        W28389   8.060  17.139  15.156 -0.2060 -0.1533  0.0060
12921W        W28390  11.513   2.903  12.193 -0.1430  0.0788  0.0348
12922W        W28391   9.570  13.535   4.535 -0.0329  0.0670  0.3340
12923W        W28392   8.425  15.631   1.980 -0.2665  0.1476  0.0094
12924W        W28393   0.092   1.587  15.987  0.3878  0.1942 -0.0382
12925W        W28394  13.236  14.830   0.035 -0.0803 -0.2341 -0.0397
12926W        W28395   1.478  13.095   0.867 -0.0333  0.3312 -0.0290
12927W        W28396  11.439  11.937   5.438  0.3381  0.3286 -0.1350
12928W        W28397  10.401  13.823  12.108 -0.0302  0.0234  0.1029
12929W        W28398   7.284   2.823  11.783  0.0987  0.2699 -0.0793
12930W        W28399   1.553  10.647  11.121 -0.3749  0.1118 -0.2327
12931W        W28400   8.604  15.276  13.749  0.0795  0.2505  0.0064
12932W        W28401   2.374  10.644  11.008 -0.0934 -0.2760 -0.2163
12933W        W28402  16.641  16.965   5.584 -0.0989  0.2793 -0.0539
12934W        W28403   8.481  13.223   3.119 -0.0975 -0.0418 -0.1582
12935W        W28404   4.819  13.766   5.886 -0.0895  0.0786  0.1383
12936W        W28405  16.799   1.149   1.333  0.0685 -0.0583  0.0688
12937W        W28406  15.511   9.415   3.785  0.1255  0.1171 -0.0645
12938W        W28407  13.613  12.700  16.172  0.2894 -0.1348  0.0525
12939W        W28408   6.004  13.114   4.356 -0.0100  0.0112 -0.1901
12940W        W28409  17.548  10.961  13.994 -0.0541 -0.1881  0.0716
12941W        W28410  13.801  11.239  12.346  0.0702 -0.2632 -0.0782
12942W        W28411   6.165  14.385   0.887 -0.2168  0.1009  0.1332
12943W        W28412   6.208   4.047   4.048 -0.0430 -0.3633 -0.1924
12944W        W28413   9.024  16.720  14.799 -0.1768  0.2697  0.1666
12945W        W28414   9.426   4.601  14.594  0.2257  0.1405 -0.2059
12946W        W28415   6.816   9.018  15.575 -0.0952  0.0228  0.1529
12947W        W28416   1.770  15.942   2.436 -0.2204 -0.0861 -0.0642
12948W        W28417  16.233  15.704  12.001  0.0139  0.2571 -0.1159
12949W        W28418  13.429  16.986  14.363  0.1470 -0.1643 -0.0571
12950W        W28419   4.582  15.123   5.157  0.2214 -0.0620  0.0819
12951W        W28420  16.489   5.693   3.990 -0.0275  0.2077 -0.1613
12952W        W28421   7.121  12.022  11.786 -0.0016 -0.1154  0.0961
12953W        W28422   2.626   5.915  13.906 -0.1012  0.0398 -0.2836
12954W        W28423  11.399   6.938  14.114  0.0345  0.1688  0.1083
12955W        W28424   9.383  17.616   1.336  0.1075  0.0180  0.2167
12956W        W28425  16.002  16.304   2.344  0.5228  0.2742 -0.1750
12957W        W28426   7.682  16.568   0.486 -0.0466 -0.3247 -0.2329
12958W        W28427  17.970   6.672  15.823 -0.0916 -0.2625  0.0622
12959W        W28428  11.686   2.594  13.357  0.0652 -0.0724 -0.1727
12960W        W28429   3.174   8.120   3.189  0.0672  0.1960  0.3376
12961W        W28430  13.262  14.041  16.207  0.1263  0.1762 -0.1263
12962W        W28431   7.719   3.886  13.137  0.2773 -0.1190 -0.0213
12963W        W28432   3.827   3.763   4.553 -0.2307  0.0890  0.0356
12964W        W28433  11.546   0.330  16.091  0.0196 -0.1243  0.0226
12965W        W28434   3.059   1.855  14.419  0.0539 -0.2215 -0.1357
12966W        W28435  13.629  16.752  13.276 -0.1952 -0.1100 -0.0221
12967W        W28436   0.162   9.824  15.343  0.3228  0.1901  0.0308
12968W        W28437  13.400   3.001  14.048  0.1793 -0.1260  0.0240
12969W        W28438   7.900  13.130  12.679  0.2267  0.0040 -0.0566
12970W        W28439  16.712   0.306  11.518 -0.2605 -0.1420 -0.0346
12971W        W28440  16.585  17.326  12.123  0.1177 -0.1124 -0.1951
12972W        W28441   0.629  10.867  11.503  0.1921 -0.0000  0.1449
12973W        W28442  11.886   4.400  14.809 -0.2450  0.2948 -0.1229
12974W        W28443   8.164   9.672   6.352 -0.0108  0.0555  0.1182
12975W        W28444   8.860   5.254   5.251  0.0995  0.3438 -0.0888
12976W        W28445   5.555  13.012   5.780  0.4409 -0.1112 -0.2910
12977W        W28446   0.015   8.484   4.091  0.0953 -0.1171  0.3482
12978W        W28447  16.842  13.726   1.317 -0.1207  0.0716  0.0667
12979W        W28448  12.775  12.922  12.098  0.4598 -0.0239  0.1288
12980W        W28449   5.979  10.716  14.759 -0.0084  0.1705  0.0398
12981W        W28450  14.213   5.236   2.812  0.0660 -0.0226 -0.0299
12982W        W28451  14.154   4.155  13.999  0.0037  0.0313  0.3454
12983W        W28452  15.198  10.694  13.897 -0.0620 -0.3324 -0.2390
12984W        W28453  17.438   9.064  15.821  0.5857  0.2162  0.2719
12985W        W28454  16.941  14.868  12.426  0.2649  0.1172  0.0315
12986W        W28455   9.427   8.081  13.868 -0.0627  0.0821 -0.1493
12987W        W28456  12.554   6.104  12.392  0.0089 -0.0957 -0.0463
12988W        W28457  15.694  17.600  11.348  0.0691  0.1154  0.1763
12989W        W28458   9.611   2.633   4.637  0.3535 -0.2989 -0.2035
12990W        W28459  16.367   7.581   5.830  0.2426 -0.1520 -0.1392
12991W        W28460   5.664   7.496  12.205 -0.1050 -0.0628  0.0934
12992W        W28461   6.957   5.083  10.498 -0.0164  0.1330  0.0155
12993W        W28462  11.519   5.644   2.601  0.1052 -0.0933 -0.1481
12994W        W28463   6.951  10.885  14.889  0.2723 -0.1969 -0.1422
12995W        W28464   1.003   6.390   4.173 -0.0038 -0.0933  0.3232
12996W        W28465   0.499   8.363  14.676  0.1869 -0.0162 -0.1999
12997W        W28466  10.631   2.116   5.685 -0.1564 -0.2338 -0.0793
12998W        W28467  16.326  16.080  12.716  0.2421  0.2068  0.0158
12999W        W28468   5.658   5.065   0.288 -0.1971  0.2033 -0.2871
13000W        W28469  13.196  18.081   2.753  0.1372 -0.0902 -0.0341
13001W        W28470   5.842  17.051  15.883 -0.0014  0.0334 -0.1584
13002W        W28471   2.699  11.585   4.336 -0.1837 -0.0273  0.0195
13003W        W28472   6.958  17.443   3.469  0.2452 -0.0514  0.1612
13004W        W28473  14.410  10.816   3.021  0.1677  0.3254  0.3072
13005W        W28474   7.296   6.018   3.312 -0.0617  0.1994  0.2785
13006W        W28475   1.623   3.925   0.619 -0.3657  0.0199 -0.1095
13007W        W28476   9.868  13.645  12.044  0.3476  0.2838 -0.5405
13008W        W28477  16.377   4.674   2.617 -0.0553 -0.1962 -0.1523
13009W        W28478   7.914   2.009  10.626  0.0286  0.0703 -0.5120
13010W        W28479   8.367  13.321   1.313  0.0437 -0.0670  0.0727
13011W        W28480   7.528   4.576  14.768 -0.0004 -0.1304  0.2245
13012W        W28481   2.545   7.361   1.598  0.4032  0.3147 -0.1610
13013W        W28482  12.870   8.650   5.571  0.5190  0.0878 -0.2149
13014W        W28483   1.581   1.086  10.894  0.1759  0.0949 -0.3992
13015W        W28484   7.362  14.865  14.298 -0.0219  0.0663  0.1191
13016W        W28485  18.045  13.763   4.963  0.1453 -0.1532 -0.0099
13017W        W28486   5.737   2.752  11.631 -0.2794 -0.0139 -0.0488
13018W        W28487  13.391  14.511   3.526 -0.1050 -0.0619 -0.1554
13019W        W28488   1.828   5.881   3.832 -0.0020 -0.3602 -0.0904
13020W        W28489  17.900   9.352   2.157 -0.0742  0.0001  0.0869
13021W        W28490   4.938   2.924  12.775  0.0126 -0.1647 -0.1680
13022W        W28491  12.446   1.721  13.191  0.3083  0.0788 -0.3420
13023W        W28492  10.219  10.842   0.231  0.1195 -0.0421  0.1371
13024W        W28493  11.425   7.690  14.592 -0.1495  0.2505 -0.1266
13025W        W28494   8.927   9.111  14.147 -0.2219 -0.2467  0.1800
13026W        W28495   9.856   4.064  11.683 -0.0238  0.1407 -0.0924
13027W        W28496  11.504   0.697  15.288 -0.0788 -0.0679  0.1129
13028W        W28497  15.650  15.950   4.097  0.0343 -0.0036  0.2824
13029W        W28498   9.983   1.872   5.024 -0.1643  0.0364  0.0005
13030W        W28499  11.471   5.885  14.318 -0.1380  0.0245  0.1076
13031W        W28500   4.125   5.006  16.065 -0.2501 -0.1170 -0.2842
13032W        W28501   3.683   7.509   1.616  0.3505 -0.0316 -0.0892
13033W        W28502   7.513  12.126  12.042  0.0720 -0.1764 -0.1018
13034W        W28503  12.319  11.238  16.296 -0.2243 -0.1064 -0.2101
13035W        W28504  11.157   3.630  14.806 -0.3827  0.0704 -0.0844
13036W        W28505  17.378  16.726   6.076  0.0536  0.1702 -0.0756
13037W        W28506   4.166  15.156  14.510 -0.1489 -0.2101 -0.1714
13038W        W28507  14.802  13.239   4.913  0.0128  0.0489 -0.2126
13039W        W28508  13.809  16.829  14.789  0.1237 -0.1360 -0.1784
13040W        W28509  15.076   4.646   4.845  0.1844 -0.1407 -0.2388
13041W        W28510   9.743  15.403  13.193 -0.2176  0.1474  0.1814
13042W        W28511   3.702  15.228   5.538  0.1225  0.4297 -0.1786
13043W        W28512   7.682   5.206  12.608 -0.0818 -0.0696 -0.0759
13044W        W28513  16.641  11.604  13.041 -0.1405 -0.1137  0.0304
13045W        W28514  14.837   7.606  13.467  0.1221  0.1840 -0.2542
13046W        W28515   2.092   6.676  15.846  0.1939  0.1972 -0.3980
13047W        W28516   4.198  16.967   0.647  0.0935 -0.2551  0.0337
13048W        W28517  10.291   4.463   4.389  0.2453 -0.4727 -0.2015
13049W        W28518  10.038   8.941   1.961 -0.1747  0.0007 -0.3149
13050W        W28519   7.306   2.208   3.550  0.1696 -0.1701  0.0878
13051W        W28520  14.975   1.541  15.638 -0.0174  0.0715 -0.3968
13052W        W28521  12.212   4.756   2.274 -0.1956 -0.1387  0.1398
13053W        W28522   2.660   0.690   1.362 -0.1483 -0.0113  0.2423
13054W        W28523   2.546  16.725  14.247  0.0487  0.3088  0.1478
13055W        W28524  16.186   2.811  13.022  0.0347  0.3476  0.0669
13056W        W28525   5.602  10.482  11.239  0.0932 -0.2287  0.1803
13057W        W28526  10.385  13.915   0.378  0.0679 -0.0510 -0.1141
13058W        W28527   5.001   8.350  12.600  0.1844 -0.3024  0.2337
13059W        W28528   5.134   1.181   0.909 -0.0423  0.0508 -0.1485
13060W        W28529   8.796  14.818  14.744 -0.0030 -0.0510 -0.1689
13061W        W28530  17.998  10.992  14.701 -0.2230 -0.1246 -0.0095
13062W        W28531   2.438   8.714   2.530  0.1710  0.0314  0.0088
13063W        W28532   2.350  12.756  12.016  0.0899 -0.1660  0.0465
13064W        W28533   9.100  16.434   1.981 -0.1338  0.1112 -0.1455
13065W        W28534  15.925   0.408  15.531  0.1871  0.1160 -0.1183
13066W        W28535  16.677   8.215  14.909  0.0708 -0.2525 -0.3096
13067W        W28536   6.656   3.423  11.706  0.1205  0.0839  0.0196
13068W        W28537   9.683   9.592   3.204  0.1196  0.0330 -0.1809
13069W        W28538  13.493   2.044  16.135  0.1182 -0.1494  0.0889
13070W        W28539  12.093  11.020   1.031  0.1283 -0.0299  0.2027
13071W        W28540   7.605  11.380   2.560  0.0557 -0.0699  0.0630
13072W        W28541  12.851  17.267   0.394 -0.0518 -0.0524 -0.0179
13073W        W28542  15.298   4.316  12.406 -0.0171  0.1466 -0.2303
13074W        W28543   7.469   0.334  16.240 -0.0014 -0.1867  0.2651
13075W        W28544  11.018  16.081  13.442 -0.2748 -0.0986 -0.1185
13076W        W28545   8.958   2.192   5.115 -0.3639 -0.0183  0.2111
13077W        W28546   3.933   5.685  15.301  0.2542 -0.0722 -0.2210
13078W        W28547  15.399   3.599   3.413 -0.2034  0.1146 -0.2505
13079W        W28548  15.537   2.828   5.307 -0.0836 -0.0763 -0.0272
13080W        W28549   6.466   3.789   5.017  0.0628 -0.2642  0.0173
13081W        W28550  12.147   4.348  15.275 -0.0549  0.0685  0.1290
13082W        W28551   8.471  16.239  13.296 -0.0520 -0.1181  0.0969
13083W        W28552  13.223   3.616   0.792 -0.2729 -0.2612  0.1358
13084W        W28553  10.906  13.463   4.206 -0.4393 -0.2469 -0.0958
13085W        W28554  17.088   8.738   4.025 -0.1080  0.1028 -0.0157
13086W        W28555   9.632  12.034  14.862 -0.0345  0.1168 -0.0197
13087W        W28556   0.729   0.383  14.893  0.1318 -0.1655 -0.1023
13088W        W28557   3.783  10.051  11.773  0.2822 -0.3059 -0.2493
13089W        W28558  11.063  10.208  13.908  0.2441 -0.1706  0.1361
13090W        W28559   1.905   4.408   4.595  0.3254  0.2961 -0.0835
13091W        W28560   0.182  10.610   1.440  0.1539 -0.2204  0.1765
13092W        W28561   6.672  12.505  14.663  0.2162  0.0800  0.1795
13093W        W28562   0.321   8.330   4.969 -0.0651  0.0233  0.3321
13094W        W28563  17.849   3.083  10.515  0.0472  0.2479 -0.1330
13095W        W28564   6.926  12.901   1.485 -0.4253  0.1171 -0.0738
13096W        W28565   6.534   8.477   4.140  0.0329  0.0927  0.1922
13097W        W28566   9.098  17.394  12.581 -0.2451 -0.0223  0.1171
13098W        W28567   4.170   7.443  14.973 -0.0005  0.2032 -0.1290
13099W        W28568   7.277  16.602   5.625 -0.0914 -0.0808  0.1111
13100W        W28569   0.108  15.911  14.981 -0.1189 -0.0910  0.2310
13101W        W28570   2.894  15.700   1.585 -0.2897  0.1930 -0.2943
13102W        W28571   8.090  13.186  14.726 -0.1966 -0.1381  0.1164
13103W        W28572   6.925  16.016  15.864  0.0896  0.0732  0.0539
13104W        W28573  14.313   8.898  13.748 -0.1229 -0.0623  0.2031
13105W        W28574  10.946   4.897   2.670 -0.3506  0.3289  0.0676
13106W        W28575  17.606  11.045   3.365  0.4340  0.2156 -0.0482
13107W        W28576  12.288   5.226  15.906 -0.1955  0.0456 -0.0170
13108W        W28577  13.756  17.601  15.929 -0.0117  0.0855  0.2045
13109W        W28578   8.810  16.915   1.872 -0.0837 -0.4103  0.1330
13110W        W28579   3.497   7.631   4.332  0.0357  0.0849 -0.0943
13111W        W28580  13.751  17.759  13.730  0.2000 -0.0206  0.3207
13112W        W28581  15.835   3.212   5.201  0.1688 -0.0106 -0.0499
13113W        W28582   3.297  14.881  11.901 -0.2636  0.0235  0.2131
13114W        W28583  11.055   3.573  16.132 -0.0433  0.2257  0.0288
13115W        W28584  12.632  15.691   2.667  0.2626 -0.1077  0.1868
13116W        W28585  10.420   1.727   2.133  0.2927  0.2464  0.2474
13117W        W28586   8.583   7.111   0.541  0.1041  0.0468  0.1422
13118W        W28587  17.317   5.659   4.076 -0.0022  0.1326  0.0280
13119W        W28588   9.759  11.442  13.776  0.1400  0.0052  0.2632
13120W        W28589  12.769   1.964   0.262  0.1830 -0.1257  0.2918
13121W        W28590   5.368  13.678   1.060 -0.0085 -0.3022  0.1689
13122W        W28591   7.896  13.522   1.343  0.1489 -0.1415 -0.0319
13123W        W28592  17.022   2.461  15.410  0.1729  0.2060 -0.2026
13124W        W28593   2.851  11.052  14.430  0.0489  0.0569  0.0795
13125W        W28594   9.113   0.089  13.524 -0.0158 -0.1972 -0.2270
13126W        W28595   9.168   5.375  11.933 -0.0397  0.1714 -0.1611
13127W        W28596   3.231  11.126   1.369  0.0169 -0.1649 -0.0629
13128W        W28597   7.138  13.693   1.828  0.1747 -0.0831 -0.3416
13129W        W28598   8.606   8.963   2.629 -0.4522 -0.2685 -0.0065
13130W        W28599   7.044   1.490   5.617 -0.2215 -0.1988  0.0830
13131W        W28600   5.655  12.844   4.011  0.2642  0.0991 -0.0792
13132W        W28601  16.828   1.049   0.824  0.2317  0.0646  0.0195
13133W        W28602  15.814   7.319  11.427 -0.2438 -0.2756 -0.0890
13134W        W28603   9.935  17.092   2.442  0.0059 -0.0055 -0.0448
13135W        W28604  13.662   4.601   5.087 -0.0170  0.1411  0.0414
13136W        W28605   5.265  15.454   0.587 -0.0087  0.0229 -0.1381
13137W        W28606  16.993   3.309  14.390  0.2164 -0.2456 -0.2697
13138W        W28607   3.944  16.962  15.311  0.0441  0.0202 -0.1258
13139W        W28608   5.590   7.485   0.255  0.1229 -0.0541  0.1085
13140W        W28609   2.295   8.143   4.365 -0.2165 -0.0516 -0.1530
13141W        W28610   8.170   9.148  14.806 -0.3028 -0.0178  0.2080
13142W        W28611   5.079  15.517   5.715 -0.2020  0.3209 -0.0492
13143W        W28612  12.209   7.944   5.324  0.0349  0.2721 -0.1821
13144W        W28613   2.187   3.987  14.365 -0.1876 -0.1208 -0.0105
13145W        W28614   8.955   6.330   1.062  0.1433  0.1017 -0.1009
13146W        W28615  16.067  18.056   5.622  0.0280  0.1120 -0.2561
13147W        W28616   1.690  17.295   1.648  0.0089 -0.0531  0.0001
13148W        W28617   9.764   8.749   4.959  0.1393  0.1081 -0.1097
13149W        W28618   7.812   1.005  15.753 -0.1025  0.0710  0.0339
13150W        W28619  17.274  17.085  10.242 -0.1071  0.4581 -0.0903
13151W        W28620   6.496  17.500  13.792  0.0465  0.4925 -0.2210
13152W        W28621  14.008  17.216  12.406  0.1066 -0.2666  0.0829
13153W        W28622  15.348  12.694   0.431 -0.0553  0.0728  0.0607
13154W        W28623  16.917   4.973  11.253 -0.1644 -0.0612  0.0476
13155W        W28624   7.899  10.762  15.557  0.1923 -0.1802  0.0309
13156W        W28625   9.127   1.331  11.660  0.2775  0.0788 -0.0918
13157W        W28626   9.714   8.173  12.591  0.0697 -0.0212 -0.0065
13158W        W28627   4.469   3.110  16.243 -0.1912 -0.0119  0.0030
13159W        W28628  13.606   8.342  16.262 -0.2168 -0.1963 -0.0347
13160W        W28629  14.310  14.009   1.014 -0.2483  0.1602  0.0900
13161W        W28630   7.167  15.827   5.229 -0.0762 -0.0223  0.0031
13162W        W28631   3.590   6.348  13.699 -0.2937  0.0221 -0.0352
13163W        W28632   2.891  15.746  10.945  0.1157 -0.1446  0.0041
13164W        W28633   3.685   1.203   5.705  0.0768  0.1670 -0.2617
13165W        W28634  17.354  16.272  13.723 -0.2775 -0.0822  0.1171
13166W        W28635  10.029   6.474  16.086  0.0413  0.1542 -0.2353
13167W        W28636  16.843   5.301   2.953 -0.1517 -0.0522  0.0509
13168W        W28637  17.929   6.709   2.917  0.2264 -0.0795  0.2489
13169W        W28638  16.554   9.303   5.693 -0.2090  0.1813  0.1561
13170W        W28639  13.790  11.211   0.488 -0.3116 -0.1150  0.1332
13171W        W28640   3.554  15.565  14.350  0.0280 -0.1010 -0.1025
13172W        W28641  13.609   6.502   3.227  0.0228 -0.0407 -0.0750
13173W        W28642  13.478   8.942   4.513  0.1557 -0.0735  0.0027
13174W        W28643   4.970   5.892   5.234 -0.1139 -0.3256  0.0770
13175W        W28644  13.057  13.357  14.562 -0.4580  0.0712  0.0011
13176W        W28645  10.174   6.301  11.047  0.0723  0.2460 -0.1947
13177W        W28646   9.675  13.854   3.561 -0.2335 -0.0628  0.0959
13178W        W28647  13.032   6.492   2.464 -0.1932  0.0876  0.0900
13179W        W28648   7.817  11.749  14.155 -0.0092 -0.3533  0.2967
13180W        W28649   3.207   6.189  13.222  0.0248 -0.1950  0.1658
13181W        W28650   6.197  16.773   1.172  0.1624 -0.3340 -0.5538
13182W        W28651   4.978   8.628   1.451 -0.1034  0.1971 -0.0453
13183W        W28652   1.205  16.067  11.960 -0.0586  0.0333 -0.0144
13184W        W28653   8.557  12.120  12.709  0.1364  0.0567  0.0255
13185W        W28654   2.711   2.378  10.788 -0.2248  0.1208  0.1232
13186W        W28655  15.487   5.132   0.537  0.1795 -0.2411 -0.2709
13187W        W28656  11.892  12.564   5.020 -0.2514  0.2017  0.2175
13188W        W28657   3.073   8.812  12.117  0.1721 -0.3115  0.1434
13189W        W28658   5.432   3.586   5.457  0.0670  0.0031  0.0829
13190W        W28659   7.921  17.838   4.359 -0.1936  0.0357 -0.0897
13191W        W28660   8.798   2.833  11.087 -0.2359  0.0808 -0.0666
13192W        W28661  15.388   8.053   3.281 -0.0521 -0.2308  0.0046
13193W        W28662   8.965   8.201  12.976 -0.0693  0.0243  0.0954
13194W        W28663  17.777   5.635  11.263 -0.3693  0.1028 -0.0843
13195W        W28664  13.170  12.754   6.064 -0.1453 -0.0639 -0.1551
13196W        W28665  11.373   2.920  13.596  0.0321  0.3289 -0.0873
13197W        W28666  11.855   3.394  15.273  0.0366 -0.0133  0.1490
13198W        W28667  16.965   4.800   3.111  0.0553  0.0835  0.1758
13199W        W28668  12.587   7.271   2.615  0.0767  0.1273 -0.1017
13200W        W28669  13.725   2.079  10.494  0.1471  0.1666  0.0269
13201W        W28670   2.822  12.024   0.830  0.0120 -0.0870  0.2575
13202W        W28671  18.041   9.749  14.845 -0.0619 -0.0886  0.0131
13203W        W28672   2.986   6.751  13.992  0.0819  0.0470 -0.0371
13204W        W28673   6.571  13.435   2.031  0.1182  0.3750  0.0079
13205W        W28674  14.793  15.009   2.463  0.2094 -0.1617 -0.2698
13206W        W28675  16.052  15.626  14.746  0.0979  0.1900  0.1160
13207W        W28676  15.559   3.285   0.971 -0.2044 -0.0348 -0.0558
13208W        W28677  10.295  15.875  15.475  0.2383 -0.1841 -0.0897
13209W        W28678  15.523   3.163  11.628 -0.1554 -0.0409  0.3929
13210W        W28679   8.610   7.063  15.721  0.0008 -0.0010  0.0092
13211W        W28680  14.202   4.612   1.499 -0.2582  0.1564  0.1715
13212W        W28681   2.131   7.663  10.747 -0.1994 -0.0527  0.1666
13213W        W28682   3.709   0.600   3.283  0.0802 -0.0237  0.0736
13214W        W28683  10.014   4.852   5.995 -0.1135  0.0045  0.0834
13215W        W28684   0.385  11.061  14.585  0.1587  0.1975  0.0312
13216W        W28685  15.067  16.636  10.602 -0.0194  0.0503  0.1550
13217W        W28686  11.030  18.031  15.610  0.2361 -0.2117  0.2064
13218W        W28687  17.215  14.267   2.000 -0.0118  0.1758  0.0542
13219W        W28688  14.514  10.101  11.023 -0.0153 -0.1377 -0.3412
13220W        W28689  12.577   2.252   4.460  0.2960  0.2401 -0.1286
13221W        W28690   8.126  17.399   5.091 -0.1133 -0.2625  0.1006
13222W        W28691   4.325   3.802  14.105  0.3121 -0.2472 -0.2740
13223W        W28692   5.413  15.028   5.046 -0.2155  0.1148 -0.0803
13224W        W28693   9.548  11.165  14.152 -0.0255  0.2819 -0.0875
13225W        W28694   9.694  14.550   4.207 -0.5875 -0.0045 -0.2720
13226W        W28695   8.512   3.220   3.670 -0.0350  0.0626  0.1654
13227W        W28696  13.763   1.122   2.233 -0.1376 -0.0385 -0.1781
13228W        W28697   9.224  15.742   2.058 -0.3990  0.0913  0.1258
13229W        W28698  14.079   4.342   3.278 -0.0335  0.0119  0.0451
13230W        W28699   7.672   0.719   2.880 -0.0311  0.1933 -0.0721
13231W        W28700   0.748   4.923   4.958  0.2154 -0.0101  0.0909
13232W        W28701   8.667   4.498  12.423 -0.0973 -0.1169  0.0482
13233W        W28702   0.182  11.607   0.680  0.0897 -0.2632 -0.0006
13234W        W28703  14.091  12.256  13.408 -0.0849 -0.1147  0.1551
13235W        W28704   3.801  13.284  13.654  0.3089  0.0732  0.0691
13236W        W28705   8.691  12.861   3.428  0.1409 -0.0016  0.0183
13237W        W28706  12.725   5.954   3.774  0.0959 -0.3067  0.0520
13238W        W28707  16.614   0.826  11.611 -0.1182 -0.2701  0.0996
13239W        W28708   6.851   0.688  13.016 -0.2950  0.0662  0.2260
13240W        W28709   4.913   1.924  10.924 -0.0960 -0.1325  0.1596
13241W        W28710   6.196   2.626  15.225 -0.0170  0.0263  0.0767
13242W        W28711  16.550   0.798  10.637  0.2071  0.0959  0.1324
13243W        W28712   3.519   6.527  10.250  0.1819  0.0021 -0.0351
13244W        W28713   6.129   7.278  13.083 -0.0413  0.1824  0.2627
13245W        W28714  10.486   4.133   1.165  0.0995 -0.2153  0.3994
13246W        W28715   1.920   2.514  11.138 -0.0949  0.0202  0.0138
13247W        W28716  12.792   9.933   1.434 -0.0233 -0.0361  0.1148
13248W        W28717   1.188   0.228   2.428  0.1679  0.0516  0.2095
13249W        W28718  13.888  11.063  12.791 -0.1221  0.0659  0.2887
13250W        W28719   9.195   3.415  14.658 -0.0397  0.0003 -0.1545
13251W        W28720   9.243   6.449  11.729  0.1131 -0.1495  0.1321
13252W        W28721  11.692   9.267  12.856  0.0564  0.0133 -0.0554
13253W        W28722  16.313  11.985   1.003  0.1294  0.2974 -0.0452
13254W        W28723   3.356   8.934  15.903  0.3165 -0.2126  0.1415
13255W        W28724  14.347   3.335   0.066 -0.0758 -0.3572  0.0851
13256W        W28725  16.884  16.279  10.563  0.2068 -0.2656 -0.0282
13257W        W28726  13.911  13.386  14.180  0.0087 -0.2288  0.1068
13258W        W28727   0.734   8.092  15.920 -0.0431  0.0006  0.2536
13259W        W28728  10.554   5.001   3.801  0.1092 -0.2646 -0.0272
13260W        W28729   7.635   3.141   3.189 -0.0754  0.0952  0.0469
13261W        W28730  13.942   5.640  12.789  0.0581 -0.1102  0.0271
13262W        W28731   0.243   4.001  13.315  0.2398 -0.2318 -0.0337
13263W        W28732   2.952  17.001  15.728 -0.0897 -0.2400  0.0980
13264W        W28733  12.852  12.436   4.235  0.0418 -0.2725 -0.3489
13265W        W28734   5.555  13.043   1.785 -0.0639  0.3623  0.0688
13266W        W28735   6.145  11.915   3.050  0.1565 -0.1649  0.1011
13267W        W28736   5.942   8.066  13.899  0.0977  0.0817 -0.1318
13268W        W28737  10.385   1.847  11.827 -0.2655 -0.0013 -0.4407
13269W        W28738   6.318   3.861   5.507  0.3440 -0.0393  0.0007
13270W        W28739  14.613  16.783   4.761  0.1536  0.0176  0.0134
13271W        W28740   0.365   5.502  13.385  0.1551 -0.1935  0.0288
13272W        W28741  10.882  17.186  13.295  0.0041  0.1394 -0.2347
13273W        W28742   3.242  15.732   9.986  0.2698 -0.0738  0.1981
13274W        W28743  15.695  12.918   4.812  0.0780 -0.0342  0.1686
13275W        W28744   8.003   7.049  12.177  0.1256  0.1219 -0.1577
13276W        W28745   2.731   0.860   4.654  0.0963 -0.1379  0.0979
13277W        W28746  11.211  15.099   0.919 -0.1823  0.3150 -0.0345
13278W        W28747   5.448  17.988   1.041  0.1952  0.1145 -0.1196
13279W        W28748   9.192  12.548   3.182  0.2399 -0.0427 -0.0736
13280W        W28749  16.229   3.210   4.290  0.1069  0.0152 -0.1868
13281W        W28750   9.122  16.536   2.472  0.0062 -0.2176 -0.4147
13282W        W28751   9.728  16.828   6.173 -0.1020 -0.1521 -0.0206
13283W        W28752  12.872  11.468  13.730  0.4309 -0.2726 -0.4363
13284W        W28753  10.522  17.155   5.726 -0.0864  0.0044  0.3534
13285W        W28754   9.911   1.836  13.858  0.0899  0.3293  0.0828
13286W        W28755   0.260   8.902   2.887 -0.2067 -0.0630  0.1075
13287W        W28756  11.258   4.752  13.629  0.0289  0.1553 -0.2758
13288W        W28757  17.396   0.313   2.914 -0.0014 -0.1512 -0.1939
13289W        W28758   6.799  13.939  12.586 -0.1022 -0.0223  0.0508
13290W        W28759   1.276  10.800   3.225 -0.0010 -0.3956  0.0012
13291W        W28760   0.766  14.548   0.533  0.1904 -0.0347  0.0258
13292W        W28761  14.372   1.903   0.383  0.0458  0.0584 -0.2498
13293W        W28762  11.326  11.277  13.876  0.3594  0.0400  0.1073
13294W        W28763   1.787  13.492  13.858  0.1849  0.1002  0.1190
13295W        W28764  11.434  10.357   4.233 -0.0470 -0.1605  0.0372
13296W        W28765  14.886  10.004   3.465 -0.0634  0.2711 -0.1457
13297W        W28766   1.089  12.407  13.722  0.1720  0.1739  0.0990
13298W        W28767   2.603   7.617  15.625 -0.0037 -0.1099 -0.2079
13299W        W28768   1.970   4.930  11.312 -0.0392  0.1229 -0.0328
13300W        W28769   6.721  15.293   2.203  0.0811 -0.0907  0.0871
13301W        W28770  16.751  13.043  15.542  0.4021  0.0868  0.0892
13302W        W28771   5.840   7.250   1.931 -0.2547  0.1180  0.3889
13303W        W28772  13.396   8.363   0.419  0.0723  0.0735 -0.2436
13304W        W28773  16.876   3.429   3.019  0.2042  0.0035 -0.0526
13305W        W28774  14.247   0.456  15.264 -0.1440 -0.1234  0.3044
13306W        W28775   4.618   6.894  14.501 -0.3004 -0.2841  0.0938
13307W        W28776   2.761   8.590   3.005  0.0707 -0.0085 -0.0188
13308W        W28777   8.293   0.602  16.000  0.2034  0.0778 -0.0897
13309W        W28778   8.501   6.627   3.176 -0.1964  0.0317  0.0247
13310W        W28779   9.845   2.710   1.269 -0.1212 -0.0345 -0.1224
13311W        W28780   6.611  16.950  14.967 -0.0016 -0.0422 -0.1032
13312W        W28781  14.357  17.734  11.270  0.0896 -0.2012 -0.3070
13313W        W28782   2.062   8.156   1.446  0.0879 -0.0907  0.0028
13314W        W28783   2.574  13.414  10.957  0.1566  0.0976 -0.2274
13315W        W28784   5.576  14.994  10.688  0.0780 -0.1715 -0.0059
13316W        W28785   8.694   3.296   6.564  0.0898  0.0527 -0.1057
13317W        W28786  17.100   0.602  11.415  0.0430  0.1262 -0.1358
13318W        W28787   2.172  14.896  12.446  0.3329 -0.1191  0.1059
13319W        W28788   7.858   4.224   5.256  0.0620 -0.0497  0.1361
13320W        W28789   6.185   8.332   5.392 -0.1756 -0.3944  0.0826
13321W        W28790   0.761  17.907   4.417  0.1015 -0.0998  0.1744
13322W        W28791  16.645   5.272  10.020 -0.0962 -0.1083 -0.3393
13323W        W28792   8.230  13.937  15.767  0.3496  0.1012  0.0893
13324W        W28793   7.545   5.405  14.814  0.2314  0.1703  0.1362
13325W        W28794  12.251  14.883   4.152 -0.1765 -0.0602  0.1985
13326W        W28795   4.967   5.070   4.921 -0.1057 -0.1970 -0.0478
13327W        W28796  16.486   8.094  16.207 -0.0108  0.2526  0.0002
13328W        W28797   4.494   8.850   2.938  0.2284 -0.0263 -0.2286
13329W        W28798   7.751   3.725   1.001  0.3028  0.2704  0.2145
13330W        W28799   8.075   2.193   0.759  0.0083 -0.0096 -0.1779
13331W        W28800   1.238  17.494   4.594 -0.1213 -0.0116  0.0863
13332W        W28801  12.131  11.656   2.632 -0.0665  0.0717 -0.0049
13333W        W28802   0.867   9.595   3.013  0.3384  0.2377  0.0795
13334W        W28803  15.641   2.690  15.821 -0.1885 -0.1202 -0.1817
13335W        W28804  13.878   9.263  11.905 -0.2522 -0.0013 -0.1055
13336W        W28805  15.614  17.462   4.405 -0.1475  0.0171  0.3907
13337W        W28806   2.486  17.298   1.040 -0.5462  0.1549  0.2085
13338W        W28807  15.825   3.534   4.200  0.0246  0.0145  0.1628
13339W        W28808   8.078   0.102  14.007 -0.2233  0.3008 -0.1732
13340W        W28809   4.228   5.938  11.061 -0.3798 -0.0135  0.2047
13341W        W28810  12.258   4.764  12.248 -0.2786 -0.1551  0.0037
13342W        W28811  14.345   3.155   5.547 -0.1864 -0.0899  0.0638
13343W        W28812  12.603   3.602   4.893  0.1114 -0.0573 -0.2057
13344W        W28813   9.733  12.193   1.012  0.1873  0.2329 -0.1785
13345W        W28814  12.462  16.940   5.458  0.0690  0.2307 -0.0942
13346W        W28815   1.440   2.482   1.972  0.0463 -0.0476 -0.2529
13347W        W28816  17.581  12.188   1.756 -0.1189  0.1825 -0.0029
13348W        W28817   5.151   0.648  14.274 -0.1566  0.0396 -0.0438
13349W        W28818   8.622   0.022   1.092 -0.0814  0.0096 -0.1699
13350W        W28819  16.037   7.290   4.503  0.5894 -0.0342  0.1713
13351W        W28820   9.178  17.163  12.977 -0.1063  0.1204 -0.1167
13352W        W28821  13.629   4.099   6.446  0.3547 -0.0128 -0.1021
13353W        W28822   6.715   5.035  14.763 -0.2269 -0.0787 -0.0745
13354W        W28823   3.191  13.823  15.170 -0.1040 -0.2150  0.0649
13355W        W28824  11.948   2.015  14.799 -0.2088  0.2238  0.1308
13356W        W28825  10.653  11.001   4.283  0.1916 -0.0584  0.1346
13357W        W28826   9.183   4.785   4.544  0.2073  0.0130 -0.4471
13358W        W28827   5.204   8.226  11.487  0.0743 -0.1505  0.0655
13359W        W28828   9.905   3.581  11.469  0.2618 -0.3766 -0.0427
13360W        W28829   3.505  17.852   1.251  0.1017  0.1560  0.0825
13361W        W28830   1.201  13.077  15.781 -0.2861 -0.0072  0.1161
13362W        W28831   0.581  13.176  15.027 -0.1757 -0.0193 -0.0854
13363W        W28832   0.644   0.063   4.958  0.2220  0.1765 -0.3330
13364W        W28833   5.358  13.249  13.649 -0.1213 -0.2650  0.2183
13365W        W28834  16.605  12.619   3.853 -0.3151 -0.1715 -0.1404
13366W        W28835  17.335   4.017  13.952 -0.1647  0.2923 -0.0978
13367W        W28836   0.804  13.726  12.146 -0.0390  0.0987 -0.0799
13368W        W28837  14.272   7.418  12.046  0.1545 -0.0358 -0.0603
13369W        W28838   6.791  11.536   1.206 -0.1118  0.1543  0.2534
13370W        W28839   4.172   8.056  12.054 -0.2427  0.1580  0.1648
13371W        W28840  12.406  12.647  13.918  0.0113 -0.0330 -0.0532
13372W        W28841   6.313   7.924  14.909  0.0856 -0.1613 -0.0491
13373W        W28842   1.400   6.385  14.508 -0.0858  0.0415 -0.1751
13374W        W28843  15.852  10.333   3.459  0.2008  0.0892  0.1978
13375W        W28844   2.079  15.924  15.557 -0.2317  0.5354 -0.2198
13376W        W28845  16.588   9.115   1.637 -0.2416 -0.3068  0.0391
13377W        W28846  14.927  15.692  15.215  0.2319  0.0075  0.2984
13378W        W28847  11.411  16.330   0.833  0.2362 -0.2988  0.1456
13379W        W28848   5.587   7.340  14.740 -0.3311 -0.3076 -0.2269
13380W        W28849  16.426  10.416   6.314  0.0069 -0.2588  0.3233
13381W        W28850   0.937   9.225  14.942 -0.0196 -0.1050 -0.0961
13382W        W28851   7.009  16.716  14.211 -0.2928 -0.3358 -0.0900
13383W        W28852   0.596   5.730   3.485 -0.3041  0.0622 -0.2298
13384W        W28853  10.312  14.114  14.393 -0.1376  0.1511  0.2724
13385W        W28854   1.072   0.041  14.220  0.0613 -0.1139  0.0663
13386W        W28855  16.717  14.795   5.327 -0.0627 -0.1517 -0.2443
13387W        W28856   6.973  13.663  11.466  0.0696 -0.1478  0.1593
13388W        W28857   5.139  17.265   0.385 -0.0313  0.0057  0.0112
13389W        W28858  10.479  15.431   4.963  0.0736 -0.2064  0.1215
13390W        W28859   6.309  16.001   3.419  0.1380  0.3782 -0.2477
13391W        W28860  11.899   7.133   5.173 -0.1574 -0.3533 -0.2112
13392W        W28861  16.626   1.796   3.723  0.0408 -0.2815 -0.2248
13393W        W28862  13.289  16.255  13.383 -0.3187  0.1497 -0.0302
13394W        W28863  10.133   0.258   3.698 -0.0495 -0.1031  0.4257
13395W        W28864  11.418  14.688  13.880  0.2507 -0.0658 -0.0018
13396W        W28865   5.434  15.364  13.861 -0.0991 -0.0757 -0.0789
13397W        W28866  15.749  15.041   2.541 -0.0439 -0.0529  0.0536
13398W        W28867  11.985   3.898   3.508 -0.1237 -0.1591 -0.0509
13399W        W28868  14.499  16.719   0.820 -0.0260 -0.2825  0.0312
13400W        W28869  17.225   1.138  14.276 -0.0305  0.0506  0.0042
13401W        W28870   0.305  12.110   1.440  0.0406  0.2693  0.1642
13402W        W28871  11.357  12.068  16.117  0.3932 -0.1035  0.2075
13403W        W28872   6.626  14.058  15.088  0.3901 -0.0406 -0.1500
13404W        W28873  15.016   9.112   3.320  0.2705  0.1798 -0.1583
13405W        W28874  13.867   0.615   2.168  0.1135  0.3043 -0.1163
13406W        W28875   7.278  12.247  14.769 -0.2452  0.3006 -0.1991
13407W        W28876  13.991   4.814  15.909  0.2293  0.2751 -0.1911
13408W        W28877   4.157   5.177   4.318 -0.2041  0.0662 -0.2586
13409W        W28878   2.310  11.516   3.954 -0.1453  0.2517  0.0969
13410W        W28879   2.447  12.065   3.926  0.1014  0.0110  0.1892
13411W        W28880   6.094   4.817   1.748  0.0254 -0.1549  0.3531
13412W        W28881   3.686  10.780   3.872 -0.2184  0.0385 -0.2141
13413W        W28882   3.438   6.431  12.135 -0.1951  0.0837  0.0666
13414W        W28883  11.373   4.621  12.785 -0.1069 -0.3646  0.3065
13415W        W28884   2.888  17.368   4.595 -0.0872 -0.0278 -0.4685
13416W        W28885  11.966  14.427  13.724 -0.1921 -0.0455  0.1692
13417W        W28886   7.772   5.214  11.713  0.0266 -0.4268  0.1598
13418W        W28887  12.090  15.953   3.244  0.0694  0.4249 -0.0141
13419W        W28888  12.761  17.563   1.281 -0.1706  0.1701 -0.1422
13420W        W28889  16.372  17.385  10.289  0.0943 -0.0918  0.1136
13421W        W28890   5.487  10.951   3.688  0.1358 -0.1406 -0.3456
13422W        W28891   4.281  11.666  15.894  0.2381  0.0534  0.2106
13423W        W28892  15.069  10.274  14.630 -0.1280 -0.0552  0.4205
13424W        W28893   3.617  15.026   2.169  0.0649 -0.0071  0.0570
13425W        W28894   3.913   0.103   1.340 -0.1531  0.0186 -0.0596
13426W        W28895   1.794   7.573  10.409  0.1207  0.2867 -0.0024
13427W        W28896   1.490   0.994   5.297 -0.0270 -0.1130 -0.0269
13428W        W28897   0.875  15.155  13.459 -0.1166  0.0748 -0.2925
13429W        W28898   9.609   5.919   1.201 -0.2312 -0.1101  0.4064
13430W        W28899  11.631   9.420  14.564 -0.0729  0.0023  0.1858
13431W        W28900   3.132  13.896  13.473  0.1684  0.1029 -0.0045
13432W        W28901   8.284  17.008  11.731  0.1250  0.2708  0.0840
13433W        W28902   9.575  17.143  14.407 -0.0512  0.0199 -0.0659
13434W        W28903  10.378   1.476   3.626  0.1871  0.1791  0.1347
13435W        W28904   0.049   0.699  14.276 -0.2507  0.2961 -0.3177
13436W        W28905   8.679   3.164   5.502  0.1857  0.0773  0.1419
13437W        W28906   0.314  13.812  10.587  0.0226  0.2485  0.0526
13438W        W28907  16.662  17.372   2.269  0.0865 -0.1339 -0.4104
13439W        W28908   0.189   5.473   3.574  0.3629  0.0849 -0.4138
13440W        W28909   7.704  11.226  11.974  0.0532  0.0148 -0.1758
13441W        W28910  12.452   0.328  15.868 -0.1431  0.1899  0.1198
13442W        W28911  13.386   1.272   3.444 -0.2608 -0.2299 -0.2616
13443W        W28912  10.593  12.081  12.745  0.0847 -0.1657 -0.0739
13444W        W28913   4.615   1.405   1.028  0.2303  0.0542  0.0812
13445W        W28914   2.746   7.157   1.989  0.1729 -0.0097  0.2154
13446W        W28915   7.252  11.863   5.776 -0.1179 -0.0190  0.2373
13447W        W28916   8.301   4.819  12.341 -0.1026  0.1839  0.0209
13448W        W28917   3.787   6.258  14.505  0.0633 -0.1079 -0.1494
13449W        W28918   0.194  16.740   3.974 -0.0733  0.1318  0.1530
13450W        W28919  10.416  11.356   4.656  0.2572 -0.1089 -0.2758
13451W        W28920  15.934  13.800  13.073 -0.0606  0.3578 -0.2867
13452W        W28921   3.527  12.469   2.293  0.0489 -0.2053 -0.1123
13453W        W28922   6.017   0.100  15.472  0.1113  0.0610 -0.1073
13454W        W28923   2.112   9.644   3.596  0.1592  0.2970 -0.0570
13455W        W28924  10.380   0.719   5.071 -0.1167  0.1174 -0.0495
13456W        W28925   0.727  14.474  11.191 -0.2499  0.1276  0.0151
13457W        W28926   4.393  15.193  15.583  0.1379  0.1856 -0.2615
13458W        W28927  17.619   4.011   1.132 -0.0069 -0.0414  0.0109
13459W        W28928   3.696   7.276  14.734 -0.0899 -0.2638 -0.0891
13460W        W28929   1.905  17.101   5.894  0.0368 -0.1401 -0.0170
13461W        W28930  17.163   7.937   3.877  0.1063  0.1405  0.3642
13462W        W28931  17.073   4.537  14.635 -0.0808 -0.0972  0.1792
13463W        W28932   6.693  17.740  16.086  0.1895 -0.2239 -0.1135
13464W        W28933  17.007  14.901   2.122 -0.0185  0.0312  0.0448
13465W        W28934   5.410   3.246  16.224 -0.4043  0.3173  0.0452
13466W        W28935   3.152  13.865   2.002  0.2450 -0.0052  0.0311
13467W        W28936  16.153   5.184   1.388  0.0484  0.1694  0.2681
13468W        W28937  16.695  13.024   3.099  0.0172 -0.1136  0.0807
13469W        W28938  11.560  17.642  11.828  0.1268 -0.0828 -0.0787
13470W        W28939   2.976  13.512   2.368  0.2282 -0.1286 -0.3146
13471W        W28940  14.375   8.350   0.171  0.3982 -0.0136 -0.2863
13472W        W28941   8.739   0.479  15.817  0.1259 -0.0984  0.1078
13473W        W28942  12.310   5.618   0.046  0.0643  0.0104 -0.2822
13474W        W28943   4.124   6.143  15.194 -0.0972  0.0405 -0.0264
13475W        W28944  12.001   5.365  13.683  0.1466  0.1158 -0.1512
13476W        W28945  12.889  13.601   0.831 -0.0131  0.0827 -0.2117
13477W        W28946  11.288  12.891   4.040 -0.2624  0.0225 -0.1590
13478W        W28947   2.880  12.297   4.917  0.0008  0.1536 -0.2054
13479W        W28948   4.319   0.187  15.029 -0.2748 -0.1260 -0.1725
13480W        W28949  15.315   5.555  14.286 -0.1313  0.2774 -0.0576
13481W        W28950   7.469   0.002  10.123 -0.2087 -0.1247  0.0225
13482W        W28951  12.098   2.057   2.625 -0.1089 -0.1527 -0.0404
13483W        W28952   1.919   3.882  11.571  0.1440 -0.0004  0.0767
13484W        W28953  10.383  13.710   4.227  0.0055 -0.0824  0.2529
13485W        W28954   3.935   8.705  15.449  0.0210  0.0648 -0.1988
13486W        W28955  14.368  13.418   3.610 -0.2770  0.1534 -0.1850
13487W        W28956  14.821   7.970  11.673 -0.2729  0.2221 -0.0813
13488W        W28957  14.990  13.089  11.251  0.0089  0.2233  0.2676
13489W        W28958   7.919  17.904   5.410  0.0042  0.2945 -0.1644
13490W        W28959   4.872   2.027  14.922  0.2465 -0.0413 -0.2767
13491W        W28960  10.142  13.268   3.358  0.1618 -0.0142  0.1303
13492W        W28961   3.887   9.836   2.776 -0.5528  0.1227  0.2368
13493W        W28962  14.013   2.755  14.717 -0.0771  0.0972  0.0811
13494W        W28963   3.105  12.576  13.113 -0.0638  0.3092 -0.2562
13495W        W28964   0.541   1.298  13.120  0.0012  0.3435 -0.0302
13496W        W28965   6.393  12.917  14.467  0.1545 -0.0975  0.2805
13497W        W28966  11.249   7.734   5.037  0.2245  0.2062  0.2993
13498W        W28967   3.366   9.006   2.556  0.0724  0.1614  0.0463
13499W        W28968  15.918   1.386   5.625 -0.0847 -0.2310 -0.0047
13500W        W28969   3.016  15.047   1.356  0.0761 -0.1257 -0.2585
13501W        W28970  15.409   4.474  14.931  0.2432  0.0523 -0.0450
13502W        W28971  11.753   4.742  15.160  0.1779 -0.0977  0.0012
13503W        W28972   5.378  13.138   2.789  0.0388  0.0566  0.2183
13504W        W28973  16.388   4.921  13.959 -0.0512  0.1397  0.0432
13505W        W28974   4.693   8.548  13.967  0.0009  0.1163  0.3382
13506W        W28975  14.226   9.441   1.001  0.0083 -0.2943 -0.0584
13507W        W28976  16.553   8.506  15.759  0.0606 -0.2589  0.0059
13508W        W28977   1.480  16.172   4.112  0.0034 -0.0897  0.1912
13509W        W28978  16.628  11.989  14.579 -0.0135  0.0899 -0.1170
13510W        W28979  13.428  17.137  11.212  0.1765  0.0491 -0.1393
13511W        W28980   4.504   2.976   1.708  0.0808 -0.0624 -0.2218
13512W        W28981  14.615  12.449  14.757 -0.0105 -0.0895 -0.4027
13513W        W28982   7.235   2.094   4.059  0.1663 -0.0667 -0.1636
13514W        W28983  12.282   0.817  16.157 -0.0257  0.2755  0.4816
13515W        W28984   6.159   4.431   5.644  0.0769 -0.1369  0.0431
13516W        W28985   8.995  14.631  15.786 -0.2557 -0.0687  0.1212
13517W        W28986  13.895   7.937  13.834  0.0793 -0.1811 -0.1679
13518W        W28987  13.046  14.536   0.740  0.1105 -0.0821  0.0593
13519W        W28988  11.242   9.328  10.708  0.1010  0.1964 -0.0989
13520W        W28989   6.141  11.576   4.865  0.0218  0.0530 -0.1123
13521W        W28990   1.402   3.855  13.647  0.0950  0.3701 -0.0073
13522W        W28991  14.683   7.091  12.327 -0.0674  0.0802 -0.1280
13523W        W28992   7.920  15.155  11.218 -0.0248 -0.0538  0.0596
13524W        W28993   7.326  16.015  13.609 -0.0658 -0.2412 -0.1755
13525W        W28994  17.079  18.056   5.298  0.0842  0.0505  0.2067
13526W        W28995   1.458   2.990  11.064 -0.1153 -0.2412  0.2383
13527W        W28996   8.878  12.934   2.945 -0.1027  0.3736 -0.1869
13528W        W28997   2.119  13.035  15.649 -0.1808  0.1753 -0.1623
13529W        W28998  10.095  13.529   4.593 -0.1308  0.0725  0.1632
13530W        W28999   4.666   8.194  12.220 -0.2840  0.1530 -0.0148
13531W        W29000   4.382  17.650   4.641 -0.0028  0.1927  0.1766
13532W        W29001   4.611   1.420  13.778  0.1295  0.0162 -0.1599
13533W        W29002  16.877  15.541  16.067 -0.0817 -0.0950 -0.0473
13534W        W29003   3.027  16.330   0.012  0.3447  0.2596  0.0045
13535W        W29004  16.861  11.904   4.762  0.0101 -0.1908 -0.1380
13536W        W29005   4.816  10.486   1.839 -0.1073 -0.0907 -0.3634
13537W        W29006  10.741  13.595  11.860 -0.2068 -0.0379  0.0211
13538W        W29007   2.892  12.711  16.108  0.0430  0.2815  0.2798
13539W        W29008  15.379   4.474  11.565 -0.2064 -0.0162  0.0161
13540W        W29009   2.561   2.443  10.255  0.1401 -0.1442  0.1730
13541W        W29010  10.592  16.693   1.967 -0.0922 -0.3854  0.2424
13542W        W29011   8.805  10.609  13.607 -0.3318  0.3759  0.0559
13543W        W29012   8.338   1.848  12.791 -0.2102 -0.0324  0.0198
13544W        W29013   7.139   7.380  12.989 -0.3398  0.0267 -0.2765
13545W        W29014  11.000  10.060  15.908 -0.0992  0.0300 -0.0799
13546W        W29015   8.921  12.665   1.082  0.1316 -0.0115  0.0972
13547W        W29016  17.130   0.305   4.892  0.2009  0.0870  0.1984
13548W        W29017  15.524   9.480  16.017 -0.0074 -0.1966  0.1203
13549W        W29018  18.096   6.100   4.094 -0.2626 -0.1777 -0.3958
13550W        W29019   2.755   3.416  15.967 -0.0207  0.0292  0.0005
13551W        W29020   4.587  18.049  13.332  0.0834 -0.1464 -0.1130
13552W        W29021   8.344   4.352  14.084 -0.2465 -0.1743  0.1661
13553W        W29022  11.782  18.019  14.676 -0.1560 -0.1429  0.0645
13554W        W29023  14.256   4.915  11.829 -0.1676  0.3049 -0.1614
13555W        W29024  11.503   7.578   2.128 -0.1824 -0.1591  0.1189
13556W        W29025   6.705   6.450  14.862 -0.1222  0.2610 -0.0264
13557W        W29026   6.794  15.840   0.882 -0.3035 -0.0927  0.0774
13558W        W29027  13.546   6.483   5.467 -0.1088 -0.2594 -0.0247
13559W        W29028   1.778  11.486   1.424  0.0991 -0.1645  0.0078
13560W        W29029   9.186   3.279  13.665 -0.0158 -0.1183 -0.1931
13561W        W29030  14.307  13.816   4.805  0.1801 -0.0513  0.0124
13562W        W29031   0.908   5.130  15.001 -0.1890 -0.2285 -0.2977
13563W        W29032  12.058   8.734  13.447 -0.0061  0.0408  0.1918
13564W        W29033   4.104   8.885   1.991  0.0085  0.0630  0.1420
13565W        W29034   9.617  16.712   2.248  0.2293  0.1618  0.0069
13566W        W29035  17.467   0.133  14.188 -0.1551 -0.2064 -0.2161
13567W        W29036   9.096   6.739  14.841  0.1553 -0.1414 -0.1070
13568W        W29037  13.265   8.190   4.177  0.0960 -0.0083 -0.0066
13569W        W29038  14.931  14.637   5.249 -0.0553 -0.0427  0.1766
13570W        W29039   9.776   6.034   5.012  0.0129  0.1406  0.1993
13571W        W29040  12.902  16.066  14.995  0.0738 -0.1270 -0.1929
13572W        W29041  15.535   9.861   4.797  0.0595 -0.2370  0.5070
13573W        W29042   0.205  10.339  11.293  0.0284  0.0285  0.2568
13574W        W29043   3.185  11.862  14.793 -0.1515 -0.3100  0.2052
13575W        W29044  11.661   7.099   1.596  0.4786  0.0563 -0.0722
13576W        W29045   9.738   0.576   3.508 -0.0959 -0.0001  0.2484
13577W        W29046   4.247  15.674  14.523 -0.0402  0.0527  0.1414
13578W        W29047   8.854   1.589  12.230 -0.1054 -0.2679  0.1184
13579W        W29048  11.390   7.481   0.222 -0.0600 -0.1853  0.2240
13580W        W29049   5.043  12.124   4.058 -0.1063 -0.1115 -0.1394
13581W        W29050   9.160  13.119  13.334 -0.2958  0.2452  0.0914
13582W        W29051  13.723   3.365  15.723  0.2430  0.1792 -0.3805
13583W        W29052  14.680   4.635  14.596 -0.0682 -0.1824  0.0590
13584W        W29053   0.871   2.283   4.635  0.0822 -0.2940  0.1095
13585W        W29054  13.949   7.904  15.580 -0.2054 -0.1604 -0.0314
13586W        W29055   8.260   2.888  14.478  0.1740  0.1983  0.0797
13587W        W29056   8.550   8.552   0.776 -0.0258  0.0574  0.0778
13588W        W29057  11.347   5.007   1.002  0.1127 -0.1948 -0.2621
13589W        W29058  10.313  17.416   2.438  0.2896  0.0331  0.1005
13590W        W29059   1.165   7.587   5.747  0.0867  0.2530  0.0043
13591W        W29060   8.191  10.275   0.150 -0.1395 -0.3438 -0.4060
13592W        W29061   8.852  16.666   4.736 -0.1362 -0.2731 -0.0777
13593W        W29062   0.073   2.461  11.104 -0.5291 -0.2038  0.0843
13594W        W29063  11.225   6.857   1.441  0.3595 -0.5795  0.1323
13595W        W29064   1.941  16.806   5.305 -0.2378  0.1366 -0.1150
13596W        W29065   9.526  15.085  13.979 -0.0283 -0.3403  0.1461
13597W        W29066   5.995  11.715  13.717  0.0421  0.0995 -0.0463
13598W        W29067   5.837  12.554   3.612 -0.0514  0.2471  0.1485
13599W        W29068  11.331   8.323  11.493  0.0102 -0.2057 -0.1234
13600W        W29069   8.172  13.676  13.973 -0.0860 -0.0009  0.1516
13601W        W29070   8.860   0.394  11.877 -0.2479  0.4583 -0.4153
13602W        W29071   6.201  15.029   1.084 -0.2181 -0.1306 -0.1526
13603W        W29072   9.253   2.846  15.494 -0.0319  0.0934 -0.0677
13604W        W29073  14.249  16.893  11.341 -0.1742 -0.0912  0.0034
13605W        W29074  11.522  11.090   5.475  0.1137 -0.0494  0.2879
13606W        W29075  14.156   1.428  11.646 -0.2588 -0.0370 -0.0112
13607W        W29076   3.832  10.834  15.148  0.3807 -0.2877 -0.1169
13608W        W29077  17.816  11.365  13.897  0.0124 -0.2194 -0.0677
13609W        W29078   8.107   0.635   0.640  0.1051  0.2369  0.0253
13610W        W29079  13.104   8.199  12.259 -0.3435  0.5364 -0.2904
13611W        W29080   7.072   2.480   1.318  0.0308  0.0105 -0.0108
13612W        W29081  14.167   3.126  11.641 -0.0862  0.1193 -0.0745
13613W        W29082  12.509   3.119   3.367  0.0282  0.1399 -0.0203
13614W        W29083   1.426  13.889  15.780 -0.1971  0.3301 -0.1624
13615W        W29084  13.932   1.371  14.628  0.1029  0.1499  0.1817
13616W        W29085   0.232   5.610  12.259 -0.1322  0.0585  0.1748
13617W        W29086   6.184   8.794   5.142  0.0587 -0.2496 -0.1059
13618W        W29087   0.670   8.871   2.483 -0.0387 -0.1213 -0.0307
13619W        W29088  17.458   4.556   0.048  0.2473 -0.0780  0.0364
13620W        W29089  10.701   1.864  13.224 -0.2524 -0.2290 -0.1163
13621W        W29090   6.219   6.593  15.876  0.2529 -0.1628 -0.3998
13622W        W29091  11.594   2.514  15.784 -0.2766  0.1747  0.0466
13623W        W29092  17.803  17.649   0.859  0.3830 -0.3259  0.2028
13624W        W29093  15.484   4.149  15.335 -0.1644  0.0620 -0.2106
13625W        W29094   0.573  11.233  11.111  0.2608  0.2366  0.0030
13626W        W29095  14.242  13.154   4.087  0.3100 -0.0095 -0.2711
13627W        W29096  12.246   5.879  13.072  0.1150  0.0935  0.1604
13628W        W29097   0.318  15.140  14.419 -0.0211 -0.0670  0.0603
13629W        W29098  14.177   9.259   2.458 -0.0326 -0.2596  0.0884
13630W        W29099  13.720   3.104  11.847 -0.1595 -0.1233  0.0505
13631W        W29100  16.482   8.961  14.609  0.1216  0.0007  0.0270
13632W        W29101   4.987  13.062  14.499 -0.1864 -0.1827  0.2077
13633W        W29102   8.064  12.671  11.041 -0.1053  0.0618  0.0396
13634W        W29103   0.473   0.927  13.433 -0.0524 -0.0653 -0.2227
13635W        W29104  10.584  16.792   4.168 -0.0768 -0.0146 -0.2709
13636W        W29105   1.101  14.860  10.408 -0.1395  0.0428  0.1363
13637W        W29106   5.610   1.085   4.698  0.3157 -0.1773  0.2005
13638W        W29107   5.836  14.188   1.881  0.1424  0.0152  0.1902
13639W        W29108   3.495  10.259  13.960  0.2936 -0.0456  0.3764
13640W        W29109   1.174   8.491  11.587 -0.3829  0.1151 -0.0644
13641W        W29110  11.908  17.148  13.461 -0.0060 -0.1906 -0.0683
13642W        W29111  14.494   7.830   4.873 -0.2820 -0.2727 -0.1769
13643W        W29112   4.904  10.594  10.071  0.5275 -0.0897 -0.0160
13644W        W29113   5.116  11.493  12.686  0.1324  0.1930  0.2278
13645W        W29114  15.904   5.702  11.140  0.0415  0.0268  0.1317
13646W        W29115   4.738   7.858  10.786  0.3438 -0.0279 -0.1242
13647W        W29116  16.506  16.510  10.350  0.0625  0.2216  0.1415
13648W        W29117   1.793  13.730  16.149 -0.1430  0.1811  0.1779
13649W        W29118   0.791   9.665  14.711 -0.0857 -0.3851  0.1631
13650W        W29119   1.010   6.722   4.511  0.0294 -0.0274 -0.2826
13651W        W29120  11.475   0.582   0.199 -0.0732 -0.1875 -0.0755
13652W        W29121   1.546   4.474   2.635  0.3647  0.1706  0.2327
13653W        W29122   0.332  10.412  13.761 -0.3661 -0.0823  0.1256
13654W        W29123  17.960  16.725   3.536  0.1748  0.0102 -0.0293
13655W        W29124   6.738  17.193  16.291  0.2895  0.3017 -0.0855
13656W        W29125   9.826   6.673   1.750 -0.1816 -0.0610  0.0975
13657W        W29126  17.203  12.740  13.922  0.1438 -0.2219  0.0957
13658W        W29127  16.714  16.837  12.956 -0.2716 -0.0730 -0.0576
13659W        W29128   3.318   0.759  14.032  0.2150 -0.0452 -0.0034
13660W        W29129   0.952   1.494   3.716 -0.1492  0.1126  0.2518
13661W        W29130  15.269   8.402   0.806 -0.1431  0.1375  0.2537
13662W        W29131  15.112   3.650   1.223 -0.0244 -0.0170  0.1071
13663W        W29132   3.846   8.287  15.754 -0.0422 -0.1071  0.0028
13664W        W29133   8.774  14.868  12.874 -0.1656  0.2282  0.0206
13665W        W29134  16.176   1.229   2.445  0.1089 -0.0638  0.0398
13666W        W29135   5.021   6.427  15.356  0.0368  0.0317 -0.0242
13667W        W29136   8.337   2.375   4.414  0.1070 -0.0166  0.1013
13668W        W29137  14.581  12.849   2.028 -0.3661  0.2402 -0.1169
13669W        W29138  17.845  11.717   5.106 -0.2436 -0.1099  0.0844
13670W        W29139   3.302  12.042   3.618 -0.0920 -0.1884  0.2254
13671W        W29140   6.435   1.946   3.574  0.0577  0.4379 -0.1497
13672W        W29141   3.971   3.871  15.985 -0.1163  0.0028  0.0495
13673W        W29142   3.777   9.878  14.773 -0.0981  0.0017 -0.0207
13674W        W29143   6.950  15.973   0.050 -0.1826  0.0488 -0.1635
13675W        W29144  13.390   3.130   0.936  0.0942  0.3528  0.3815
13676W        W29145   8.532   6.952  11.754 -0.1671 -0.2626  0.5912
13677W        W29146   7.773   1.011  13.988 -0.0224  0.0445  0.0466
13678W        W29147   0.148   8.028  16.189  0.0435 -0.1282 -0.1120
13679W        W29148   1.566   2.927   0.002 -0.2763 -0.0850 -0.1365
13680W        W29149   2.987   6.550   3.175  0.0357 -0.0270  0.3621
13681W        W29150   6.223  14.878  13.908  0.1820  0.2036 -0.0715
13682W        W29151  12.313   4.038   3.992 -0.3176  0.1970  0.1111
13683W        W29152  13.874   0.676   0.196  0.2080 -0.2235 -0.0060
13684W        W29153   7.536  14.433  14.423  0.0358  0.0473 -0.3662
13685W        W29154   5.188  15.579   4.645 -0.1611 -0.3172 -0.0792
13686W        W29155  15.211  11.903  12.809 -0.0955  0.0500 -0.0141
13687W        W29156  15.119   3.412   1.627  0.2210 -0.3838  0.0764
13688W        W29157  11.372  17.796   1.748 -0.0422  0.2519 -0.1016
13689W        W29158  16.543  12.572   0.972 -0.1335  0.2017 -0.1770
13690W        W29159   0.044   8.062   0.858  0.1003 -0.2816  0.0290
13691W        W29160  10.263   6.773   2.197  0.1449 -0.2016 -0.1616
13692W        W29161   8.223   6.675  15.846 -0.1955 -0.2766 -0.0938
13693W        W29162  17.053  11.179   0.084  0.1457 -0.0506  0.0907
13694W        W29163   6.404  17.906  15.711 -0.1467 -0.1551  0.0965
13695W        W29164   3.139  17.795  10.720 -0.1423 -0.1139 -0.2960
13696W        W29165  12.181  17.638  11.642  0.0765 -0.0110 -0.2107
13697W        W29166   7.642  14.918  10.843  0.0298 -0.1042 -0.1114
13698W        W29167  17.226  12.155   4.344  0.2389 -0.1004 -0.0171
13699W        W29168   5.885   6.424   4.131 -0.3076 -0.0787  0.2416
13700W        W29169  17.391  16.238  14.598 -0.0853  0.1366  0.1782
13701W        W29170   2.385  17.873   0.425 -0.2382 -0.2801 -0.1197
13702W        W29171   6.541   4.671   6.457 -0.1563  0.0826  0.3921
13703W        W29172   7.506   9.608   1.982 -0.1033 -0.1130  0.0334
13704W        W29173   8.415  11.992  11.540  0.1283  0.0026  0.0672
13705W        W29174   2.936  10.316  14.883 -0.1780 -0.1679  0.2465
13706W        W29175   2.037  14.957  15.168  0.0010  0.0333 -0.1155
13707W        W29176   0.589   0.261   0.533  0.1619  0.0972 -0.0568
13708W        W29177  11.147   0.356  15.112 -0.2162 -0.0601 -0.1676
13709W        W29178   0.653  11.090   3.709  0.0517 -0.0739  0.0700
13710W        W29179  13.184  10.675  16.223  0.3633 -0.0452  0.0616
13711W        W29180   8.400  16.363  11.227 -0.0612  0.0932 -0.1994
13712W        W29181   5.670  11.551   2.055  0.2722  0.3891 -0.0076
13713W        W29182  15.147  16.392  14.976  0.1723 -0.1466 -0.0611
13714W        W29183  16.911  16.261  14.808  0.0691  0.1494  0.0464
13715W        W29184  16.334   8.597  14.960 -0.1891 -0.1030  0.0946
13716W        W29185   2.160   4.369   5.645 -0.0659  0.1728 -0.4803
13717W        W29186   3.809  16.548  13.030 -0.4546 -0.0934  0.1042
13718W        W29187   2.905  14.234  11.005  0.2967  0.1546  0.3206
13719W        W29188  14.921   2.313  14.639 -0.0504 -0.0698  0.1833
13720W        W29189   2.853   5.087  11.330  0.1002  0.0969  0.2466
13721W        W29190  13.418  12.792  14.044  0.1647 -0.0706  0.3161
13722W        W29191  16.051  11.984   3.230  0.0238  0.1068 -0.1515
13723W        W29192   4.719   4.862   3.252 -0.0099 -0.1838 -0.0512
13724W        W29193  16.421  14.039   2.095  0.0399  0.1813 -0.1435
13725W        W29194  16.109  12.830   3.852  0.3607 -0.1017 -0.0402
13726W        W29195  13.282   1.514  11.873 -0.2060  0.3114 -0.1038
13727W        W29196  16.092  11.717   3.728 -0.2792  0.0730  0.1304
13728W        W29197   7.007   5.793  12.890  0.0878  0.3758 -0.2538
13729W        W29198   6.391   1.261   2.338 -0.0340  0.4644  0.1240
13730W        W29199  14.634  15.947   4.433  0.0626 -0.2655  0.0815
13731W        W29200   3.644  13.810  13.376 -0.0325  0.0469  0.1533
13732W        W29201  10.387   8.103   2.855 -0.0126 -0.1390  0.1917
13733W        W29202  12.899  11.046   5.445  0.0514 -0.1635  0.0297
13734W        W29203   9.442  13.442   1.731 -0.3890 -0.0353  0.2012
13735W        W29204  15.059   2.014  14.268  0.1535 -0.1923  0.2477
13736W        W29205   5.635   4.312   2.838 -0.1314 -0.0420 -0.4004
13737W        W29206  13.804   1.716   1.836  0.3346 -0.0685 -0.0241
13738W        W29207   3.793   4.120   0.055 -0.2363  0.0739 -0.0305
13739W        W29208   0.578  15.538  14.623 -0.0031  0.5683 -0.3157
13740W        W29209  13.177  15.023   2.215  0.0420  0.0730  0.0394
13741W        W29210  17.761   8.169   2.594 -0.0611  0.1657 -0.0581
13742W        W29211   2.946   9.636   5.193  0.0874 -0.0770  0.1672
13743W        W29212  11.580   3.425  12.583 -0.1099  0.2653  0.0468
13744W        W29213   7.488   8.012   0.568  0.2257  0.2778  0.3542
13745W        W29214   6.413   5.624  13.954 -0.1610  0.0649  0.0225
13746W        W29215   6.102   4.382  12.446  0.0862 -0.3252  0.3061
13747W        W29216  13.007  13.495  13.021 -0.0180 -0.1255 -0.1409
13748W        W29217   0.011  13.662  16.222  0.1078 -0.0958  0.0682
13749W        W29218  16.863   3.538  15.796  0.0396 -0.4963 -0.2536
13750W        W29219  14.829  14.938   4.466 -0.1260  0.0627 -0.1271
13751W        W29220   2.433   9.222  11.360  0.2500  0.1073  0.3008
13752W        W29221   6.564   1.102  16.144 -0.1989 -0.0528 -0.0116
13753W        W29222   8.849  10.681  11.742  0.1595  0.1832 -0.1260
13754W        W29223   0.438  13.286   2.258  0.1759  0.1665  0.0699
13755W        W29224   8.702   0.151  11.399 -0.1259 -0.0416  0.2847
13756W        W29225  10.524   9.431  11.292 -0.0045 -0.1596 -0.0656
13757W        W29226   8.782  14.435  13.329 -0.1316 -0.2109 -0.0549
13758W        W29227   4.200  15.750   4.731 -0.0180  0.1867  0.0733
13759W        W29228  10.816   0.356  14.743  0.1163  0.2697 -0.1225
13760W        W29229   7.837  16.800   0.922 -0.1433  0.0646 -0.1740
13761W        W29230  12.148   1.442  14.939  0.0968  0.0383 -0.0153
13762W        W29231  16.880  10.361  13.599 -0.3576  0.0669 -0.0283
13763W        W29232   8.486   6.459   5.399 -0.3588  0.0326  0.2511
13764W        W29233   0.899  11.268  11.563  0.0805 -0.1208  0.2912
13765W        W29234   6.952   0.898   1.540 -0.3943 -0.1046  0.0683
13766W        W29235   3.136  12.944  10.561 -0.2455  0.0715 -0.1236
13767W        W29236   9.160   0.776   0.849 -0.2555  0.2714 -0.1057
13768W        W29237   2.783  13.185  15.178  0.0901  0.0570 -0.0428
13769W        W29238   2.729   7.741  11.971 -0.2249  0.0509  0.0072
13770W        W29239   3.590   8.116   0.323 -0.0777 -0.1447 -0.1155
13771W        W29240  14.591   1.162   4.113 -0.0172 -0.1371 -0.0811
13772W        W29241   6.561   4.826   4.156 -0.1896 -0.2946  0.2227
13773W        W29242   3.094   3.116   2.672  0.1267  0.1089 -0.0130
13774W        W29243  17.282   5.809  11.320 -0.0450 -0.1066  0.1947
13775W        W29244  10.835   9.889   9.925  0.0359 -0.0170  0.4468
13776W        W29245   2.994   5.716  16.179  0.0191  0.0277  0.2758
13777W        W29246  12.756   7.306  14.367 -0.1354  0.2315 -0.2419
13778W        W29247   1.882   7.015   2.326 -0.0907 -0.1847 -0.2578
13779W        W29248   6.511  14.674   2.486 -0.0009  0.0656 -0.2815
13780W        W29249  16.613   1.995   4.234 -0.1033  0.0873 -0.0080
13781W        W29250  14.946   0.924   4.977  0.1424  0.2147 -0.3044
13782W        W29251   1.012   0.563   3.833  0.1662 -0.0340  0.1800
13783W        W29252   3.260   8.695   3.052  0.2005  0.0534 -0.1241
13784W        W29253  15.373  10.008   3.376  0.1057  0.0010 -0.1017
13785W        W29254   4.314  10.361  13.944 -0.0610 -0.5295 -0.1529
13786W        W29255  17.435   6.240   0.040  0.0789  0.0796  0.3144
13787W        W29256   5.729   1.277  15.889  0.0975  0.0209 -0.0263
13788W        W29257  15.039   6.761   1.168 -0.1254 -0.2034  0.0080
13789W        W29258  11.128  10.362   4.620 -0.0357  0.1745  0.0629
13790W        W29259  10.183   0.188   1.055  0.0315  0.1297 -0.2092
13791W        W29260  17.789  12.714  11.404 -0.1389 -0.1703  0.1123
13792W        W29261  15.538   2.544   0.072  0.3270  0.2186 -0.0699
13793W        W29262   2.765   9.599  13.106  0.0160 -0.2159  0.2272
13794W        W29263   1.986  17.248  15.682  0.0171 -0.1652  0.0458
13795W        W29264  13.972   4.998   6.295  0.0190  0.2638  0.0245
13796W        W29265   5.690  13.842   4.081  0.0547 -0.0409  0.0621
13797W        W29266   0.130   6.260  10.919  0.0518  0.0078 -0.1951
13798W        W29267  15.021  15.171   1.501  0.1042 -0.0308  0.4284
13799W        W29268   5.492   9.522   5.292 -0.3800  0.1645 -0.1291
13800W        W29269   8.216   4.881  15.847  0.1103 -0.0088 -0.0559
13801W        W29270  12.029  15.294   0.412 -0.1791 -0.2682 -0.2922
13802W        W29271   8.898   5.989  14.306 -0.0643 -0.4279 -0.0059
13803W        W29272   7.819  10.263  15.148 -0.1807  0.1402 -0.0139
13804W        W29273  14.664  14.248   5.013  0.0308 -0.0066 -0.0420
13805W        W29274   7.634   2.405   1.082  0.0928  0.3627 -0.0838
13806W        W29275  14.026   7.610  15.044 -0.1683  0.6392 -0.1012
13807W        W29276  11.539   1.910   0.898 -0.0275 -0.1465  0.1963
13808W        W29277   1.380  17.651  13.023 -0.0706  0.1762  0.3041
13809W        W29278   2.187   2.260   3.094 -0.0505  0.0336  0.1891
13810W        W29279   0.689   6.826   0.788 -0.2171 -0.1190 -0.0128
13811W        W29280  14.614  10.266  10.507 -0.0809  0.2417  0.3388
13812W        W29281  15.315  11.986   5.063 -0.0762  0.0716 -0.1931
13813W        W29282   7.148  10.127  13.232 -0.2580  0.0231  0.0934
13814W        W29283  13.189  12.023   0.142  0.3492 -0.0027  0.0862
13815W        W29284   4.248  14.455   2.226  0.0312  0.0027 -0.0504
13816W        W29285   2.941   0.237  11.342  0.3075  0.2137 -0.0330
13817W        W29286  11.824   2.493  15.004  0.1505 -0.0400  0.2384
13818W        W29287   8.656   6.167   4.487  0.0972 -0.3880  0.2315
13819W        W29288  15.350  13.336  14.718  0.3996  0.1169 -0.0124
13820W        W29289   5.448  17.290   2.747  0.1434  0.0878  0.1008
13821W        W29290   9.184  16.478  15.678  0.1831 -0.1976 -0.0753
13822W        W29291  11.962  14.956   1.487  0.1660 -0.0313 -0.0666
13823W        W29292   0.307  14.238   4.065 -0.1108  0.0670 -0.2420
13824W        W29293   0.356   1.286  10.096 -0.0634  0.1494 -0.0475
13825W        W29294  11.613  13.283   3.893 -0.0388  0.3663 -0.0517
13826W        W29295   7.234  11.225   4.761  0.1040 -0.3474 -0.2259
13827W        W29296   6.361   1.483   5.376 -0.2471  0.1219  0.1415
13828W        W29297   7.191   4.201   2.388 -0.0778  0.2521 -0.2048
13829W        W29298  12.682   6.010  11.867  0.0125  0.1030  0.0729
13830W        W29299   4.256  11.423   0.500  0.2726 -0.0298 -0.2958
13831W        W29300   7.807  16.114  15.011 -0.1263 -0.0961 -0.0834
13832W        W29301   6.315  16.459   0.355  0.0218 -0.1428  0.0201
13833W        W29302   6.509   7.867   3.457 -0.1154  0.0916  0.0436
13834W        W29303  14.598   3.103  12.527 -0.1045 -0.2814 -0.0206
13835W        W29304   7.274  14.754   2.000  0.2386  0.1170 -0.2164
13836W        W29305   7.277   2.894  14.724  0.0983  0.0743  0.0370
13837W        W29306  10.654   0.464  15.529 -0.2696  0.2195  0.0898
13838W        W29307   9.784   3.396   3.541 -0.1605 -0.1523 -0.3760
13839W        W29308   4.717  10.539  15.240 -0.0939 -0.0960 -0.2982
13840W        W29309   5.337   1.023   4.075 -0.1062 -0.4305 -0.0326
13841W        W29310  11.914   1.783   4.791  0.1215  0.0211  0.1945
13842W        W29311  15.473   3.184  15.491 -0.4502 -0.0021  0.0343
13843W        W29312  11.320  16.137   0.002 -0.0979 -0.0411  0.1165
13844W        W29313   4.857  13.736  11.607  0.0449  0.1797  0.2078
13845W        W29314   6.170  10.243  15.436 -0.2621  0.1079 -0.2981
13846W        W29315  13.274   2.103  13.000  0.0708 -0.2907 -0.1736
13847W        W29316   5.642   0.404  14.186  0.0747 -0.0620  0.4311
13848W        W29317   4.491   2.316  14.410 -0.0181 -0.0488 -0.2110
13849W        W29318   8.195   8.969  13.562  0.1630 -0.2192  0.0837
13850W        W29319  13.889   6.314  13.877 -0.2045  0.0535 -0.0979
13851W        W29320   6.931   1.394  12.282  0.0130  0.0976  0.1444
13852W        W29321  17.842  10.851   1.506  0.0818  0.2571 -0.0290
13853W        W29322   0.372  16.355   4.240  0.1029 -0.0623 -0.2479
13854W        W29323  14.767   9.363  14.028  0.1704  0.0757 -0.1442
13855W        W29324  17.778   6.374   5.109 -0.1896  0.1779 -0.1351
13856W        W29325   8.987  16.098  12.030 -0.0866 -0.3376  0.2875
13857W        W29326   1.652  12.805   0.225 -0.1460  0.2800  0.0258
13858W        W29327   2.905   2.316  12.243  0.2046  0.0800  0.2977
13859W        W29328  12.108  13.449  14.396 -0.0113 -0.0002  0.1815
13860W        W29329  10.582  11.450  14.896  0.2786  0.2312  0.0840
13861W        W29330  13.057   2.923  15.159  0.0414 -0.1020 -0.2991
13862W        W29331   0.135  17.340  12.525  0.0955  0.0189  0.2638
13863W        W29332   1.404  11.049  11.358 -0.2370 -0.1437 -0.2160
13864W        W29333   3.164   3.625  13.095 -0.1120  0.0479 -0.1973
13865W        W29334   4.025   9.307  14.673  0.0096 -0.1355  0.0508
13866W        W29335   5.008  18.046   4.137 -0.0052  0.2831  0.2630
13867W        W29336   0.931  16.775   2.747  0.1654 -0.1093 -0.2622
13868W        W29337   6.177   9.730   5.484 -0.0377  0.3780 -0.0810
13869W        W29338   6.012   5.286  15.791 -0.1400 -0.0557  0.0317
13870W        W29339  15.942   1.454   2.921  0.0083  0.1689  0.1259
13871W        W29340   1.467  10.025   5.207 -0.0047  0.1742  0.1087
13872W        W29341   1.111   7.159   1.797  0.2282  0.0731 -0.0331
13873W        W29342  13.940  16.853   0.058 -0.1570 -0.0847 -0.1606
13874W        W29343  15.924  17.263  15.039  0.1244 -0.1323 -0.1064
13875W        W29344   6.590   0.563   1.787  0.2898 -0.1222 -0.2103
13876W        W29345   6.233  13.695   9.810 -0.0178 -0.0600  0.3397
13877W        W29346   4.145  15.874  13.659  0.0876  0.1016  0.0838
13878W        W29347   3.228   3.555   4.451  0.1537  0.1029  0.0119
13879W        W29348   1.128   8.159  12.522  0.2035 -0.0704  0.1311
13880W        W29349  12.076   0.300  16.295  0.0739 -0.0708 -0.1993
13881W        W29350  12.991  13.253   3.712  0.0702  0.1318 -0.0700
13882W        W29351  12.949  13.652  16.046  0.1834 -0.2364  0.1560
13883W        W29352   8.320   4.052   3.036  0.3093 -0.0352  0.1142
13884W        W29353   2.510  13.380  15.613  0.2749 -0.1620  0.0277
13885W        W29354  11.829   1.298   2.606  0.3601 -0.0527  0.1133
13886W        W29355  14.040  15.673  13.384  0.2530  0.0010  0.2074
13887W        W29356  13.780  17.405  14.537  0.1566 -0.1333 -0.1933
13888W        W29357  14.768  13.398  12.582  0.0417  0.3166  0.1464
13889W        W29358   4.415  15.588   0.049 -0.5650  0.0276 -0.1276
13890W        W29359   8.218   1.696   0.844  0.1656 -0.0221  0.2054
13891W        W29360   3.761  17.312  11.854  0.1012 -0.1647  0.1244
13892W        W29361  15.114  16.625  11.112 -0.2885  0.0871  0.1421
13893W        W29362   8.225   3.385  12.702  0.1344  0.2059  0.1501
13894W        W29363   8.334   3.052  14.029  0.0141 -0.0802  0.0688
13895W        W29364   5.212   6.188   2.372  0.0448  0.3052  0.2040
13896W        W29365  16.753   0.062  11.015  0.0540 -0.0537 -0.0868
13897W        W29366   5.287  12.072   0.707  0.1024  0.0383 -0.2396
13898W        W29367  15.280   7.483   3.444  0.0574  0.3280 -0.3811
13899W        W29368   3.372  16.114   5.089 -0.0962  0.0442 -0.0116
13900W        W29369   5.095   6.648   2.855 -0.3985  0.0871  0.1018
13901W        W29370   7.231  16.372   2.529  0.2383  0.1197 -0.3010
13902W        W29371  15.892   8.328   2.555  0.2053  0.0450  0.1157
13903W        W29372   4.567   9.238   0.717 -0.3197 -0.3990  0.1001
13904W        W29373  15.895  15.784   2.453 -0.0691  0.1734  0.1748
13905W        W29374   6.015   2.614   2.667  0.0468  0.2590 -0.3344
13906W        W29375   8.532   2.290  15.003  0.1880  0.2864 -0.0937
13907W        W29376  13.101   2.277   3.799  0.1506 -0.2613 -0.2427
13908W        W29377   6.396  11.486  11.484  0.0880  0.2327  0.1967
13909W        W29378  15.761   2.211   4.463 -0.2052  0.0626 -0.0983
13910W        W29379   9.175  15.025   3.850 -0.0440 -0.3515 -0.1371
13911W        W29380   5.007   1.747   1.866 -0.0675  0.2537  0.3788
13912W        W29381  14.970   6.254  13.548  0.0463  0.4811 -0.2300
13913W        W29382   2.356   8.369   3.142 -0.1471  0.2879 -0.0739
13914W        W29383   2.656   7.977  13.289 -0.2999  0.0386  0.2065
13915W        W29384   8.583  10.593   0.469 -0.1016 -0.1200  0.2767
13916W        W29385  10.486  10.368   4.228  0.3682  0.2028 -0.1298
13917W        W29386   0.590   3.717  13.102 -0.3886  0.1366 -0.2126
13918W        W29387  17.015  13.945  10.912 -0.0852  0.0085 -0.3166
13919W        W29388   7.035   1.885   0.626 -0.4697  0.2876  0.0910
13920W        W29389   0.254   4.711  14.709  0.3424 -0.2922 -0.1776
13921W        W29390   8.532   2.667   5.704  0.0679 -0.0790  0.0530
13922W        W29391  11.385   4.729   3.005  0.0160  0.1124  0.1434
13923W        W29392   6.922  10.789   1.266  0.2668  0.1348 -0.0836
13924W        W29393   1.245  13.113  12.785  0.1459  0.0385 -0.1966
13925W        W29394  16.304   6.824  12.400 -0.0806  0.0762 -0.0199
13926W        W29395  12.398  17.384  13.440 -0.2226  0.1458  0.1392
13927W        W29396  16.902   8.024  13.561  0.2067 -0.0080 -0.0970
13928W        W29397   8.836   7.341  11.659 -0.0439  0.0025 -0.2363
13929W        W29398  16.598   6.531  14.535 -0.0399  0.1707  0.1321
13930W        W29399   5.833   0.261   1.477 -0.4927 -0.1248  0.2132
13931W        W29400   1.785  17.772  13.635  0.3604  0.0992 -0.0201
13932W        W29401   7.665   2.592   5.064 -0.1085 -0.1427  0.1295
13933W        W29402   3.173   6.674   0.164  0.1739 -0.1099 -0.0956
13934W        W29403   1.334  11.357  13.577 -0.1376 -0.3887  0.0262
13935W        W29404  10.233   2.893   0.322 -0.0273  0.1571  0.0545
13936W        W29405  12.115  15.969  13.417 -0.1164  0.0578 -0.0462
13937W        W29406  10.550   4.704   6.013 -0.2850 -0.0666  0.0392
13938W        W29407   9.379   8.490  15.289  0.0304  0.0838  0.0900
13939W        W29408  15.343   5.051  10.872 -0.1592 -0.2722 -0.0518
13940W        W29409   6.468   9.547   0.694  0.1385  0.2814 -0.0443
13941W        W29410  14.686  14.106  11.453 -0.1871  0.0981  0.0420
13942W        W29411   0.619   5.908   2.393 -0.0662  0.1200 -0.0324
13943W        W29412  14.969   1.012  12.477  0.0320 -0.0745  0.0379
13944W        W29413  14.215  15.635  13.953  0.0392 -0.2891 -0.2850
13945W        W29414  11.724   0.319   5.843 -0.0437  0.1873  0.1694
13946W        W29415  15.223  12.855  16.276  0.3026  0.1512 -0.0292
13947W        W29416  16.290  12.267   1.482  0.2339  0.1630  0.0632
13948W        W29417  14.507   7.617  14.443 -0.0147 -0.0541 -0.1520
13949W        W29418  17.387  16.909   5.022  0.0634 -0.2475  0.3316
13950W        W29419   0.058   0.643  12.751  0.1899 -0.0067 -0.1207
13951W        W29420  14.870  16.963   4.213  0.2967  0.1615 -0.0954
13952W        W29421  17.006   3.852  16.139  0.0126 -0.3937  0.0490
13953W        W29422   6.207   1.412  15.976  0.0840  0.0033  0.1691
13954W        W29423   1.511   4.397   3.653 -0.0828 -0.2065 -0.0394
13955W        W29424  14.328  11.170  11.532 -0.1628 -0.0227  0.3679
13956W        W29425   3.856  12.329  11.361 -0.0852 -0.0079 -0.2564
13957W        W29426  14.565   1.684   4.071 -0.0521 -0.0638 -0.0776
13958W        W29427   3.184   8.871  11.507 -0.1989 -0.1634 -0.0645
13959W        W29428   9.771  14.048  13.724  0.2168  0.0551 -0.2225
13960W        W29429   8.252   5.953   0.273  0.3015  0.0513 -0.2345
13961W        W29430  11.795   1.792   1.344  0.2914 -0.3099  0.0017
13962W        W29431   4.998   9.257   3.755  0.0788 -0.0513  0.0815
13963W        W29432   1.751   7.804  16.115 -0.0530  0.1169 -0.1534
13964W        W29433  15.098  16.486   2.483 -0.0678 -0.1216  0.3547
13965W        W29434  13.397   1.662  15.198 -0.1746  0.2102  0.0097
13966W        W29435   3.182  17.059  13.660 -0.0659 -0.1233  0.0075
13967W        W29436  13.280   6.574  14.603  0.0872  0.3571  0.2464
13968W        W29437   6.809  14.451  11.214  0.0073  0.0434  0.0109
13969W        W29438   6.811   8.217  12.071 -0.3794 -0.0363  0.2043
13970W        W29439  16.640  12.844  15.070  0.1361 -0.1748  0.1418
13971W        W29440  15.579  12.944  11.752 -0.0300  0.2537  0.0586
13972W        W29441   8.787   4.449  16.012  0.1192 -0.1675  0.4659
13973W        W29442  16.576  17.405  16.161  0.0285  0.1360 -0.0859
13974W        W29443   6.425   1.081   5.059 -0.0142 -0.1580  0.4003
13975W        W29444  17.028   6.971  14.397 -0.0304 -0.1754  0.0389
13976W        W29445   9.862   5.210   5.594 -0.2726  0.2185  0.0231
13977W        W29446  16.000   4.922   4.444 -0.0796  0.0091  0.1659
13978W        W29447   6.878   9.826   4.086  0.1736 -0.1368  0.0201
13979W        W29448  10.791   5.774  14.771 -0.0717 -0.2854  0.0221
13980W        W29449  11.424  12.299  14.421  0.1479 -0.3348 -0.0058
13981W        W29450   1.136  16.411  13.817 -0.1143 -0.3176 -0.2394
13982W        W29451   9.223   7.481   5.747 -0.1239  0.0740 -0.1720
13983W        W29452   0.968   7.711  13.400  0.2024  0.1664  0.4490
13984W        W29453  15.753  15.041   0.407 -0.0586  0.4377  0.1364
13985W        W29454   2.115  11.612  11.160  0.1104 -0.0706  0.0992
13986W        W29455   5.222  16.315  11.617  0.3157 -0.0320 -0.0272
13987W        W29456   4.734   7.013   3.063 -0.2154  0.0480 -0.0787
13988W        W29457  16.998   9.020  15.477  0.1475  0.0742  0.0472
13989W        W29458   9.903   5.473  13.582 -0.1899  0.1601  0.1188
13990W        W29459   1.737   1.768  11.634 -0.2631 -0.0946 -0.0230
13991W        W29460  16.760  17.764  15.368  0.0495  0.0106 -0.0013
13992W        W29461  14.375  16.301   4.781 -0.1128  0.2980  0.2196
13993W        W29462   5.448  15.126  12.728 -0.1085 -0.0069  0.0844
13994W        W29463  11.108  14.407  14.240  0.3538  0.0014 -0.2116
13995W        W29464   0.500   4.255  13.675  0.1286 -0.0442  0.2409
13996W        W29465  10.195  15.990  16.195  0.0623  0.2316 -0.2833
13997W        W29466  14.113   2.966  12.464 -0.1882 -0.1417 -0.0120
13998W        W29467   0.838   0.567  11.717 -0.1342 -0.1642  0.2762
13999W        W29468  11.646  16.707  13.443 -0.1584  0.2847 -0.1620
14000W        W29469   9.774  11.344   0.553 -0.1173  0.4426  0.1225
14001W        W29470   9.913   4.199  12.818 -0.3689  0.0915 -0.2396
14002W        W29471   4.459  13.987  11.493  0.0491 -0.1811 -0.1947
14003W        W29472  13.837  11.028   3.686 -0.0120 -0.1993  0.1797
14004W        W29473   2.313   5.360   3.307  0.2242 -0.0709  0.1467
14005W        W29474   0.963  10.865   2.025 -0.0291 -0.0528 -0.4280
14006W        W29475  10.024   0.993  15.730  0.0177 -0.1862 -0.1955
14007W        W29476   4.702  15.793  13.492 -0.2993 -0.0379  0.0670
14008W        W29477  10.092  14.730   0.756 -0.0470 -0.1757 -0.3598
14009W        W29478  10.702  10.212  11.854  0.0629  0.1336  0.1379
14010W        W29479   6.617  15.502   0.011 -0.2696 -0.3468  0.2419
14011W        W29480  13.713   3.277   5.073 -0.0967  0.1114  0.0177
14012W        W29481   6.441  18.073   3.912  0.1006  0.0802  0.1732
14013W        W29482  13.795   7.031   4.203  0.1898  0.0157 -0.2135
14014W        W29483  12.035   1.664  14.447  0.1179  0.0330 -0.0685
14015W        W29484   0.115  10.900   1.949 -0.2133  0.0309 -0.2149
14016W        W29485   1.003   6.099   5.485 -0.3659  0.0057 -0.0851
14017W        W29486  12.040   7.671  11.706  0.0517  0.2013 -0.2028
14018W        W29487  11.723  14.250  12.867 -0.0668 -0.0423  0.1152
14019W        W29488   2.545  11.012   2.393  0.0901  0.1276 -0.2169
14020W        W29489   4.514  13.251   3.669 -0.0543 -0.2862  0.2380
14021W        W29490  15.175  11.014   2.613 -0.0687 -0.2709  0.0050
14022W        W29491  15.459  16.072  13.103 -0.3129  0.1662 -0.2862
14023W        W29492   8.309   7.648   5.911  0.4071 -0.1645  0.2090
14024W        W29493  15.429  10.590  11.126 -0.0543  0.1275  0.0523
14025W        W29494   2.012  12.449   2.624 -0.0618 -0.2125  0.1742
14026W        W29495   1.103  10.818  13.385 -0.1243  0.1553 -0.0483
14027W        W29496   1.496   9.185  13.677 -0.2530  0.0104  0.1207
14028W        W29497   3.326   0.194  13.893 -0.1558  0.0120  0.1720
14029W        W29498  12.708   0.631   2.808  0.0310  0.3099  0.1284
14030W        W29499   7.673   2.175   5.461 -0.2017 -0.0703 -0.1232
14031W        W29500  15.815  15.120   3.471 -0.1700  0.0274 -0.2743
14032W        W29501  12.620  12.494  11.353  0.0579  0.3379  0.0527
14033W        W29502  15.736   7.845   2.297 -0.2497 -0.1011  0.0240
14034W        W29503  12.038   7.663   1.993 -0.0292  0.1678 -0.3645
14035W        W29504   4.661   4.907   1.221  0.3436 -0.1290 -0.1217
14036W        W29505   4.552   8.225  14.343 -0.0351 -0.4639 -0.1193
14037W        W29506  12.521   6.225   1.570 -0.1578 -0.1142 -0.2376
14038W        W29507   8.416  14.029  14.244  0.3259  0.0709 -0.2470
14039W        W29508   3.742   5.941  14.869 -0.3362 -0.1561 -0.0276
14040W        W29509  14.910   2.063  11.104  0.0024  0.0492  0.0642
14041W        W29510   8.366  15.711   5.812 -0.2790  0.0608 -0.0019
14042W        W29511   3.747   9.859  11.263 -0.0423 -0.2918  0.0396
14043W        W29512   6.071   6.617  12.279 -0.0177  0.0120  0.1946
14044W        W29513   3.162  15.238  11.020  0.1541 -0.1148  0.1134
14045W        W29514   6.825   5.214   3.895  0.2926 -0.0434  0.0335
14046W        W29515   9.647   6.355  13.443  0.1734 -0.1767  0.0404
14047W        W29516   7.511  17.079   0.625  0.1223  0.1436  0.2299
14048W        W29517   9.655   4.908   2.542 -0.0337  0.3588  0.2715
14049W        W29518   6.308   3.804  13.658 -0.1384 -0.1302  0.2984
14050W        W29519  17.768   2.289  10.704  0.0961 -0.1231 -0.1169
14051W        W29520  14.635   3.606  15.520  0.2041  0.0490 -0.0425
14052W        W29521  16.315   5.099  13.487  0.1110 -0.0802 -0.1661
14053W        W29522  11.848  11.961  13.579  0.4278  0.0017 -0.0229
14054W        W29523  16.638   3.044  13.101 -0.0918  0.0421  0.0973
14055W        W29524  12.967  17.692   2.355  0.1714 -0.3134  0.1847
14056W        W29525   2.774   1.961  13.273  0.1067  0.0579  0.2134
14057W        W29526   5.270  14.224   2.547 -0.0461  0.1674  0.1495
14058W        W29527  12.182   4.129   3.084  0.0968  0.1117 -0.0068
14059W        W29528  16.677   6.614   3.672  0.1644  0.0274 -0.3272
14060W        W29529   2.824  12.778  12.173  0.1052  0.2704  0.1085
14061W        W29530  10.828   5.869   3.327 -0.0036 -0.1176 -0.3239
14062W        W29531  15.748   4.339   0.061 -0.1358 -0.2187  0.0614
14063W        W29532  16.104  11.960  13.889 -0.0169 -0.1683  0.0757
14064W        W29533   7.009  13.165  14.055 -0.1816  0.0877 -0.1054
14065W        W29534  11.190  15.508  15.619  0.0962 -0.1447  0.0998
14066W        W29535   1.062  16.691   3.250  0.0726  0.1565  0.1598
14067W        W29536   9.565  12.325   3.471  0.1322 -0.1938  0.0271
14068W        W29537   3.306   5.661   0.804 -0.1237 -0.1146 -0.0497
14069W        W29538  16.016  11.231  13.878 -0.2266  0.0057  0.3671
14070W        W29539   8.679  15.145  14.196 -0.0808  0.1744 -0.0092
14071W        W29540   8.469  12.282  14.276 -0.0556 -0.1869 -0.1269
14072W        W29541   5.407   9.013  14.779  0.0019 -0.0704  0.1065
14073W        W29542   7.807  13.936   4.708  0.1980 -0.4556  0.2652
14074W        W29543  17.700   1.227   3.120 -0.1839  0.1844 -0.0712
14075W        W29544  12.420  13.627   5.524  0.2867  0.0075  0.3260
14076W        W29545  14.392   9.254  12.031  0.0360 -0.0169  0.3229
14077W        W29546  15.550   8.843   1.287 -0.0994 -0.0880 -0.4119
14078W        W29547   8.635  11.246   4.635  0.2460  0.0864 -0.2121
14079W        W29548   5.085  16.054   4.792 -0.0270  0.0580 -0.1297
14080W        W29549  15.694   5.156  12.169  0.0456 -0.1020 -0.0013
14081W        W29550   8.933   8.514  14.879  0.2448 -0.0059  0.1840
14082W        W29551  15.343   1.877   4.053 -0.2173  0.1458  0.2266
14083W        W29552   0.305   7.313   1.576  0.0762  0.1429 -0.1134
14084W        W29553   9.345  16.458   0.887 -0.1152 -0.0241 -0.0176
14085W        W29554   5.194  14.458  11.876 -0.0905  0.0525  0.0650
14086W        W29555   9.638  13.314  13.324  0.1437  0.0259  0.0587
14087W        W29556  14.501   6.774   2.036  0.1583  0.0917  0.2313
14088W        W29557  14.605   8.550  14.565 -0.3774 -0.0586 -0.0037
14089W        W29558   4.895   3.447  11.370  0.0709  0.0177 -0.2912
14090W        W29559   5.832  13.039  12.695  0.1548  0.1436 -0.1373
14091W        W29560   9.491  18.012  14.715 -0.0784  0.1185 -0.3211
14092W        W29561   9.492   0.861  14.564  0.3237 -0.2917 -0.0300
14093W        W29562   1.991   4.418  11.796  0.1732  0.0517 -0.3490
14094W        W29563   1.495   6.871  15.348  0.0647 -0.0826 -0.1725
14095W        W29564  10.807  13.474   4.689  0.0315  0.0378 -0.0159
14096W        W29565  12.519  17.357   0.811 -0.2763 -0.4278 -0.3394
14097W        W29566  17.882   7.639   5.206 -0.0927  0.0125  0.1423
14098W        W29567   7.070   7.664  15.633 -0.1194  0.3792  0.0015
14099W        W29568   8.183  16.142   0.181 -0.0266  0.2321  0.1618
14100W        W29569  11.800   5.137  11.985  0.0491  0.0080  0.0420
14101W        W29570   9.078   3.306  12.407  0.0032 -0.0146 -0.0020
14102W        W29571  13.335   1.002  11.678  0.0228  0.0226 -0.2079
14103W        W29572  14.332   4.351   2.232  0.1009  0.1155 -0.0950
14104W        W29573   9.664   9.099   0.130 -0.0594 -0.0400 -0.1302
14105W        W29574   9.112  10.516   0.659  0.2127 -0.3746  0.0500
14106W        W29575   3.374   6.872  13.714  0.1874 -0.3268 -0.0469
14107W        W29576   4.151  17.470   0.740  0.1164 -0.0552 -0.1002
14108W        W29577   1.558   4.714  10.976  0.1777  0.0794  0.0462
14109W        W29578   8.013  17.527   1.367  0.0744 -0.2003 -0.0215
14110W        W29579  17.354   7.728   0.760 -0.2204 -0.2224 -0.1721
14111W        W29580  11.171   2.641   4.477 -0.1718  0.1504  0.0341
14112W        W29581   1.609   3.851   3.749  0.0637 -0.1830 -0.2403
14113W        W29582   6.518   2.897  16.090 -0.0159 -0.1706  0.0039
14114W        W29583   3.488  17.061   2.999 -0.1154  0.0190 -0.1887
14115W        W29584   8.086   4.091  13.687 -0.0937  0.1303  0.0504
14116W        W29585   8.135  11.396  12.256  0.2980 -0.1769  0.2341
14117W        W29586   6.408   5.613   1.974 -0.2387  0.3137  0.2286
14118W        W29587   9.993  13.833   5.023 -0.0914  0.0809  0.0143
14119W        W29588  11.900   3.862  11.733  0.2901 -0.1066 -0.2201
14120W        W29589  10.706   3.825  13.532 -0.0313  0.0619  0.0593
14121W        W29590   3.610   9.777   1.823  0.1154  0.1475  0.1493
14122W        W29591  10.036   0.344  13.964  0.1281 -0.1009 -0.3998
14123W        W29592  12.616  10.023   0.262  0.4368 -0.1851  0.2009
14124W        W29593  17.269   8.103  13.938  0.3051  0.5442 -0.1789
14125W        W29594  10.882  18.026  15.101 -0.0311  0.0999 -0.1172
14126W        W29595  12.674   4.471  14.646 -0.2524  0.1778 -0.4030
14127W        W29596  11.646   8.079  14.164 -0.1114  0.2829 -0.0618
14128W        W29597   3.109  11.477   1.715  0.0126 -0.0981  0.0092
14129W        W29598  16.662  17.171  15.303 -0.1080  0.2337  0.1384
14130W        W29599   0.785   1.815   1.482  0.3048  0.0849 -0.0488
14131W        W29600   6.136   1.080   5.568 -0.0885 -0.0068 -0.1296
14132W        W29601  14.298   9.919   0.056  0.5795  0.0109 -0.1519
14133W        W29602   1.678  12.231  12.767  0.1122  0.0465 -0.1124
14134W        W29603   4.107  16.076   1.075 -0.0171  0.2766 -0.3602
14135W        W29604  16.300  16.212  11.281  0.0187  0.2431 -0.1551
14136W        W29605   3.595   7.855  14.746  0.1118  0.0561 -0.2032
14137W        W29606  10.002   1.230   1.292  0.1198 -0.0566  0.0041
14138W        W29607   3.088  12.158   1.916  0.0855 -0.2014  0.1929
14139W        W29608   3.334  13.557   0.427 -0.0655  0.2596  0.1677
14140W        W29609   4.218   0.200  13.556  0.1025  0.1502  0.1336
14141W        W29610   4.993   3.510   5.645 -0.2635 -0.0118 -0.1891
14142W        W29611  11.793   3.593   1.762 -0.0949  0.1711  0.0980
14143W        W29612   4.269   5.322   5.916  0.1083 -0.2125  0.0007
14144W        W29613   6.026  11.368  12.786  0.1174  0.0695  0.0461
14145W        W29614   4.392   7.640  12.974 -0.2236  0.0820 -0.1352
14146W        W29615  16.418  10.115   4.524  0.2657  0.0488  0.0904
14147W        W29616  10.983   7.562   4.055 -0.1867  0.0632 -0.1055
14148W        W29617  16.577  17.733   3.188 -0.1836 -0.2523  0.1098
14149W        W29618   7.830  10.849  11.445 -0.1713 -0.0954 -0.5130
14150W        W29619  12.986   3.332   4.986  0.0126  0.0892 -0.3821
14151W        W29620  12.044  13.610  11.201  0.0717  0.0455 -0.0225
14152W        W29621   1.013  16.319  14.910 -0.0377  0.0153 -0.0162
14153W        W29622   7.857   9.398   4.514 -0.1104  0.4018  0.0894
14154W        W29623  17.865   5.792  12.267  0.0636 -0.1919  0.2247
14155W        W29624  11.804  11.126   4.456  0.2180 -0.0379 -0.2077
14156W        W29625  18.042   0.925  11.209  0.2724  0.1863 -0.0872
14157W        W29626   7.640  15.736   4.154 -0.0553 -0.2065 -0.1144
14158W        W29627   7.770  10.177   0.569  0.1444  0.1234  0.1223
14159W        W29628   5.146  12.364  13.198 -0.0122  0.0339  0.2722
14160W        W29629   1.075   1.419   1.646 -0.0236  0.2137 -0.1727
14161W        W29630   5.284   7.139  13.821  0.5654  0.3003 -0.1258
14162W        W29631   9.294   2.848   1.932  0.0407  0.2390 -0.0079
14163W        W29632  10.602  17.420  13.655 -0.1225 -0.2517 -0.3804
14164W        W29633   7.628   0.882   5.129 -0.6384  0.0245  0.2393
14165W        W29634  13.001   5.045  13.793 -0.0755 -0.3792 -0.1548
14166W        W29635   7.481   4.327  12.394  0.2147 -0.0433  0.0875
14167W        W29636   4.332  15.270  11.733 -0.1807  0.0870 -0.2171
14168W        W29637   8.860   7.508   2.247  0.0297 -0.0999 -0.2216
14169W        W29638  10.128   7.791   1.177  0.2902  0.0221 -0.2723
14170W        W29639  14.992   6.454   2.814 -0.2057  0.2406  0.1000
14171W        W29640  13.034  14.175  14.822 -0.0061 -0.0849 -0.2098
14172W        W29641   3.757  11.273  13.168  0.2436  0.1356  0.1459
14173W        W29642  17.082  15.602   0.223  0.0145 -0.1648  0.0425
14174W        W29643   1.095   9.781  15.536  0.1568 -0.0206  0.1805
14175W        W29644  10.102  10.830  13.129 -0.0715  0.0515  0.0420
14176W        W29645   3.233   5.583  11.629  0.1731 -0.0866  0.3886
14177W        W29646  12.852  16.741   1.581  0.0049  0.4633  0.1351
14178W        W29647  16.780   8.073   2.477 -0.1330 -0.4985  0.2781
14179W        W29648  16.059   6.901  11.159 -0.1923 -0.0013 -0.1389
14180W        W29649   2.989  10.183  14.411 -0.0715  0.0043 -0.3493
14181W        W29650  14.045  12.390   2.782  0.0333 -0.0778 -0.2568
14182W        W29651   3.752   4.900  13.383 -0.6121  0.3891  0.1532
14183W        W29652   5.231   7.872  12.990  0.0235  0.0372 -0.0408
14184W        W29653  15.833  18.096  11.787 -0.2432  0.0097 -0.0952
14185W        W29654  17.525   5.981  13.555 -0.1172  0.1574 -0.0210
14186W        W29655   9.224   2.567  14.025 -0.2611 -0.0861  0.2139
14187W        W29656   9.839   5.411  11.485  0.1214 -0.2726 -0.0200
14188W        W29657   7.345  10.738  13.896 -0.0928  0.3672 -0.1134
14189W        W29658   3.202  17.373   4.209 -0.0088 -0.3193  0.1216
14190W        W29659   0.020   9.081  11.008 -0.1344 -0.2030 -0.0923
14191W        W29660   9.472   1.247   3.456 -0.0357  0.1665  0.2961
14192W        W29661   3.973  11.475  12.753 -0.2339 -0.0758 -0.1398
14193W        W29662   4.008   7.877  10.016  0.1367 -0.2723  0.2854
14194W        W29663   4.502  11.940   5.282 -0.0534  0.1472 -0.1389
14195W        W29664   7.847   9.506   1.537  0.0152  0.1040 -0.3073
14196W        W29665  12.462  12.628  15.603 -0.0677 -0.0240  0.0014
14197W        W29666   8.339   5.417   1.705 -0.1041  0.0959  0.0085
14198W        W29667  13.648  12.833   6.201 -0.1529 -0.1666  0.2987
14199W        W29668   0.907   3.556  10.726 -0.1778  0.0301  0.0410
14200W        W29669   2.373   8.746  12.957  0.1986 -0.2093 -0.1210
14201W        W29670  10.413   2.210   5.175 -0.1098 -0.0787 -0.1294
14202W        W29671   9.888   8.480   4.504 -0.1132 -0.1868  0.3096
14203W        W29672   8.642   8.846  11.438  0.2640 -0.2285 -0.0991
14204W        W29673   9.804  11.198   2.508  0.0287  0.0755  0.3169
14205W        W29674   5.068   1.157   3.474  0.2067 -0.3239  0.0230
14206W        W29675   3.812  12.991   0.935  0.3050  0.4325  0.0806
14207W        W29676   6.764  16.934   3.378 -0.2151  0.1964  0.2623
14208W        W29677   5.048  16.600   9.990 -0.1762 -0.4031  0.2131
14209W        W29678  17.281  15.138  12.625 -0.0774 -0.0855 -0.0725
14210W        W29679  18.080  13.393   0.992 -0.4499 -0.0582  0.1481
14211W        W29680  12.707   2.676   5.348 -0.1130  0.0384  0.1053
14212W        W29681  15.220  11.986  15.873  0.0148 -0.0018  0.1582
14213W        W29682  14.427   2.322  12.982  0.1962  0.0600 -0.1334
14214W        W29683  12.971   3.599   5.817 -0.1131 -0.3043 -0.1391
14215W        W29684  17.365  15.747  10.654  0.1374 -0.0460 -0.0236
14216W        W29685   6.641  13.124   2.460 -0.1733  0.2789 -0.0772
14217W        W29686   6.505  15.949   2.925 -0.1141 -0.2134  0.0720
14218W        W29687  16.359  12.479  14.401  0.2042  0.1513 -0.0525
14219W        W29688  14.261  12.463   4.349  0.0002  0.4390  0.0682
14220W        W29689   6.920   2.944   1.663 -0.0806 -0.3271  0.3000
14221W        W29690   0.212   1.523   3.031 -0.0886 -0.0589  0.1608
14222W        W29691   3.388   9.459   2.206  0.0148 -0.0394  0.2075
14223W        W29692   8.847   6.329  13.887 -0.0102  0.1105 -0.0168
14224W        W29693  14.710   2.901   5.777 -0.0718 -0.0152  0.3301
14225W        W29694   9.479   0.738   5.126 -0.2552 -0.0372 -0.1159
14226W        W29695  12.143  17.042   0.582 -0.6414 -0.3118 -0.0516
14227W        W29696  11.048   0.990   3.930  0.0744 -0.0170 -0.1039
14228W        W29697  16.886   2.370  13.891  0.2133  0.0250 -0.1919
14229W        W29698  12.322  15.756   0.444 -0.1169  0.1912  0.2091
14230W        W29699   0.299  17.574   2.343 -0.0595  0.1914 -0.0006
14231W        W29700  17.986  14.585   0.214  0.4317 -0.1947 -0.1308
14232W        W29701   0.900   6.826  12.927 -0.0044  0.2581  0.1783
14233W        W29702   2.398   7.173  13.496 -0.3125  0.2591 -0.2356
14234W        W29703   0.555   4.204  11.704  0.1506 -0.2770 -0.0588
14235W        W29704   7.426   0.095   1.807  0.0246 -0.0391  0.0449
14236W        W29705  10.097  17.092  14.232 -0.2247  0.1057 -0.1040
14237W        W29706   9.972   4.023   4.356 -0.0318  0.0259  0.0961
14238W        W29707   2.755   5.338   0.078 -0.1072 -0.2105 -0.3291
14239W        W29708  14.605  10.859  13.606 -0.2429  0.2437  0.0293
14240W        W29709   0.047   5.232  14.375 -0.1600  0.3154 -0.2307
14241W        W29710   4.486  15.726  11.629 -0.1164  0.0512  0.1508
14242W        W29711   1.854   8.553  14.654 -0.0519  0.1309  0.4105
14243W        W29712   0.664   9.117   3.001 -0.0560 -0.1508 -0.1607
14244W        W29713  17.939  15.935  11.722 -0.0816  0.1833  0.1272
14245W        W29714  10.907   0.317   2.105  0.2225  0.3710 -0.1620
14246W        W29715   5.761  12.441   1.686  0.1618 -0.0082 -0.1428
14247W        W29716  15.231  16.200   4.278 -0.1377 -0.0015  0.1030
14248W        W29717  15.853   9.884   3.257  0.2824 -0.0461  0.2575
14249W        W29718  16.034  16.789   3.351 -0.2051  0.1294  0.3015
14250W        W29719   8.714  12.483   4.463 -0.0138 -0.0007 -0.2039
14251W        W29720  10.683  11.369   3.929 -0.1701  0.0218  0.4905
14252W        W29721   6.683   9.799   4.545 -0.2269 -0.2534 -0.0730
14253W        W29722  12.417   7.956   3.751  0.2832 -0.0476 -0.1156
14254W        W29723  14.487  14.307   3.506 -0.2018 -0.1339  0.1192
14255W        W29724  14.071  14.233  14.441  0.1727  0.1359  0.0658
14256W        W29725  11.860   2.497   5.467 -0.0861 -0.1998  0.1389
14257W        W29726   3.640   1.030   2.354 -0.0414 -0.0475  0.2941
14258W        W29727   1.849   8.308   4.229 -0.1748 -0.1763  0.4693
14259W        W29728  14.223  17.979   4.292  0.0619  0.0689  0.1407
14260W        W29729  16.300  14.962  13.620  0.2954 -0.1531 -0.0963
14261W        W29730  10.003  11.042   5.519 -0.3395 -0.2166 -0.3928
14262W        W29731   2.065  17.717   1.875  0.0220  0.0027  0.0317
14263W        W29732   9.348  14.211   2.655 -0.2037  0.4719 -0.1555
14264W        W29733   4.556  17.346  13.932  0.2403 -0.0835  0.1412
14265W        W29734  10.451   1.368   1.417 -0.0066 -0.1716  0.0824
14266W        W29735  12.119  17.133  11.382 -0.1186 -0.1122 -0.3386
14267W        W29736   1.864  15.540  14.730  0.3345  0.2014  0.1521
14268W        W29737  11.963  11.523   4.723  0.0875 -0.1845 -0.0587
14269W        W29738   4.353   8.270   0.814 -0.1698  0.0998 -0.0944
14270W        W29739   5.802   4.464  14.588  0.4050 -0.0221 -0.0709
14271W        W29740   4.864   9.696   4.751  0.1712 -0.1631  0.2135
14272W        W29741   8.223   2.004  11.220 -0.0974  0.1272 -0.0138
14273W        W29742   7.568  13.812   1.556  0.3540 -0.2239 -0.2899
14274W        W29743   1.459   4.924  12.090 -0.0278 -0.1325  0.3161
14275W        W29744   1.116  14.318   4.787 -0.0867 -0.1538 -0.2248
14276W        W29745  12.370   1.219  13.444  0.0576 -0.1566 -0.0467
14277W        W29746  13.583   2.449  11.281 -0.0138 -0.1023  0.5499
14278W        W29747   4.817  15.345  11.623 -0.2610 -0.2111  0.1397
14279W        W29748   6.590  15.077   0.316 -0.1639 -0.5397  0.1216
14280W        W29749  16.239  17.632  12.492  0.2233  0.1938  0.2363
14281W        W29750   0.356   6.065  14.807  0.0673 -0.2115  0.2109
14282W        W29751   5.812  15.242   3.288 -0.0439  0.0307  0.1716
14283W        W29752   2.161  14.873   5.080  0.0076 -0.0758 -0.0436
14284W        W29753   9.793  10.908  11.825  0.1226 -0.2517 -0.1819
14285W        W29754   2.982   5.799  15.380 -0.0123  0.0600  0.0210
14286W        W29755  17.586  14.660   5.135 -0.1027  0.2333 -0.1428
14287W        W29756   7.796  14.153  15.624 -0.2701 -0.0314  0.1578
14288W        W29757   6.124   6.645   5.406  0.1553  0.1335 -0.0809
14289W        W29758   4.649  16.455  12.242  0.1409  0.1826 -0.0444
14290W        W29759  16.782   8.012   3.602  0.0940  0.3231  0.0989
14291W        W29760   1.179   7.499   2.723 -0.1321  0.0629  0.0702
14292W        W29761   0.721  16.931  12.076  0.0594  0.1530 -0.0170
14293W        W29762   4.080   1.080   2.048 -0.0103 -0.0810  0.1362
14294W        W29763   5.013  12.309  16.020 -0.1255 -0.1182  0.0949
14295W        W29764   9.394   4.136   3.188 -0.0407  0.1528  0.2667
14296W        W29765   8.191   1.558  12.032  0.0065  0.2571  0.1253
14297W        W29766   7.688   3.609   0.467 -0.1195  0.5148 -0.0702
14298W        W29767  12.382   7.753   2.466 -0.0454 -0.0583  0.0116
14299W        W29768   8.239  11.776  10.205 -0.0242 -0.0588 -0.1327
14300W        W29769   9.548  17.364   0.554  0.1012 -0.1351 -0.2118
14301W        W29770   1.819   0.847   0.933  0.0903 -0.0309  0.1691
14302W        W29771   7.244   1.350   1.433 -0.2718 -0.1700 -0.0833
14303W        W29772  11.789   1.030  16.105 -0.2863  0.2092  0.1348
14304W        W29773   8.748  15.507  11.512  0.0611  0.1923 -0.1634
14305W        W29774  14.448   7.448   4.015 -0.1815 -0.1122 -0.2530
14306W        W29775   2.633  12.539  11.140  0.0322 -0.0700  0.2275
14307W        W29776   3.879   2.794  11.310  0.0293 -0.1585  0.2425
14308W        W29777  16.687  17.839   5.736 -0.1983  0.0531  0.0227
14309W        W29778   5.067   8.834   0.021  0.0203  0.4302  0.1295
14310W        W29779   9.740  17.074  15.229 -0.1771  0.2833  0.0836
14311W        W29780  12.698  15.860  14.221 -0.0448  0.0242 -0.4046
14312W        W29781  16.389  13.893   5.365 -0.2332 -0.1072 -0.2417
14313W        W29782   1.339   7.763   1.055 -0.0126  0.0047  0.0906
14314W        W29783   4.282  14.502   0.095 -0.3758  0.4397 -0.3502
14315W        W29784  15.704   7.566  13.259  0.3199  0.0635 -0.0563
14316W        W29785   9.142   5.475  14.946  0.1223 -0.3934 -0.0655
14317W        W29786   0.190   3.444  10.166 -0.1954  0.0642 -0.1453
14318W        W29787  11.474  15.784  13.218 -0.0118 -0.0841  0.0552
14319W        W29788  10.559  17.970   5.144  0.1079 -0.0983 -0.0103
14320W        W29789  17.087  12.457   2.436 -0.0709 -0.1905  0.0047
14321W        W29790   0.699  12.448   1.348 -0.0416 -0.0005 -0.2557
14322W        W29791  11.759  12.795   0.475 -0.3341  0.0316 -0.1787
14323W        W29792   3.101  11.931   5.112  0.1016  0.1978 -0.0230
14324W        W29793   7.282   0.460   2.585 -0.3377 -0.2130 -0.1109
14325W        W29794   2.546   9.314   6.085  0.0783 -0.0992 -0.0410
14326W        W29795  17.852   7.197   4.926 -0.1065 -0.3587  0.0634
14327W        W29796   0.348  14.579   2.069  0.1145 -0.0389  0.1006
14328W        W29797  14.882  17.119  15.457 -0.2208 -0.2912 -0.0848
14329W        W29798  13.033   4.268   0.076 -0.0802  0.2402  0.2985
14330W        W29799   0.212  17.041   3.282 -0.0139  0.1837  0.1822
14331W        W29800  16.925   1.974   1.705 -0.0401  0.2611  0.0519
14332W        W29801  11.767   3.962  13.963  0.2843 -0.0353  0.0394
14333W        W29802  17.591  12.636  14.832 -0.0911 -0.1224  0.2161
14334W        W29803   8.726  17.177  14.984 -0.3572  0.2534 -0.3430
14335W        W29804   4.773  12.795  15.966 -0.0861  0.1262 -0.0168
14336W        W29805   1.305  16.464   0.099 -0.0552  0.0657  0.0445
14337W        W29806  12.155   2.835   2.178 -0.0253  0.1158 -0.1149
14338W        W29807   7.168  16.198  14.505  0.3095 -0.1496  0.0043
14339W        W29808   2.938   1.211  11.741 -0.2546  0.2117 -0.1561
14340W        W29809   8.904  12.937   4.283 -0.1197 -0.0593  0.1689
14341W        W29810   8.236   3.254   4.071 -0.1192  0.0405 -0.0759
14342W        W29811   5.344  13.645   2.493 -0.0897 -0.0713 -0.2215
14343W        W29812  15.941   8.867   3.759 -0.0214 -0.0175 -0.1257
14344W        W29813  17.122  11.359  14.663  0.3031 -0.3940  0.2162
14345W        W29814   2.745   2.554  15.944  0.0789  0.0274 -0.2774
14346W        W29815   0.686  15.470   3.962  0.0051 -0.0564  0.4261
14347W        W29816   5.142   2.262  13.821 -0.2236 -0.2202  0.0989
14348W        W29817   2.365   1.473   2.174 -0.0233 -0.1482  0.2493
14349W        W29818  16.996   5.409  16.177  0.1155  0.1040 -0.1517
14350W        W29819  13.006   4.295  15.515 -0.2797  0.1916  0.1463
14351W        W29820   5.476  14.321  15.611  0.0127  0.0714 -0.1381
14352W        W29821  13.198  15.362   1.108  0.3702  0.2118 -0.1264
14353W        W29822  13.720   0.215  14.477 -0.1349 -0.1842  0.1530
14354W        W29823   8.244   9.875   3.793 -0.4409 -0.1959  0.2519
14355W        W29824   3.917   4.566  12.424  0.0814  0.2385 -0.0553
14356W        W29825   9.942   6.697   4.304  0.2309 -0.1242 -0.1233
14357W        W29826   5.286   0.205   2.422  0.0546 -0.0899 -0.0554
14358W        W29827  10.037   5.582  12.576 -0.0167 -0.2602 -0.0358
14359W        W29828   3.594  12.115  10.975 -0.3367  0.1168 -0.0999
14360W        W29829   6.363  14.290   2.170  0.3460  0.0831 -0.0533
14361W        W29830   0.164  15.171  15.228  0.1915  0.2033  0.0803
14362W        W29831  15.433   0.609   5.635 -0.2911  0.0205  0.0438
14363W        W29832   1.783   9.602   1.321 -0.1350  0.1172  0.0868
14364W        W29833   4.249   0.016   5.726  0.1311 -0.1738 -0.0024
14365W        W29834  10.648  17.657  15.316  0.0232  0.0103 -0.0379
14366W        W29835  17.295   1.701  15.964  0.1162 -0.0101 -0.1232
14367W        W29836  16.128  12.988   1.890  0.2940 -0.2299 -0.1009
14368W        W29837  13.955  14.614   5.389  0.0911  0.0406  0.1525
14369W        W29838   6.036   9.474   2.865  0.0672 -0.1833 -0.1948
14370W        W29839   5.363   5.518  12.579  0.1461 -0.1429 -0.0311
14371W        W29840   2.416   4.429   2.795 -0.2645 -0.0289 -0.0178
14372W        W29841   6.496  16.973  13.714  0.0082 -0.1374  0.4596
14373W        W29842  12.285   4.535   3.994  0.0081  0.1967  0.2927
14374W        W29843   7.480  13.670   3.907  0.1887 -0.0509  0.1114
14375W        W29844   9.782   2.409  14.025 -0.2181  0.2774 -0.1128
14376W        W29845  15.102   2.313   2.329 -0.2793  0.1370 -0.2204
14377W        W29846   4.475  13.788  15.714  0.0792 -0.0774 -0.1408
14378W        W29847   0.486   8.524  15.645  0.0767  0.2147 -0.1330
14379W        W29848   9.198  16.223   4.407 -0.0058 -0.1234 -0.1016
14380W        W29849   7.155   2.723   3.675 -0.0659 -0.0050 -0.2750
14381W        W29850   7.304  11.783   2.290 -0.2470  0.0286 -0.1786
14382W        W29851  14.546  17.168  15.061 -0.2209  0.0579 -0.2001
14383W        W29852   0.989   9.758   1.033  0.1156  0.0409 -0.1489
14384W        W29853  10.326  15.938   4.307  0.3427  0.0748  0.1062
14385W        W29854   8.028  17.150  12.701  0.1664 -0.0111 -0.0920
14386W        W29855  17.039   4.666   4.637  0.0997 -0.1419 -0.0545
14387W        W29856   3.220  15.521   5.405  0.2525  0.0315  0.3179
14388W        W29857  13.641   4.486  13.619 -0.1826 -0.1352  0.4271
14389W        W29858   2.925  15.383   3.209 -0.2215  0.1427  0.0248
14390W        W29859  16.459  15.994  14.744  0.2947  0.0677  0.1148
14391W        W29860   3.638  15.273   1.128  0.0452 -0.3293 -0.0054
14392W        W29861  16.487   2.876  16.193 -0.3012 -0.0178  0.4977
14393W        W29862  16.196   7.610   1.173  0.1559 -0.3084 -0.1588
14394W        W29863  11.715   6.147  10.753  0.1748 -0.0480  0.0988
14395W        W29864   5.789   1.881   6.250 -0.1411  0.1263  0.0506
14396W        W29865  13.123  17.636   1.737  0.1753 -0.0575 -0.3024
14397W        W29866   8.264   6.813   0.753  0.0612 -0.2909  0.0171
14398W        W29867   9.576  16.952   5.242 -0.0715  0.1307  0.0792
14399W        W29868   5.193   5.865  13.834  0.0100 -0.1189 -0.1681
14400W        W29869  11.205  16.894   2.976  0.1100  0.3738  0.2727
14401W        W29870   8.383   8.235   4.076  0.1269 -0.4598 -0.1542
14402W        W29871   9.114   1.731  14.726 -0.3820  0.1737  0.3145
14403W        W29872  14.616   1.165   3.598 -0.1680 -0.0878 -0.0799
14404W        W29873   6.006   7.016  14.375  0.1359 -0.1311 -0.2610
14405W        W29874   6.526   2.935   6.084  0.1693 -0.2233 -0.0280
14406W        W29875  11.092   5.730  11.781  0.1254  0.1423 -0.0862
14407W        W29876   5.345   1.236   5.120 -0.0139  0.1154  0.0273
14408W        W29877   3.254  10.090   4.367 -0.0792 -0.1763  0.0621
14409W        W29878  12.679  10.427   4.298 -0.1793 -0.2016 -0.1613
14410W        W29879  17.867  11.270   5.880  0.1595 -0.1349 -0.1778
14411W        W29880   0.012   3.481   4.644 -0.0559  0.2348  0.1571
14412W        W29881   5.063   8.695   5.915 -0.0184 -0.2483 -0.0707
14413W        W29882  13.259   1.385   3.927  0.1968 -0.3471  0.1326
14414W        W29883   2.647  15.748  13.258 -0.1006 -0.0541  0.0588
14415W        W29884  16.709   2.132  11.145 -0.0817 -0.2067 -0.0470
14416W        W29885   5.840  13.938   1.042 -0.0162  0.0688  0.3042
14417W        W29886  10.181   2.224  11.133  0.2240 -0.2889 -0.1524
14418W        W29887   1.780  14.909  13.729 -0.0117 -0.2130  0.0047
14419W        W29888  11.654   8.573  13.975  0.1658  0.1028  0.1428
14420W        W29889   0.866   5.811  12.853 -0.1307 -0.0146  0.2683
14421W        W29890  12.350  12.045   0.045 -0.0360 -0.4246  0.3337
14422W        W29891  13.143   7.078   0.887 -0.0580  0.1337  0.1596
14423W        W29892   4.134  10.427  12.545 -0.4707 -0.0915 -0.1050
14424W        W29893   0.977   7.564   4.750 -0.1921  0.0871  0.1161
14425W        W29894   2.641  15.833   3.038  0.0033  0.1499 -0.1470
14426W        W29895   7.532   3.854  11.732 -0.1361  0.1572  0.1382
14427W        W29896   3.000   8.987  13.430 -0.0390  0.1307 -0.0220
14428W        W29897  10.196  14.382   0.380  0.0353  0.0215  0.0250
14429W        W29898  17.591   3.308   6.063  0.0273 -0.4372 -0.1341
14430W        W29899   3.920   1.459   2.357 -0.0510 -0.3457 -0.0890
14431W        W29900   4.904  17.955   1.288 -0.1948  0.1589  0.4278
14432W        W29901  15.869   8.693   0.316 -0.0433 -0.3098 -0.3229
14433W        W29902  11.516  16.758   2.171  0.1814 -0.1971  0.1754
14434W        W29903   0.790  18.052   5.781  0.3358  0.1564  0.4285
14435W        W29904   5.752  14.574  10.994  0.0255  0.2379 -0.2579
14436W        W29905  17.024   1.593  11.029  0.1469 -0.0365  0.0228
14437W        W29906   1.986  14.895   5.605 -0.1249  0.2182  0.1423
14438W        W29907   0.157  17.460  10.998  0.1230 -0.0183  0.3477
14439W        W29908   9.336   7.920  12.822 -0.0362  0.0297 -0.0902
14440W        W29909  18.006   3.421  14.563 -0.0613  0.0287 -0.0508
14441W        W29910   9.978  13.271  15.318  0.2650  0.1932 -0.0574
14442W        W29911   5.098   0.926   2.159  0.1900  0.3278  0.0382
14443W        W29912   5.583  14.639   4.507 -0.2213  0.2169 -0.2013
14444W        W29913  12.565   5.188  12.428 -0.1150 -0.0874  0.0032
14445W        W29914   9.363  14.830   0.377  0.0553 -0.0712  0.1232
14446W        W29915  10.335   4.114   5.426  0.2700 -0.1416 -0.0731
14447W        W29916   6.371   6.594   4.980  0.0605 -0.0300 -0.0733
14448W        W29917   9.828  10.561  11.391 -0.4356 -0.1189  0.3378
14449W        W29918  15.047   3.167   1.175  0.0711 -0.0564  0.0030
14450W        W29919  16.297   0.803  14.851  0.0884 -0.1107 -0.0344
14451W        W29920  12.269  10.258   0.639 -0.0132  0.1231  0.2072
14452W        W29921  11.706   9.470  12.358  0.0205  0.1294 -0.3892
14453W        W29922   4.385   1.917  14.845  0.1426 -0.2116  0.0484
14454W        W29923  14.600   4.233   5.455 -0.0083  0.1750  0.3452
14455W        W29924   5.642  13.510   2.857  0.0232  0.0586  0.1234
14456W        W29925  12.333  13.467   1.583 -0.0804  0.0310  0.2333
14457W        W29926  12.058  10.999  13.346  0.0737  0.1337 -0.0353
14458W        W29927   0.669  11.709  11.347 -0.0344 -0.2617  0.0414
14459W        W29928   2.610   1.783   2.566  0.1209  0.1032  0.1763
14460W        W29929  11.088   1.743   6.006 -0.0450  0.1241  0.1396
14461W        W29930   2.751  11.988  14.481  0.1318  0.2543  0.2827
14462W        W29931  10.152   5.137  11.885 -0.2200  0.2528 -0.0124
14463W        W29932  14.709   6.795   4.804  0.3716 -0.1700  0.0735
14464W        W29933   9.837  10.109   2.371 -0.0787  0.0861  0.2143
14465W        W29934   2.563   5.174  12.811 -0.4261 -0.2159  0.3081
14466W        W29935   5.976   5.430   1.787  0.0020 -0.2845  0.0915
14467W        W29936   9.122  16.598  12.981  0.5112 -0.5035  0.0206
14468W        W29937  14.426  13.162  10.507 -0.0747 -0.1563 -0.2030
14469W        W29938   7.448  10.322   3.666 -0.3352 -0.0029 -0.1359
14470W        W29939   8.242  10.609  11.025  0.3677 -0.1228  0.0932
14471W        W29940   3.344   4.618  12.494  0.0013  0.2902 -0.0168
14472W        W29941   0.252  16.263  13.506 -0.0207  0.0175 -0.0888
14473W        W29942  16.304   4.245   0.350 -0.0577 -0.1386  0.0786
14474W        W29943  13.721  14.912   3.455  0.0083  0.0495  0.0569
14475W        W29944   5.911   5.211  12.455 -0.1103 -0.0103 -0.0738
14476W        W29945  11.251   9.306   2.455 -0.0468  0.0002 -0.0202
14477W        W29946   4.683  14.540  11.818  0.2602 -0.0745 -0.0356
14478W        W29947  13.398  16.623   0.215  0.1263 -0.1249  0.0561
14479W        W29948   6.866   1.628  14.358 -0.0517 -0.0524 -0.1167
14480W        W29949   3.618   0.485   1.408 -0.0166 -0.2510 -0.2027
14481W        W29950  13.412   4.617   4.637 -0.2243  0.1346  0.1180
14482W        W29951   4.231   5.066  12.579  0.1704 -0.1171  0.3698
14483W        W29952   0.740   0.526  13.493  0.2488 -0.1372 -0.0268
14484W        W29953  15.372  15.390   4.924 -0.0038 -0.0643 -0.0787
14485W        W29954  14.179  15.992  12.988 -0.0663  0.1336 -0.2302
14486W        W29955  18.083   1.923  10.959  0.2049  0.0705 -0.1845
14487W        W29956   4.437  10.107   0.704 -0.0376 -0.1355 -0.1907
14488W        W29957  16.686   5.703   4.641  0.1033 -0.0726  0.2633
14489W        W29958   3.931  15.481   2.302  0.0648 -0.0224 -0.0883
14490W        W29959   5.693   3.192   1.253 -0.1554  0.2198  0.2609
14491W        W29960  13.828   6.805   1.313  0.0412 -0.0544  0.1705
14492W        W29961  14.589   1.997  14.468  0.0345  0.0232 -0.0117
14493W        W29962  10.307   3.922  15.755 -0.2238 -0.2734  0.1554
14494W        W29963  13.101  15.322   5.420  0.0452  0.2585 -0.1266
14495W        W29964  11.754   2.018   4.341 -0.3143  0.1664  0.1001
14496W        W29965   5.948   6.423  13.753 -0.2741  0.1683  0.2206
14497W        W29966  14.546   9.634   4.964  0.2797 -0.0244 -0.0366
14498W        W29967  14.053   3.070  13.811 -0.0103 -0.1015  0.2445
14499W        W29968   2.086   6.164  15.100  0.1572 -0.1184  0.1145
14500W        W29969   6.560  13.304  14.187 -0.0173 -0.3251  0.1352
14501W        W29970   9.308  14.594  11.751  0.0507 -0.1405  0.0138
14502W        W29971   6.196  11.426   4.128 -0.1777 -0.1372 -0.0559
14503W        W29972  17.491   3.839   0.674 -0.1852 -0.0694  0.0405
14504W        W29973   9.972  14.953   1.260 -0.2530 -0.2969  0.1359
14505W        W29974  11.616   0.979  11.827 -0.1853 -0.0579 -0.3628
14506W        W29975   3.720   7.431  12.027  0.2196  0.0766  0.0753
14507W        W29976   4.566   0.538   0.253  0.1070 -0.0901 -0.1767
14508W        W29977  13.286   4.782  12.442 -0.2920 -0.3947  0.0468
14509W        W29978   6.490   3.883  11.536  0.2245  0.1919 -0.1662
14510W        W29979   9.984   2.827   0.770 -0.0120  0.1207  0.2042
14511W        W29980   4.925  16.957  13.995 -0.2059 -0.0683 -0.0668
14512W        W29981  14.526  15.375   2.257  0.0694  0.2891 -0.0823
14513W        W29982   5.309  16.796   5.178  0.1707 -0.2439  0.0666
14514W        W29983  10.959  10.678   0.046  0.1184 -0.1516  0.0354
14515W        W29984  14.636  13.536   3.205 -0.2264  0.3519 -0.1690
14516W        W29985   6.131   0.447   3.000 -0.2426 -0.2188  0.1675
14517W        W29986   6.316   6.172  12.145 -0.1134 -0.2014 -0.2230
14518W        W29987  18.074  14.642  11.707 -0.3728 -0.0080 -0.0579
14519W        W29988   3.737   0.285  15.604  0.2837 -0.0775 -0.4416
14520W        W29989  12.317  14.014   2.083 -0.1937  0.2210 -0.0459
14521W        W29990   8.757   3.526  13.554  0.1537  0.0175  0.0862
14522W        W29991   3.674  16.073  14.369  0.0000  0.0300  0.0197
14523W        W29992  17.520   3.490   1.978 -0.1986 -0.1868 -0.1128
14524W        W29993  13.547  13.784   1.823 -0.3620  0.0314 -0.3382
14525W        W29994   7.221   2.658   4.885  0.2252 -0.1098  0.0269
14526W        W29995  10.643   5.480   3.078  0.0895 -0.4707  0.2659
14527W        W29996  15.450  17.652  12.376 -0.1119 -0.1544  0.2699
14528W        W29997   1.821  12.928   1.194  0.1811 -0.3235 -0.3263
14529W        W29998   4.427  17.374   1.433  0.0929  0.2011  0.2713
14530W        W29999  10.357   7.561  15.680  0.3642  0.1060 -0.0716
14531W        W30000  13.705  13.651   5.761  0.1364 -0.2582  0.0043
14532W        W30001   9.181   0.962   0.311 -0.1781 -0.0787 -0.2073
14533W        W30002   5.833   3.819   4.303  0.0309  0.1103 -0.1445
14534W        W30003  13.684   2.913   4.217  0.2727  0.0025 -0.2980
14535W        W30004  17.974   4.252  11.336  0.1150 -0.2167 -0.1275
14536W        W30005   5.241  15.157   2.722 -0.0972 -0.0269 -0.2044
14537W        W30006  14.832   1.042   0.182  0.1666 -0.3618  0.0515
14538W        W30007  11.353   3.087  15.856 -0.0193  0.0205  0.0552
14539W        W30008   8.177   3.628   2.761  0.2695 -0.1947  0.0129
14540W        W30009  16.720   7.454  13.477 -0.1019  0.2029  0.1152
14541W        W30010   1.817  11.213  13.551 -0.0753 -0.0791  0.0720
14542W        W30011   6.664   3.098   4.290  0.1524 -0.0744 -0.1262
14543W        W30012   8.496  12.749   0.627  0.0206  0.0505 -0.1808
14544W        W30013   6.686   7.747  15.116  0.0290  0.0540 -0.0912
14545W        W30014   8.212   4.340   6.305  0.0237 -0.0821  0.1364
14546W        W30015  16.180  14.999   2.179 -0.0761 -0.4776  0.0872
14547W        W30016   3.292   6.645   1.458 -0.0319 -0.3572  0.2056
14548W        W30017   4.093   3.980   5.362  0.0766  0.2011 -0.1166
14549W        W30018  14.992   3.274  15.671 -0.0313 -0.4166  0.1754
14550W        W30019   7.132  13.023  11.216 -0.2554  0.0847 -0.2191
14551W        W30020   0.562  17.842   0.850  0.1300  0.1125  0.0610
14552W        W30021   3.174   3.363  15.596  0.0635 -0.2306  0.1323
14553W        W30022   3.541   4.558  14.118 -0.0112 -0.0146 -0.3101
14554W        W30023   9.840   5.830  11.040 -0.2072  0.0536  0.0522
14555W        W30024   3.371  16.198   0.406 -0.1758  0.2609  0.1086
14556W        W30025   4.706   5.791   4.425  0.2914  0.1225  0.1615
14557W        W30026   1.173   5.973  16.120  0.1038 -0.0173 -0.4844
14558W        W30027   2.922  11.162  15.867  0.0546 -0.1594  0.0157
14559W        W30028  12.278   7.583  12.143  0.1138 -0.3308  0.0566
14560W        W30029   0.556  12.041   3.524 -0.2481 -0.0772  0.0918
14561W        W30030   2.731   8.899   2.170 -0.0306 -0.1625  0.1650
14562W        W30031   0.521   8.013   2.971  0.0213  0.2387 -0.1356
14563W        W30032  11.173   4.030   6.510 -0.0112  0.1234  0.1117
14564W        W30033  10.769   2.566   1.024 -0.2273 -0.3214  0.2063
14565W        W30034  13.304  15.002   4.852 -0.2094 -0.3590 -0.0193
14566W        W30035  15.213   9.551   0.096  0.0661 -0.2349 -0.0435
14567W        W30036   0.283  10.199  12.713 -0.1462 -0.0388  0.5128
14568W        W30037  12.514   9.063   5.549  0.0784  0.1185  0.3550
14569W        W30038  11.082  12.732  11.437 -0.1540 -0.0843  0.1939
14570W        W30039   8.144   4.955   0.236  0.0463 -0.1490 -0.2266
14571W        W30040   4.462   8.298   2.684 -0.1528  0.1047  0.1002
14572W        W30041  16.141   1.695  14.568 -0.0648 -0.0575 -0.0638
14573W        W30042  14.478   3.549  11.727 -0.0264  0.0749 -0.3323
14574W        W30043  17.930   5.653   5.346 -0.2135 -0.1849 -0.1704
14575W        W30044   1.914  15.237  14.188  0.0027 -0.2862 -0.0736
14576W        W30045   9.584   2.911  13.006 -0.1506  0.0334  0.1294
14577W        W30046   2.577   4.312  13.058 -0.0815  0.0493 -0.3597
14578W        W30047   2.666   0.770  13.542  0.1099 -0.0750 -0.1499
14579W        W30048   6.029   2.794   1.884 -0.1236 -0.0875 -0.1096
14580W        W30049  15.302   5.282  14.723  0.0218  0.1723 -0.0886
14581W        W30050  17.536  17.966   3.049  0.0024 -0.0068 -0.1094
14582W        W30051   9.381   8.480   4.726 -0.0259  0.0120 -0.0582
14583W        W30052   1.382   8.608  10.355  0.0649 -0.1887 -0.3086
14584W        W30053   0.836  15.652  15.552  0.2455 -0.0388  0.0540
14585W        W30054   2.626  17.672  14.066  0.0292  0.1076  0.0339
14586W        W30055  10.473   3.124  13.909  0.1032 -0.0188  0.0491
14587W        W30056  15.963  12.055  12.657 -0.3692  0.0020 -0.2342
14588W        W30057  13.153  16.744   5.852  0.1103  0.2182  0.1187
14589W        W30058  16.922   8.726   1.804 -0.0451 -0.0217  0.0182
14590W        W30059   5.332  17.728  16.232  0.3148  0.0675  0.4087
14591W        W30060  18.045   1.045   0.444  0.0832  0.1552 -0.2086
14592W        W30061   3.226  14.374   2.270 -0.1101  0.0753  0.0018
14593W        W30062  10.044  16.713   5.155  0.0869 -0.0769 -0.0108
14594W        W30063  17.582   8.364  15.219 -0.2549 -0.1976  0.0494
14595W        W30064   7.201   6.329  14.941 -0.0566 -0.2425 -0.3796
14596W        W30065  13.913   0.367  11.395  0.2536  0.1101  0.2943
14597W        W30066  10.378  12.717  13.814  0.2388  0.0956 -0.1186
14598W        W30067   7.564   4.415   2.545  0.1865 -0.1657  0.0333
14599W        W30068   1.337   4.198  15.729 -0.1492 -0.2646  0.0399
14600W        W30069  11.301   2.493   0.972  0.1294 -0.3699  0.0915
14601W        W30070  14.966   2.715   2.068  0.1964 -0.0011  0.0350
14602W        W30071  11.835  12.950   2.553 -0.0881  0.2946  0.0438
14603W        W30072   0.494  10.909  13.930 -0.0759  0.0632  0.1089
14604W        W30073   1.584  10.691  15.195  0.0396  0.0887  0.0290
14605W        W30074  16.409   7.998  12.048  0.2630 -0.0698 -0.0146
14606W        W30075   9.791   9.150   2.962 -0.3524  0.0941 -0.2265
14607W        W30076  13.685  16.541  14.194  0.3112 -0.3690 -0.1701
14608W        W30077  16.329  12.142  15.641  0.0033  0.2365  0.1407
14609W        W30078   2.290  13.082  14.677 -0.0517 -0.2104 -0.3178
14610W        W30079   0.946   4.841  11.017 -0.0523  0.0785 -0.0028
14611W        W30080   2.480   1.353  11.688  0.1859  0.3453  0.0113
14612W        W30081   8.725   5.978  13.008  0.0016 -0.3392  0.1726
14613W        W30082   4.507  17.661   1.034 -0.1585 -0.1397 -0.1126
14614W        W30083   3.409  17.539   1.703 -0.3304 -0.2798  0.3540
14615W        W30084   7.203   6.221  11.836  0.0678  0.1526  0.1699
14616W        W30085   9.558  14.324  14.504  0.2354  0.2025  0.1645
14617W        W30086   4.734   0.275   4.389 -0.1520 -0.1364  0.2135
14618W        W30087   2.594  12.749   2.536  0.0192 -0.0087  0.0639
14619W        W30088  13.126  10.157  13.258 -0.1268  0.1253 -0.2540
14620W        W30089  12.251  13.638  14.831  0.5914 -0.0195  0.0840
14621W        W30090   4.142   9.163   0.334 -0.0111  0.1781 -0.0115
14622W        W30091   2.709   0.207  14.179 -0.0893  0.2630 -0.0891
14623W        W30092   3.283   5.725   3.531  0.0882  0.0537 -0.0428
14624W        W30093  12.130   2.381   0.695 -0.0839  0.1534  0.1437
14625W        W30094   5.326   5.427   5.072  0.1058  0.0652  0.1148
14626W        W30095   4.114   8.418   1.741  0.0973  0.0886 -0.4210
14627W        W30096   7.926  18.060  10.410  0.2789 -0.1265  0.1309
14628W        W30097  15.987   1.085  11.150 -0.3566 -0.0767  0.3468
14629W        W30098   5.555  16.894   3.835  0.3607  0.1257  0.0044
14630W        W30099   0.117   2.894  11.420  0.0023 -0.2995  0.2384
14631W        W30100  15.694   2.220  11.754 -0.0530  0.4859  0.0457
14632W        W30101  14.813  12.459   5.535  0.0185  0.1826  0.0717
14633W        W30102   4.751  15.416   1.317  0.1431 -0.2318 -0.0313
14634W        W30103  10.375  17.963   3.866  0.2741  0.1481 -0.5001
14635W        W30104  11.942  10.425  13.466 -0.0003  0.0797  0.0903
14636W        W30105  13.589  14.385   4.029  0.0281  0.1314  0.0063
14637W        W30106  13.188   1.485   5.007  0.2508  0.2059  0.1712
14638W        W30107  10.412   2.522   5.972  0.1367  0.0828  0.1801
14639W        W30108   9.791   1.307  16.065  0.1191 -0.2032 -0.0412
14640W        W30109   0.412  16.418  15.983  0.2513  0.1084  0.1699
14641W        W30110   6.535  15.832   1.548 -0.1425 -0.1305  0.0770
14642W        W30111  16.127  11.171  14.549  0.0781 -0.1833  0.0683
14643W        W30112   9.377  16.252  11.292  0.1993  0.0096 -0.0206
14644W        W30113  16.136   2.924  11.087 -0.2524  0.0181  0.2171
14645W        W30114  11.991   6.341  13.248  0.2283 -0.2324 -0.1121
14646W        W30115   3.756  10.462   1.195 -0.0681 -0.3215 -0.0181
14647W        W30116   7.528  13.746  11.272  0.3722  0.2347  0.3836
14648W        W30117   0.516   8.166   1.195  0.3621  0.0157 -0.0267
14649W        W30118  11.758  14.395   6.492 -0.0790  0.0283  0.2837
14650W        W30119  17.635   2.772  14.026 -0.0339 -0.0143  0.1596
14651W        W30120   4.830  10.927   2.944 -0.0934  0.0309 -0.0898
14652W        W30121   1.289  14.368   3.371  0.2899  0.2306  0.1636
14653W        W30122  12.870   5.478   2.284  0.0809 -0.0660  0.2496
14654W        W30123  17.024  16.342  11.837  0.0066 -0.1052  0.0056
14655W        W30124  15.771  14.504   4.376 -0.0649 -0.0718 -0.2973
14656W        W30125   2.567   9.252  10.885 -0.0136 -0.0596  0.0849
14657W        W30126   7.983   6.784   3.342  0.1159  0.1582  0.0120
14658W        W30127   1.314  10.496   0.727  0.0927  0.1726 -0.0863
14659W        W30128  15.076  12.368   4.811 -0.0339  0.1015  0.1715
14660W        W30129  11.965   3.146   2.554 -0.1245 -0.1303 -0.2525
14661W        W30130   0.060   5.122  14.848  0.2566  0.0510 -0.1848
14662W        W30131  12.736  13.678  13.509 -0.0334  0.0480  0.1483
14663W        W30132   2.285  14.419   4.862  0.1047 -0.2980 -0.1727
14664W        W30133  17.084   2.329   1.335  0.1933  0.1515 -0.0636
14665W        W30134   1.456   7.826  12.233  0.2177  0.0700  0.0863
14666W        W30135  11.847  11.753   6.184 -0.1480 -0.0998 -0.3370
14667W        W30136  14.379   5.385   2.322 -0.3325 -0.1678 -0.0198
14668W        W30137  15.611   6.409  12.869  0.2168  0.0426  0.3575
14669W        W30138   9.103  13.403   1.352 -0.1619  0.0376  0.0066
14670W        W30139  17.447   1.680   4.395  0.0431 -0.3484  0.1111
14671W        W30140   2.427  16.154  16.092  0.1604  0.0859  0.1710
14672W        W30141   7.225  13.868   4.952  0.0417 -0.0364  0.3313
14673W        W30142   5.594  15.280  14.328  0.1964 -0.0842  0.0568
14674W        W30143  14.702  12.957   1.449  0.2574  0.3258 -0.2594
14675W        W30144  10.793   4.627  15.441  0.0488  0.0440  0.0464
14676W        W30145   9.287   8.842  14.411 -0.1394 -0.1704  0.2255
14677W        W30146  18.024  13.004   2.580 -0.1285 -0.0411 -0.0029
14678W        W30147   3.911   3.187  13.405 -0.1616 -0.0208  0.1869
14679W        W30148   1.291   9.698  11.177  0.1097  0.1370 -0.1548
14680W        W30149   7.350  13.284  14.471  0.2433 -0.1768 -0.2185
14681W        W30150  17.577  13.484   0.984  0.0992  0.0251  0.1181
14682W        W30151  13.824   8.459   5.418  0.2395  0.1453 -0.0754
14683W        W30152  13.051  14.603  15.062  0.0566 -0.1480  0.0435
14684W        W30153   8.317   7.772  12.011  0.0166  0.1563 -0.1874
14685W        W30154  11.154   1.213   3.279  0.1926  0.2048 -0.0983
14686W        W30155   9.845  15.487  12.339  0.2484 -0.0007 -0.2274
14687W        W30156   5.663  15.286  13.128  0.0272 -0.0412 -0.1716
14688W        W30157   6.768  10.257  11.260  0.2803  0.0671 -0.2003
14689W        W30158   2.749   3.342  11.999  0.0074  0.1541 -0.1678
14690W        W30159  15.880  15.321   5.309 -0.2287  0.0978  0.0287
14691W        W30160  14.365   9.936   2.499  0.0048  0.0965  0.1238
14692W        W30161  17.275  16.195  10.838 -0.2969  0.1928 -0.0684
14693W        W30162  17.749   0.832  12.122 -0.0425  0.0206 -0.0637
14694W        W30163  14.026   2.413  12.665 -0.1658 -0.0526  0.2430
14695W        W30164   8.054  11.893   3.089  0.0110 -0.0422  0.2799
14696W        W30165  14.593   5.557   4.875 -0.0402  0.1709  0.0398
14697W        W30166  16.533   4.444   1.275  0.1110  0.5472  0.0949
14698W        W30167   6.811   8.968  13.730 -0.0113 -0.0365  0.1767
14699W        W30168  17.124   5.264   5.427 -0.0453  0.0454 -0.2453
14700W        W30169   5.782   9.012  12.398 -0.1605  0.3254  0.2753
14701W        W30170  17.507   4.797   4.813  0.0579 -0.2834 -0.0913
14702W        W30171   9.074  14.025  13.121 -0.0134  0.3873 -0.0065
14703W        W30172   5.677  10.430   3.551 -0.2266  0.0688  0.0714
14704W        W30173  17.638   6.264   0.602 -0.1455 -0.1604  0.1649
14705W        W30174   1.851  14.532   4.179 -0.1334 -0.1084 -0.1220
14706W        W30175   7.652  12.371  10.998  0.0297 -0.1397  0.2187
14707W        W30176   1.789   7.932  15.200 -0.1695 -0.2005 -0.1097
14708W        W30177  14.178   4.856  14.547 -0.0965  0.1531 -0.0718
14709W        W30178  15.492  15.687   1.047  0.1419 -0.0437  0.0711
14710W        W30179  10.440   6.673   0.454  0.0270  0.0411  0.1645
14711W        W30180   1.358   3.580   2.686 -0.2909  0.1464 -0.5207
14712W        W30181   0.108  15.765  14.493 -0.2472  0.3629 -0.0394
14713W        W30182   9.105   9.352  15.604 -0.0311 -0.4137  0.0601
14714W        W30183  11.677  13.168  12.256 -0.1914 -0.3254  0.1721
14715W        W30184   0.029   2.877  13.901  0.1229  0.2079 -0.0489
14716W        W30185   5.556   4.830   3.676 -0.0892 -0.1194  0.0915
14717W        W30186   3.904  16.243  13.387 -0.1211  0.2850  0.3873
14718W        W30187  13.497   4.276  11.809 -0.0533 -0.1038  0.0381
14719W        W30188   8.593  17.371  10.586 -0.1820  0.3921 -0.1509
14720W        W30189   5.985   8.105   0.860  0.0806 -0.2814 -0.1164
14721W        W30190   2.474  15.659  12.132  0.0027  0.1210  0.2661
14722W        W30191   1.449   3.367   0.797  0.1795  0.0206  0.3334
14723W        W30192  12.171   2.904   1.676 -0.0786  0.0398  0.1356
14724W        W30193   9.287   8.837  12.736 -0.0103 -0.0342  0.5007
14725W        W30194  10.073  16.571  15.889  0.0621  0.1246  0.1433
14726W        W30195  10.546  11.069   3.538 -0.1181  0.0440  0.1098
14727W        W30196   2.498   5.895  11.655  0.2182  0.1024 -0.0727
14728W        W30197  10.070   1.325   3.057 -0.2024  0.2750  0.0424
14729W        W30198  13.913   9.890   0.378 -0.1603 -0.0925 -0.2276
14730W        W30199   7.620  16.452  13.701  0.3530  0.3231  0.2092
14731W        W30200  12.731  17.836   3.781 -0.1638 -0.0230 -0.1282
14732W        W30201   3.249   0.270  15.220  0.1255 -0.0483  0.1393
14733W        W30202  16.022   4.772  13.673 -0.0710  0.0872  0.3278
14734W        W30203  12.798   8.127   3.392  0.0365  0.2536 -0.2136
14735W        W30204  16.678   9.083  10.415  0.0770  0.0572 -0.1072
14736W        W30205  16.051  14.835   0.078 -0.1124  0.1543  0.1160
14737W        W30206   0.139  10.586   4.796  0.2065 -0.0004  0.1053
14738W        W30207   3.151   4.111   4.276  0.2232  0.1466  0.1370
14739W        W30208   8.117   7.453   4.486  0.2119  0.2234 -0.1914
14740W        W30209   1.394  14.556  13.860  0.0428 -0.2378 -0.0238
14741W        W30210   0.409   4.273  12.334 -0.3268 -0.0678  0.0614
14742W        W30211  17.022  12.887  11.009 -0.2577 -0.3046  0.0200
14743W        W30212   7.543   9.663  13.927 -0.0964 -0.0517  0.0880
14744W        W30213   3.717  17.833  14.692 -0.4015  0.0375  0.1025
14745W        W30214  10.147  12.956   0.616  0.1933 -0.1130  0.0466
14746W        W30215   5.284   2.777   2.095  0.1392 -0.1988  0.0288
14747W        W30216  11.984   7.614   0.252 -0.2093  0.0906  0.3225
14748W        W30217   2.948   8.028  10.371 -0.0398 -0.0222 -0.1490
14749W        W30218   6.437   1.517  14.569  0.2261 -0.0578 -0.3818
14750W        W30219   2.423  17.515  11.734 -0.3109 -0.1792  0.0983
14751W        W30220   3.479  11.787   0.378 -0.2592  0.0244 -0.1217
14752W        W30221   7.255  16.023  15.000 -0.2188 -0.1533  0.0867
14753W        W30222   0.808  11.287   1.506 -0.0914  0.2834  0.2047
14754W        W30223  16.614   4.396   3.107  0.2167  0.2291  0.0700
14755W        W30224  15.961  13.629   3.366 -0.1989 -0.2010 -0.0317
14756W        W30225   1.424   2.300   4.333 -0.0027 -0.1881 -0.0571
14757W        W30226  10.084  12.689   2.759 -0.2917  0.1456  0.0145
14758W        W30227  15.333  13.239   3.882 -0.0916  0.0864 -0.1732
14759W        W30228   5.377   8.109   0.925  0.1365  0.1475 -0.1511
14760W        W30229  15.589   3.531  13.295 -0.1244 -0.2363  0.0389
14761W        W30230   6.596  13.346  15.516 -0.2966 -0.2220  0.1781
14762W        W30231   2.672  10.078   0.389 -0.0801  0.1264  0.1677
14763W        W30232  12.963  10.600  13.107  0.2047  0.0808  0.2798
14764W        W30233   5.321   8.567  11.098  0.2139  0.1451 -0.0342
14765W        W30234   5.126   6.779   2.322  0.1255  0.0268 -0.2119
14766W        W30235  13.322   6.598  11.274 -0.0022  0.0920  0.0728
14767W        W30236   7.913  15.990  11.614 -0.0334 -0.2214 -0.1696
14768W        W30237   0.030  17.749  12.224  0.1631  0.0077 -0.4877
14769W        W30238   0.153  10.106   1.613  0.1104 -0.3294  0.1767
14770W        W30239   0.456   7.655  13.846 -0.1387 -0.0660 -0.2036
14771W        W30240   7.342   0.969   2.545 -0.0891 -0.1038 -0.0288
14772W        W30241   5.308   1.774  15.825  0.1286 -0.0473  0.4120
14773W        W30242   6.058   2.192   1.654  0.0623 -0.2568 -0.1770
14774W        W30243   6.128  15.501  13.201  0.0309 -0.0692 -0.3190
14775W        W30244  17.465   9.621  15.026  0.3126 -0.0667  0.0720
14776W        W30245   9.444   7.051   1.564 -0.0893 -0.0534 -0.2172
14777W        W30246   9.080  14.985   3.321  0.1056 -0.1608  0.1518
14778W        W30247   5.420   6.535   3.783  0.1769 -0.2522  0.0330
14779W        W30248   9.987  13.209   2.851 -0.1638  0.1969  0.0172
14780W        W30249  14.219   0.852  15.529 -0.1775  0.2264 -0.1826
14781W        W30250  17.567  10.717  13.172 -0.1815 -0.1295  0.0619
14782W        W30251  16.337   7.195  13.327  0.1179  0.0269 -0.2915
14783W        W30252   2.638  12.344  11.840 -0.2207  0.1034 -0.0528
14784W        W30253   3.079  12.253   4.054  0.0610  0.3638 -0.0453
14785W        W30254   3.515   1.501  13.034  0.0976  0.1119  0.0458
14786W        W30255  14.157  18.090   3.481 -0.1093 -0.1202  0.0475
14787W        W30256   0.522   2.184   1.783  0.2674 -0.0594  0.1080
14788W        W30257   8.509  10.286  13.341 -0.0014 -0.1407 -0.4109
14789W        W30258   6.339   3.241  15.199 -0.0764 -0.2695  0.3975
14790W        W30259  16.513   0.987  12.864  0.0438  0.0263 -0.0333
14791W        W30260   6.406   1.652  13.575 -0.0804 -0.1404 -0.0946
14792W        W30261   8.030  17.343  10.487 -0.2504  0.0954  0.4234
14793W        W30262   1.722   9.304   4.669 -0.3091  0.0740 -0.0109
14794W        W30263   8.588  10.699  14.961 -0.0225 -0.0167 -0.5457
14795W        W30264   1.787   2.313   2.708  0.1338 -0.3116 -0.2111
14796W        W30265   5.364   8.674  12.659 -0.2645 -0.2087  0.2623
14797W        W30266   6.060   2.822  11.243  0.0820 -0.0512 -0.0647
14798W        W30267   9.051   3.517   2.532  0.1384 -0.3031  0.1122
14799W        W30268   6.072   9.463  13.000  0.0246 -0.0086  0.0216
14800W        W30269   1.964   7.188   3.973 -0.2431 -0.0833  0.1045
14801W        W30270   5.308   7.008  15.974  0.0607  0.1123 -0.4143
14802W        W30271  10.633  14.111  13.992  0.1084  0.1375 -0.2741
14803W        W30272  14.082  13.593  16.311  0.1417 -0.0034 -0.0879
14804W        W30273  17.174  12.673  15.088 -0.0179 -0.0075  0.3576
14805W        W30274  17.643  16.661  11.995  0.2120 -0.0815 -0.1862
14806W        W30275  15.542  13.450   1.476 -0.0264 -0.3666  0.1091
14807W        W30276   2.778  17.553   0.733  0.1454  0.1097 -0.1803
14808W        W30277  11.620   3.615   1.109  0.2395  0.4135 -0.1810
14809W        W30278   4.399  17.230   5.357 -0.1341 -0.1270  0.1902
14810W        W30279  10.021  13.325   0.338 -0.0972 -0.0267  0.2052
14811W        W30280   1.731  12.985   5.760 -0.0118 -0.2059 -0.0638
14812W        W30281   1.548   6.298   3.847 -0.0187  0.0714 -0.2948
14813W        W30282  16.922   0.184  12.461  0.0505 -0.0184 -0.1254
14814W        W30283  12.413   4.665   0.404  0.2601  0.0230 -0.1528
14815W        W30284  14.065  11.171  11.960 -0.2512  0.1649  0.1820
14816W        W30285  17.887   4.570   2.731  0.3863  0.0115 -0.0519
14817W        W30286  17.715   2.400  14.999  0.0753  0.2454 -0.2966
14818W        W30287  14.572   7.523  13.936 -0.2153  0.2814 -0.0921
14819W        W30288  10.065  14.586  12.161 -0.0464  0.1547 -0.1305
14820W        W30289   0.871   3.784   4.949 -0.1002 -0.0801  0.2062
14821W        W30290  11.353  14.049  12.492  0.1624 -0.1509  0.1475
14822W        W30291   9.866   3.180  16.187 -0.1206 -0.1274 -0.1444
14823W        W30292  10.430  17.168   0.341 -0.0854 -0.1614 -0.1234
14824W        W30293   4.017  14.773  13.016 -0.1516 -0.4166  0.1307
14825W        W30294   5.208   2.150  11.317  0.2843  0.1701 -0.1213
14826W        W30295   4.223   2.089   0.264 -0.3501 -0.2291  0.1249
14827W        W30296  12.654   8.126  11.475 -0.2791 -0.0461  0.3432
14828W        W30297  11.208   0.468  11.589 -0.0128 -0.2120 -0.0851
14829W        W30298   2.587   2.010  12.858  0.0540  0.2878 -0.0959
14830W        W30299   9.743   1.243  12.248  0.0889 -0.0105 -0.0351
14831W        W30300  11.283   3.938   5.337 -0.2356 -0.2114  0.3026
14832W        W30301  12.587  16.827   0.640 -0.0611 -0.1272 -0.2057
14833W        W30302   9.578   1.408   1.696 -0.0166 -0.1119 -0.0202
14834W        W30303  10.173  10.821   2.252 -0.0154  0.0470  0.1294
14835W        W30304  11.951  10.210   3.417 -0.0743  0.1315  0.1370
14836W        W30305  14.244  10.091   1.695 -0.0156 -0.2317  0.3203
14837W        W30306   0.154  10.762  15.146  0.1969 -0.4388 -0.1325
14838W        W30307   5.916   5.008  14.364  0.0701  0.2088 -0.5448
14839W        W30308   3.823   6.487   3.000 -0.0024  0.3313 -0.1433
14840W        W30309   2.564  12.533   0.863 -0.0260 -0.2762 -0.1585
14841W        W30310  17.716  15.249  15.386 -0.1624  0.0511  0.1160
14842W        W30311   1.693   6.879  16.198 -0.0788 -0.0648 -0.0543
14843W        W30312   3.521   7.877  15.942 -0.1487  0.1966  0.0517
14844W        W30313   9.251   2.597   2.836 -0.1947 -0.0758  0.0789
14845W        W30314   9.303  16.924  12.052 -0.0584  0.0748  0.0122
14846W        W30315  16.264  17.499  15.366 -0.3218 -0.0377  0.0813
14847W        W30316   0.682  15.882   2.010 -0.2358 -0.0615 -0.0464
14848W        W30317  13.403   1.562   2.051  0.1061  0.0414 -0.1157
14849W        W30318  11.853   6.617  10.544 -0.0880 -0.0402 -0.1744
14850W        W30319   5.289  16.486  14.563 -0.1243  0.1920  0.3980
14851W        W30320  13.424   0.709  15.003  0.2469  0.1508 -0.1109
14852W        W30321   2.405   2.629  11.202  0.0191 -0.3724  0.1260
14853W        W30322  13.922   5.445   2.011 -0.0619  0.5302 -0.0370
14854W        W30323  15.977   9.340   3.525  0.2495 -0.1555 -0.0323
14855W        W30324  13.609  14.871  13.415  0.0421  0.0886 -0.2209
14856W        W30325  14.477  16.769  14.139 -0.0825  0.0979  0.1130
14857W        W30326   0.868   8.890   4.813  0.3622 -0.0497  0.1173
14858W        W30327  17.436  10.171   4.786 -0.1938 -0.2673  0.1772
14859W        W30328  14.889  14.608   5.735 -0.0506  0.1568 -0.1879
14860W        W30329  13.262  17.557   2.716 -0.0117  0.2007  0.0301
14861W        W30330  10.778  17.647  14.067 -0.0127  0.2953 -0.0300
14862W        W30331   2.659   7.242  15.148 -0.1393  0.1325 -0.0652
14863W        W30332  12.266   1.497   3.372  0.1326  0.2372 -0.1571
14864W        W30333   9.675   6.410   4.596  0.1041  0.2070 -0.0266
14865W        W30334   1.041   0.490  13.910 -0.0966 -0.2188  0.0471
14866W        W30335  10.114  14.948   3.331  0.2432  0.0481 -0.1674
14867W        W30336   0.401  12.150  15.478 -0.2343 -0.3303  0.2490
14868W        W30337   1.286  16.863  15.044  0.0838 -0.1977 -0.0068
14869W        W30338  12.683   2.795   3.014  0.1322 -0.0361 -0.2218
14870W        W30339   1.895  16.674  15.819  0.0125  0.0030  0.2168
14871W        W30340  17.711  10.547   0.090  0.1110 -0.2111 -0.0079
14872W        W30341  10.734   1.696   6.442 -0.2663  0.2020 -0.0313
14873W        W30342   0.943   1.482  16.024  0.0397  0.0748 -0.0626
14874W        W30343   2.395  16.232   2.975  0.3156 -0.0267 -0.2707
14875W        W30344   1.750  12.017  14.589  0.1164  0.0305 -0.0778
14876W        W30345  12.897  11.534  11.331  0.0113 -0.1108  0.2877
14877W        W30346   0.152  10.349  15.475 -0.0695  0.3606 -0.2592
14878W        W30347   0.363  12.273   2.771 -0.2177 -0.2255 -0.1186
14879W        W30348  18.003   2.862   5.411 -0.1777  0.1085 -0.2727
14880W        W30349  11.409   3.780   2.034  0.0429 -0.1464 -0.0541
14881W        W30350   9.780   7.773   0.547  0.2643  0.0587 -0.3848
14882W        W30351  14.968   1.187   1.753 -0.1501  0.3550 -0.0654
14883W        W30352   5.135   6.664  14.339  0.1471  0.3767  0.2041
14884W        W30353  14.402  16.278  11.433 -0.1094 -0.0647 -0.0358
14885W        W30354   2.226  17.638  14.920  0.1580 -0.3844  0.0447
14886W        W30355  17.806   3.059  12.318 -0.1983  0.1506  0.0744
14887W        W30356   7.236   0.278   3.440  0.2538  0.0943 -0.2510
14888W        W30357  13.004   6.134   1.586  0.0413 -0.4223  0.0128
14889W        W30358   4.759   7.283  11.837  0.4265  0.1183  0.1245
14890W        W30359  15.311   4.613  16.118 -0.0690 -0.2080 -0.1852
14891W        W30360   1.282   6.908  15.846 -0.0262  0.1221 -0.1217
14892W        W30361   3.702   7.687  11.002 -0.0426 -0.2338  0.0541
14893W        W30362   2.640   4.390  12.050 -0.5322  0.3062  0.1689
14894W        W30363   7.030   3.296  10.447 -0.1188 -0.0360  0.3339
14895W        W30364   7.585  13.548   4.461 -0.0479  0.2924 -0.0548
14896W        W30365   0.699  14.689  16.214  0.0436 -0.0718 -0.1528
14897W        W30366   9.320  12.003   1.918  0.3511 -0.0192 -0.2044
14898W        W30367   8.895   7.156   3.491 -0.1188  0.1379 -0.3056
14899W        W30368   1.054   2.967  12.896  0.1628 -0.3843 -0.1667
14900W        W30369   2.622  14.331   0.075  0.0493 -0.2060 -0.0111
14901W        W30370  11.072   8.625  14.616 -0.1308  0.2615  0.1483
14902W        W30371   4.310   0.768   0.623  0.1056  0.0064  0.2004
14903W        W30372   7.664   7.463  13.031  0.1882  0.2546 -0.1472
14904W        W30373   2.719  17.827   2.187  0.2950 -0.1121  0.3398
14905W        W30374  14.202   0.697  13.270 -0.1914 -0.0769 -0.2412
14906W        W30375   1.619   7.527   3.683  0.0980 -0.2804  0.0515
14907W        W30376   1.295  13.059   2.482 -0.2611 -0.1112  0.2175
14908W        W30377  11.656  16.286  14.428 -0.3204 -0.1799 -0.6472
14909W        W30378   4.866  16.110   2.673  0.0942  0.1586  0.2203
14910W        W30379   9.584   2.529   0.869 -0.0204 -0.2084 -0.2684
14911W        W30380  14.489   9.192  11.255 -0.0602  0.1685  0.3391
14912W        W30381   5.500   5.908  14.798  0.0119  0.0644  0.1374
14913W        W30382   3.161   4.357   4.798  0.0727 -0.0725 -0.0937
14914W        W30383  14.324  11.934  11.290 -0.1053 -0.0413 -0.0348
14915W        W30384   7.213   6.704  11.922 -0.1791 -0.0407 -0.0520
14916W        W30385  16.609   4.835   4.346  0.0328 -0.2276  0.1255
14917W        W30386   8.301  11.827  10.713 -0.2558 -0.2668 -0.0395
14918W        W30387  11.072   9.079   1.605 -0.0089 -0.0839  0.2644
14919W        W30388  16.185   3.179  14.697 -0.1333  0.3008  0.1015
14920W        W30389   9.767   8.189   4.039 -0.0137 -0.1864 -0.1550
14921W        W30390   3.518   3.093   3.824 -0.1754 -0.1814  0.0633
14922W        W30391   3.463   5.366   1.183  0.1842  0.2537 -0.0365
14923W        W30392   5.751  16.043   3.604 -0.0799 -0.0997 -0.1172
14924W        W30393  11.716   7.089  11.419 -0.4385  0.2228 -0.2250
14925W        W30394  17.207  13.628   4.308 -0.0622 -0.2432  0.0925
14926W        W30395  16.482  10.519   2.779 -0.1793 -0.3166 -0.1240
14927W        W30396   6.817   2.335   3.783 -0.1958  0.0341 -0.1176
14928W        W30397  13.501   5.137   4.520 -0.0041  0.0389  0.0885
14929W        W30398   0.474  14.340   3.537  0.1885  0.0177  0.0242
14930W        W30399   2.325  17.459   3.844 -0.1535 -0.0936  0.2616
14931W        W30400   5.528  11.306   0.343 -0.0988  0.1112 -0.0315
14932W        W30401  17.766   0.515  15.525 -0.2763 -0.1725  0.1056
14933W        W30402   1.400  17.792   5.568  0.3906  0.2048 -0.2231
14934W        W30403  15.910   2.506   3.109  0.1661 -0.0666 -0.1730
14935W        W30404   2.416  14.745   1.069 -0.1725 -0.2727  0.1734
14936W        W30405  10.572  15.590   4.509  0.1104 -0.3011 -0.2828
14937W        W30406  13.371  12.339  13.766  0.1646  0.0266  0.3926
14938W        W30407   9.456   9.286   2.526 -0.2247  0.1956 -0.1522
14939W        W30408  13.870   7.010  10.575  0.0216  0.0034 -0.0185
14940W        W30409   2.542  10.697   3.493 -0.0827  0.1039 -0.0104
14941W        W30410  14.117  17.670   1.666  0.1112  0.2092 -0.1759
14942W        W30411   7.104   2.809   2.934  0.2608  0.0926  0.0477
14943W        W30412  16.134   2.762  14.402 -0.2415 -0.1342  0.2968
14944W        W30413  15.292   1.627  15.123 -0.1775 -0.2093 -0.0845
14945W        W30414  14.350  15.030  15.146  0.2061  0.0684 -0.1052
14946W        W30415  12.620  12.774   1.012  0.0444  0.0938 -0.0676
14947W        W30416  17.905   5.347  12.050 -0.2001 -0.0188  0.2019
14948W        W30417  10.247   8.419  11.963 -0.1828 -0.0420 -0.2286
14949W        W30418  11.157   7.340  14.299 -0.1047  0.3273  0.0012
14950W        W30419   1.296  17.938   3.301 -0.0987 -0.0778  0.1251
14951W        W30420   3.030  16.525   0.453  0.0862 -0.0377  0.1185
14952W        W30421  13.478   7.400   5.355  0.2812  0.1757  0.2200
14953W        W30422   3.001  16.522   5.078  0.3173  0.0050 -0.0950
14954W        W30423   5.923   3.295  14.910 -0.0857  0.0069 -0.3128
14955W        W30424  12.058   8.320   3.772 -0.0816  0.3969 -0.1760
14956W        W30425  10.866  13.455  15.688 -0.0068 -0.1411 -0.3252
14957W        W30426   8.547   7.587  14.548 -0.1672 -0.1121 -0.3701
14958W        W30427  15.315   9.721   2.356 -0.2071  0.3531 -0.0078
14959W        W30428  10.832   2.786  13.490  0.0260 -0.0978 -0.2254
14960W        W30429   8.938   9.118  10.187  0.3020  0.1376 -0.0563
14961W        W30430   7.747  11.191   9.956  0.0597 -0.0095 -0.1642
14962W        W30431   3.320  11.525   3.612  0.1187  0.1806 -0.1425
14963W        W30432   1.574  10.806   1.872  0.0059 -0.1807  0.0231
14964W        W30433  13.396  14.895  12.002  0.1182  0.0044 -0.0812
14965W        W30434  14.716  13.734   1.038  0.2564  0.3027  0.3501
14966W        W30435   1.521  15.504  13.871  0.3844 -0.1193 -0.1698
14967W        W30436   3.908  17.373   1.702 -0.1855  0.2425 -0.0579
14968W        W30437  16.688   8.518   5.374  0.1149  0.1347 -0.0888
14969W        W30438   7.789  13.089   0.475 -0.0549 -0.1339 -0.0886
14970W        W30439   3.469   8.594   4.854  0.2308  0.0937 -0.0883
14971W        W30440  12.288  16.032  12.128  0.0885 -0.0824  0.0905
14972W        W30441  13.497  10.513   1.464  0.0413 -0.3629 -0.2254
14973W        W30442   8.544   5.099  13.676 -0.1089 -0.1239  0.0577
14974W        W30443   9.926   9.960   1.856 -0.0995 -0.1127 -0.0254
14975W        W30444   8.899  13.113   5.203 -0.1611 -0.1407  0.0753
14976W        W30445  17.677   3.241  13.441 -0.1868  0.1883 -0.1112
14977W        W30446   1.029  11.214   3.397 -0.1072 -0.0009 -0.2380
14978W        W30447   5.889  14.064   0.565 -0.0332  0.0436  0.1268
14979W        W30448  13.987  15.071  16.061 -0.0117  0.0118  0.0608
14980W        W30449  15.548  16.973   4.830  0.3613 -0.0835  0.1152
14981W        W30450   7.534   0.332  12.884 -0.3240 -0.0210  0.1160
14982W        W30451   0.888  15.205   1.619  0.1098  0.2711  0.0516
14983W        W30452   6.366   1.328   0.315 -0.2074  0.1047  0.2166
14984W        W30453  15.866  15.926  15.474 -0.0625 -0.0566 -0.1437
14985W        W30454  14.023   2.498   0.401  0.2798  0.0911  0.3358
14986W        W30455   1.752   4.174  15.422 -0.1589 -0.3579 -0.0856
14987W        W30456  13.951   4.055  12.813  0.0142 -0.0634  0.2976
14988W        W30457   6.258   4.610   5.113 -0.2912  0.2056 -0.0306
14989W        W30458  10.360  14.604  11.674 -0.3904 -0.4124 -0.0814
14990W        W30459  10.280   0.205   0.495 -0.0140 -0.0450 -0.1647
14991W        W30460   1.903   3.866  15.009 -0.1340  0.2493  0.2230
14992W        W30461   6.501  17.477  12.420  0.0854 -0.2107 -0.2972
14993W        W30462   8.999  13.393  13.758 -0.0871 -0.1835 -0.0846
14994W        W30463   7.267   5.770  10.150  0.1605 -0.2120 -0.0887
14995W        W30464   3.597  10.515  12.666  0.0637 -0.2861  0.2195
14996W        W30465   3.130   7.759   2.740 -0.0854  0.4170 -0.0020
14997W        W30466   8.368   5.108  11.900  0.1013  0.0354  0.2910
14998W        W30467   5.464   0.748  11.291  0.2427 -0.0906  0.1887
14999W        W30468  16.826  11.366   3.243  0.0035 -0.2044 -0.1014
15000W        W30469   3.634   5.839   1.149  0.1554 -0.0918 -0.1545
15001W        W30470  15.968   4.391  12.664 -0.0830 -0.0256  0.1110
15002W        W30471   5.523  11.789  15.151  0.1694  0.3132 -0.1056
15003W        W30472   5.883  12.701  12.116 -0.1339 -0.0524  0.0087
15004W        W30473   3.451   1.250   2.754 -0.3145  0.0873  0.0053
15005W        W30474   6.368  16.618  15.326  0.0983 -0.0556  0.0375
15006W        W30475  12.080  16.795   4.042  0.2316  0.3570 -0.1497
15007W        W30476   7.268   8.846   3.603 -0.0366  0.1650 -0.4161
15008W        W30477   4.417   8.686   4.452  0.2293  0.0144  0.0911
15009W        W30478   9.866   1.949   3.212  0.0293 -0.0822  0.1023
15010W        W30479   8.838  16.985  10.795  0.2409  0.1044  0.0932
15011W        W30480  13.429  15.583   1.499 -0.2524 -0.0241  0.1991
15012W        W30481   9.320  15.603   0.834 -0.2536  0.2063 -0.1225
15013W        W30482   2.497   5.300   0.485  0.2902 -0.0388  0.0634
15014W        W30483   8.485   0.319  14.768 -0.0056  0.1225  0.1970
15015W        W30484   6.548   8.268   0.952  0.1317  0.2154 -0.1048
15016W        W30485   4.446   3.969   0.447  0.0195 -0.4202 -0.0306
15017W        W30486   1.452   4.935   3.203  0.0755 -0.5957  0.1862
15018W        W30487  14.291  13.411   4.533  0.0929 -0.4709  0.0755
15019W        W30488   6.954   1.482  13.720  0.1286 -0.1753  0.0993
15020W        W30489  11.211  11.846  15.666 -0.2924  0.1686 -0.0217
15021W        W30490  14.108  15.957   0.827 -0.1545 -0.0507 -0.3651
15022W        W30491  10.357  11.604   6.211 -0.0709 -0.1996 -0.1306
15023W        W30492   7.896   3.147  13.702  0.3221  0.0530  0.1316
15024W        W30493   5.271  11.155   5.993 -0.0065 -0.0810 -0.4785
15025W        W30494  14.595  13.672   0.023 -0.0658 -0.0836  0.1298
15026W        W30495  17.785   8.777   1.338 -0.2367 -0.2921  0.0678
15027W        W30496   2.303   1.829  10.133 -0.0747  0.1020  0.1293
15028W        W30497   7.693  12.884  14.599 -0.1020  0.1805 -0.2070
15029W        W30498   3.316   8.925  13.827  0.0070 -0.1453 -0.3132
15030W        W30499  15.070   7.065   5.046 -0.0725 -0.0896  0.2241
15031W        W30500  15.226   3.883  14.176  0.1204  0.2064  0.0093
15032W        W30501   2.050  12.203   1.746 -0.1541 -0.1322 -0.0970
15033W        W30502   0.904  12.728  11.168 -0.1088 -0.0166  0.1093
15034W        W30503   2.732  11.232   4.875  0.3035 -0.0359  0.1972
15035W        W30504   2.769   5.296  12.387 -0.0337  0.0446 -0.0051
15036W        W30505   5.746   0.224   2.318  0.0647 -0.2468  0.1541
15037W        W30506  10.507  10.940   4.942  0.1399  0.0301 -0.3007
15038W        W30507  15.567   8.525  14.597  0.0258  0.0598  0.1805
15039W        W30508   4.845   8.161   1.222 -0.1045 -0.1717  0.2470
15040W        W30509  10.780  15.507   1.653 -0.1241  0.1720 -0.3223
15041W        W30510   5.432   9.925   4.835 -0.1317  0.1211  0.1457
15042W        W30511  16.331  11.717  15.359 -0.0158 -0.4527 -0.0094
15043W        W30512   6.275  10.190   2.621  0.1234 -0.2748  0.2961
15044W        W30513   6.237   0.174   0.114 -0.1439  0.0534  0.0367
15045W        W30514   6.100   0.871   1.079 -0.2146 -0.2753  0.2543
15046W        W30515  16.335   3.832  11.864  0.3890 -0.1286 -0.0515
15047W        W30516  14.788  16.365  13.727  0.2520  0.3356  0.0321
15048W        W30517   9.765   3.395   2.016  0.0794 -0.0155  0.0579
15049W        W30518   1.923  10.086   3.825  0.0224  0.1846 -0.1734
15050W        W30519   7.049  10.350  11.728  0.0351  0.1257 -0.1498
15051W        W30520   2.529  11.915  15.139 -0.0453 -0.2060  0.3316
15052W        W30521  10.639   4.094  13.101  0.2016 -0.1466  0.2264
15053W        W30522   8.327  10.017  13.717 -0.3265 -0.0310 -0.0260
15054W        W30523   9.193   6.494  15.713 -0.0200 -0.0760  0.0743
15055W        W30524   1.944   3.896  12.547 -0.1113 -0.2720  0.0525
15056W        W30525  10.431   7.698   0.790 -0.4380 -0.1704 -0.1475
15057W        W30526  12.412  16.385   4.241 -0.0616  0.1564 -0.0902
15058W        W30527  14.869  17.343  13.075 -0.0522  0.2518 -0.3377
15059W        W30528   5.655   9.855   2.243  0.2609 -0.0463 -0.1514
15060W        W30529   2.081  15.749   3.230  0.2028  0.0444 -0.0957
15061W        W30530   3.608  17.737  13.118 -0.0493  0.0683 -0.2363
15062W        W30531   3.439  14.713  15.996 -0.2580  0.3073 -0.2878
15063W        W30532  16.738  13.607  15.653 -0.1489 -0.0318 -0.2330
15064W        W30533  11.842   7.191   2.019 -0.2247  0.2563 -0.1310
15065W        W30534   7.842  16.950   2.215 -0.0150  0.1860 -0.0296
15066W        W30535   7.900   5.140   1.931 -0.0288  0.1345 -0.0642
15067W        W30536  15.974  15.736  12.694 -0.3904 -0.0346 -0.3841
15068W        W30537   6.521   4.143  12.524 -0.1147 -0.0592 -0.0879
15069W        W30538   7.750  13.962   5.198  0.1137  0.0615  0.3475
15070W        W30539  17.918  15.647   0.535  0.0792  0.2333 -0.0580
15071W        W30540  16.956  15.428  12.247  0.0021  0.1506 -0.4529
15072W        W30541  15.292  10.205   3.824  0.0193 -0.0318 -0.0070
15073W        W30542  10.648   0.729   0.051  0.1879 -0.1602 -0.1852
15074W        W30543   8.558   6.491  13.521 -0.0707 -0.2493 -0.1592
15075W        W30544  14.035   3.089  13.278  0.3709  0.1725 -0.2830
15076W        W30545   0.043  11.080  14.221 -0.0837 -0.2117  0.0625
15077W        W30546   7.117   7.723   2.672 -0.0299  0.1419 -0.1778
15078W        W30547   5.690  17.991  14.159 -0.0560 -0.2593  0.1093
15079W        W30548  12.205   3.398   1.569  0.2360 -0.1190 -0.0221
15080W        W30549   3.620  12.913  11.683 -0.0029  0.0146  0.1464
15081W        W30550  14.834  12.840  11.934  0.0068 -0.1597  0.2690
15082W        W30551  16.829  17.019   0.021 -0.0006  0.2986 -0.0001
15083W        W30552   2.614   5.470   1.551 -0.0130 -0.1865 -0.1231
15084W        W30553   4.626  13.664   2.917 -0.1728  0.1104  0.0355
15085W        W30554   5.216   2.364   3.870  0.1285  0.2300  0.2044
15086W        W30555   7.124  17.849  14.570  0.0946 -0.0111 -0.0070
15087W        W30556  13.582  10.640  11.187 -0.4862  0.2304 -0.0623
15088W        W30557   7.611   9.008   4.715  0.0938 -0.0676 -0.0696
15089W        W30558  16.936   9.315  12.412  0.0392  0.1729 -0.0778
15090W        W30559  13.535  13.766   4.519 -0.1483  0.0168  0.1128
15091W        W30560  14.245  15.082  12.021 -0.0760 -0.1519  0.2064
15092W        W30561  11.205   8.806  14.126  0.0857 -0.1653 -0.0055
15093W        W30562   9.684  13.007   2.037  0.1719  0.2506  0.0585
15094W        W30563  12.101  15.001  13.292  0.0568  0.1667  0.1831
15095W        W30564  12.079  17.599   0.647 -0.0938 -0.0826 -0.2077
15096W        W30565  16.671  14.692   1.401  0.0485  0.5252 -0.1330
15097W        W30566   5.742   9.903   4.424  0.0648  0.0820  0.1735
15098W        W30567   3.185  17.284  16.287  0.3599 -0.0820  0.0552
15099W        W30568  10.087   1.526   1.726  0.1239  0.0327 -0.2103
15100W        W30569  16.498  12.397  13.329 -0.0514  0.2167  0.1431
15101W        W30570  12.806  14.402  13.535  0.0949 -0.1556 -0.0903
15102W        W30571  16.870   8.514  13.333 -0.0454 -0.3809 -0.0209
15103W        W30572   5.591  16.267  13.011 -0.2482  0.1310 -0.1858
15104W        W30573   2.210  15.797   2.673 -0.0157 -0.3136  0.0478
15105W        W30574  12.892  10.984  13.471 -0.0947 -0.4606 -0.0347
15106W        W30575   7.308  17.193   2.090  0.2446 -0.2944  0.0745
15107W        W30576  14.544  12.530   1.188  0.1159 -0.1980 -0.1215
15108W        W30577  17.205   7.896   2.301  0.4366  0.0476 -0.0862
15109W        W30578  12.933   7.617   3.320 -0.1037  0.2872 -0.1111
15110W        W30579   1.893   2.159  11.964  0.1466 -0.2755 -0.0313
15111W        W30580  17.158   1.916  14.241  0.1984 -0.0146 -0.0906
15112W        W30581   4.866   6.073   1.965  0.2145  0.1896  0.2287
15113W        W30582   6.735   6.119   6.001  0.1166 -0.2071  0.0278
15114W        W30583   3.767   0.986  12.936  0.0215 -0.4854 -0.0737
15115W        W30584  13.810  11.489   2.870  0.2435 -0.3238  0.1013
15116W        W30585   6.571  14.765   0.723 -0.0534 -0.1521 -0.4019
15117W        W30586   4.743   5.375  14.686  0.0120  0.2452 -0.2483
15118W        W30587  13.336   7.097  15.483 -0.2955  0.0812  0.0225
15119W        W30588  17.910  10.155  12.573 -0.0462 -0.1977 -0.1547
15120W        W30589  17.548   0.431  10.763  0.0309 -0.0046  0.3801
15121W        W30590   3.278   0.959   4.584 -0.2716  0.0426 -0.0326
15122W        W30591  12.709   5.300  12.937 -0.2821  0.0635 -0.0280
15123W        W30592   9.443  11.295   3.181 -0.2943 -0.1319 -0.1396
15124W        W30593  10.207   6.312  11.764  0.0903  0.1297  0.1571
15125W        W30594   8.086  16.966   0.541 -0.1063 -0.0823  0.1428
15126W        W30595  15.118   3.812  12.457  0.2799  0.2497 -0.0930
15127W        W30596  15.211   8.908   0.941 -0.2181 -0.0206 -0.0905
15128W        W30597   0.501   5.469  15.421 -0.3153 -0.1340 -0.0807
15129W        W30598   8.211  15.988   4.579 -0.1944  0.0917  0.0612
15130W        W30599  17.330   9.543   2.221 -0.0506  0.3604 -0.1654
15131W        W30600  15.727  16.992   4.327  0.2397 -0.0433  0.2982
15132W        W30601   4.324  11.873   4.767 -0.0260  0.0943 -0.0259
15133W        W30602   7.609  17.679  12.031 -0.1545 -0.0438 -0.0617
15134W        W30603   7.844  16.663   1.830  0.1155 -0.2243  0.0190
15135W        W30604  11.202   4.833  12.292 -0.0025  0.0265 -0.0308
15136W        W30605  15.431  15.406  12.016  0.1555  0.0945  0.2919
15137W        W30606   8.531   0.097  13.758  0.2032  0.1437  0.1089
15138W        W30607   8.428   4.417   2.288  0.0156 -0.2662  0.0143
15139W        W30608  17.276   0.249  11.149  0.1769 -0.2993 -0.2383
15140W        W30609   4.463   7.101   5.285  0.1639 -0.0729 -0.0393
15141W        W30610   6.525   5.989  12.583 -0.0312 -0.3342  0.0556
15142W        W30611  11.283  15.123  14.864  0.1654  0.3317 -0.0798
15143W        W30612   5.599   4.601   2.369  0.1676  0.1090 -0.2697
15144W        W30613  17.536   8.434   0.263  0.1034  0.1068  0.0283
15145W        W30614   2.179  16.217   2.403  0.0565  0.0738  0.2561
15146W        W30615   4.878  13.392   2.521  0.3893 -0.0997  0.0961
15147W        W30616  11.826  14.439  11.416  0.1083 -0.3561 -0.0450
15148W        W30617   2.162  10.476  12.638 -0.1148 -0.1272  0.0930
15149W        W30618  16.229   0.466  13.778 -0.1371  0.0200 -0.0537
15150W        W30619  11.801  15.565   3.168 -0.3132 -0.2093 -0.0173
15151W        W30620   0.785   8.350   2.340 -0.0114  0.1768 -0.0880
15152W        W30621   7.484   8.291   3.551  0.0485 -0.1063  0.2853
15153W        W30622  14.422  12.109   2.434  0.1976  0.1107 -0.0947
15154W        W30623  16.125   7.762  16.232 -0.4032  0.1762  0.0814
15155W        W30624   5.403  11.054  12.895  0.1142  0.1846  0.2272
15156W        W30625   0.853  13.278  16.117  0.1803 -0.2746 -0.0372
15157W        W30626   5.874  13.561  14.526 -0.0689 -0.4238  0.1865
15158W        W30627   9.755   8.815  11.409 -0.0713  0.1986  0.0064
15159W        W30628  11.486  10.126   1.199 -0.2733  0.0012  0.2253
15160W        W30629   9.620   8.692  10.902  0.0630 -0.2321  0.1014
15161W        W30630  10.699   4.952  13.078 -0.0386 -0.0339  0.2378
15162W        W30631   1.569   5.775   4.498 -0.1514 -0.1049 -0.0085
15163W        W30632  15.751  15.831  12.192  0.2310 -0.0521  0.0980
15164W        W30633   7.959   6.353  13.532 -0.0384 -0.0174  0.1867
15165W        W30634   4.386   7.880  12.523  0.1189 -0.0296 -0.0520
15166W        W30635   1.502  17.539   0.750 -0.2257  0.5192 -0.1332
15167W        W30636   5.269   4.418  14.479  0.0747  0.0738 -0.0236
15168W        W30637   5.865  11.141   4.846 -0.0097 -0.2781  0.1578
15169W        W30638   8.318   5.962  11.683  0.0871 -0.0591  0.2585
15170W        W30639  10.946   4.164   1.906 -0.0623 -0.1143 -0.4535
15171W        W30640  12.294   8.350   4.287 -0.0105  0.2671  0.2102
15172W        W30641   2.824   9.831  13.554  0.1897 -0.2085 -0.0962
15173W        W30642   2.040  17.986  11.499 -0.1732 -0.1803 -0.1816
15174W        W30643  11.475  14.713  11.641 -0.1264 -0.1415 -0.2446
15175W        W30644  14.662  10.828   4.129 -0.1529 -0.2659 -0.1967
15176W        W30645  11.080  10.663  12.895  0.0834 -0.0971 -0.0558
15177W        W30646   9.201   4.378   4.104 -0.0345  0.1290  0.0634
15178W        W30647  14.729  12.521   1.684  0.0261 -0.0823  0.0207
15179W        W30648   3.236  11.014   3.704 -0.0587 -0.1322 -0.0409
15180W        W30649   2.377  11.003  13.302  0.0473 -0.0991 -0.1375
15181W        W30650   7.447   7.009  13.186 -0.2278  0.0282 -0.0231
15182W        W30651   6.223   7.452  14.263  0.0415  0.1344  0.4223
15183W        W30652  11.268   1.989   3.626 -0.3047 -0.1316  0.0670
15184W        W30653  10.122  16.634   0.348 -0.0117  0.1727  0.2444
15185W        W30654  15.258   0.742  15.876  0.1800  0.0708 -0.0179
15186W        W30655   2.482  15.207   4.475 -0.2053 -0.0024  0.0817
15187W        W30656   7.549  14.312   3.938  0.3352 -0.2609 -0.0443
15188W        W30657   0.689  16.691  15.660 -0.1207 -0.2392  0.0498
15189W        W30658  11.924   8.648  10.354  0.4637 -0.0865 -0.1111
15190W        W30659   0.741  16.050  15.921  0.1572  0.1093  0.3247
15191W        W30660  13.712  13.183   2.340  0.4818 -0.3063 -0.0841
15192W        W30661   9.461  10.165   2.032  0.1479 -0.1886 -0.0145
15193W        W30662  14.258   2.245  11.486 -0.1801  0.1096 -0.1245
15194W        W30663  11.525  10.640   0.219  0.0839 -0.3435 -0.2872
15195W        W30664  12.787   5.863   5.653 -0.0121 -0.2416  0.2385
15196W        W30665  16.969  10.190  13.158 -0.1124 -0.1040 -0.0501
15197W        W30666   2.029   0.347   4.864 -0.0214  0.0395 -0.0142
15198W        W30667   0.193   5.223   0.017 -0.1265 -0.1770  0.0321
15199W        W30668   1.915   7.519  11.556  0.5280  0.3199  0.2293
15200W        W30669   6.647   9.819  13.429 -0.1240 -0.2188 -0.3538
15201W        W30670   4.471  14.431   1.755 -0.1512  0.0435 -0.2206
15202W        W30671  11.332   1.657  15.360 -0.0167 -0.2392  0.1556
15203W        W30672  15.111  15.879  14.206  0.0370 -0.0479  0.2075
15204W        W30673   4.998  14.307  14.921 -0.0426 -0.0132  0.0719
15205W        W30674   7.263   8.583   0.064  0.0474 -0.0180 -0.1764
15206W        W30675   0.905   7.354   1.368  0.2117 -0.0944 -0.1493
15207W        W30676   2.293   0.915  11.573  0.0451  0.0390  0.2791
15208W        W30677   1.598   9.461  12.584  0.2058 -0.1533 -0.3111
15209W        W30678  11.891  10.658  11.766  0.0817 -0.0723 -0.0827
15210W        W30679  16.928   7.118   4.583 -0.0845  0.0093 -0.3013
15211W        W30680  12.978   6.845   4.701  0.0781 -0.2099  0.2282
15212W        W30681   7.671  13.659  13.553 -0.0348  0.2637 -0.0443
15213W        W30682  12.726  17.313  15.061  0.0216 -0.0771 -0.0841
15214W        W30683   4.896  14.920   3.028 -0.0791 -0.0241 -0.5546
15215W        W30684   8.789  14.919   5.208 -0.0168 -0.2359  0.2499
15216W        W30685  10.465   1.197   5.399 -0.1514 -0.0232 -0.1986
15217W        W30686   7.356   1.125   0.260 -0.1393 -0.0835  0.0410
15218W        W30687   0.254  17.918   3.243 -0.2733 -0.2478  0.0343
15219W        W30688   4.707   4.235   2.560  0.1219  0.3479 -0.2568
15220W        W30689   6.167  15.711  13.681 -0.0173  0.1429 -0.0329
15221W        W30690  12.373   8.472   0.065 -0.1657 -0.1329 -0.0706
15222W        W30691   2.886  12.182   5.892 -0.2640 -0.1521  0.0483
15223W        W30692  12.210   6.752   1.461 -0.2045  0.1353  0.0333
15224W        W30693   2.215   4.003  12.120  0.2968  0.1286  0.3142
15225W        W30694  11.824   9.297   0.704 -0.2408  0.2208  0.0487
15226W        W30695   7.104  10.732  13.431 -0.0418 -0.1050 -0.0073
15227W        W30696  14.769  11.133  12.853 -0.0853  0.0952  0.1287
15228W        W30697  11.543   1.686  14.879  0.1412  0.1155 -0.2932
15229W        W30698   6.542  10.530  10.214 -0.0228  0.0865  0.0522
15230W        W30699   0.569  12.706   0.561  0.3133 -0.0462 -0.0981
15231W        W30700   0.595  10.538  14.620 -0.1046  0.3602 -0.1547
15232W        W30701  16.755  17.883  10.234  0.2832  0.1278 -0.0500
15233W        W30702   3.576   3.596  13.494 -0.1604  0.0167  0.2319
15234W        W30703   7.488  12.613  15.051 -0.1237  0.0859 -0.2488
15235W        W30704   0.948  13.613  15.756  0.1716 -0.0272 -0.0624
15236W        W30705  15.050   3.703   0.157  0.0041 -0.1850  0.0750
15237W        W30706   1.566  17.409  12.086  0.1967  0.2507 -0.0247
15238W        W30707   8.069  10.373  13.187 -0.1803  0.0369  0.0185
15239W        W30708  16.515   7.044   3.484  0.0488  0.2336 -0.0803
15240W        W30709   9.503   9.178  14.822  0.0746  0.0176  0.2763
15241W        W30710  17.249  11.537   2.287  0.0989 -0.2847  0.1338
15242W        W30711   9.218  17.135  14.086 -0.0188  0.2993  0.1033
15243W        W30712  15.301   6.814  14.327 -0.1627 -0.3335 -0.1053
15244W        W30713  13.451   7.740   2.018  0.0227 -0.1493  0.0032
15245W        W30714   2.741   4.881   4.056  0.1018  0.1206 -0.2156
15246W        W30715   9.384   7.545   2.280 -0.1787 -0.2146  0.1312
15247W        W30716  12.832  11.956  14.630 -0.2659 -0.3399 -0.1253
15248W        W30717   0.083  13.395  12.107  0.0690 -0.0026  0.0097
15249W        W30718  15.642  14.603  11.921 -0.0794 -0.0591  0.0091
15250W        W30719  13.171  16.408  11.160  0.4161  0.1518  0.0207
15251W        W30720   2.895  11.987   0.272  0.3300 -0.1072  0.0963
15252W        W30721   2.599   3.291  10.614 -0.0906 -0.3383  0.1982
15253W        W30722  12.981   1.628  16.295  0.0949  0.0880  0.1161
15254W        W30723   8.371  15.880   5.108  0.0983 -0.0276 -0.0687
15255W        W30724   2.964   3.500   0.491  0.0338 -0.3110  0.1231
15256W        W30725   9.198  11.755   4.081  0.0074  0.0929  0.1083
15257W        W30726  10.127  17.586   4.152 -0.0111  0.1486  0.3237
15258W        W30727  14.546   0.224   4.431  0.1150  0.1279  0.0407
15259W        W30728  16.730   7.512   3.696  0.1338 -0.1420  0.1426
15260W        W30729   2.455   4.879   0.210  0.0724  0.1010 -0.1170
15261W        W30730   6.961   5.586   2.181  0.2554  0.4976  0.0150
15262W        W30731   3.152   4.832   3.210 -0.1538 -0.0133 -0.1399
15263W        W30732  15.566  11.740  12.461  0.1714  0.2000  0.2551
15264W        W30733   6.588  12.166  12.902  0.1436 -0.0081  0.2542
15265W        W30734   5.147   4.843  11.454  0.2385 -0.1298 -0.3665
15266W        W30735   0.931   6.186  14.614 -0.1082  0.1390  0.0917
15267W        W30736  15.784   2.328  14.211 -0.0113  0.0657  0.1651
15268W        W30737   0.850   4.675  15.307 -0.0878  0.1710 -0.1213
15269W        W30738   8.382  16.063  15.645  0.1667  0.1911  0.2893
15270W        W30739  15.782   1.483   3.424  0.0880  0.1475  0.1607
15271W        W30740  13.142   6.351   4.651  0.1679 -0.3069 -0.2448
15272W        W30741   5.695   6.972  12.369  0.1354 -0.1080 -0.1025
15273W        W30742   5.562   9.677   2.981 -0.1202 -0.2728 -0.1662
15274W        W30743  15.333   4.129   0.488  0.3125  0.0501 -0.0765
15275W        W30744   1.396   8.140  16.127  0.2712 -0.1226  0.1494
15276W        W30745   0.336   8.562   4.527  0.1183 -0.1159 -0.1411
15277W        W30746  14.255  11.715   4.224 -0.0886  0.2583  0.3053
15278W        W30747   2.621   3.090  14.154  0.1128  0.0870  0.0172
15279W        W30748   2.225  13.284  15.165  0.2975 -0.1689 -0.0067
15280W        W30749   9.449  16.459  13.442 -0.1471  0.0152 -0.0157
15281W        W30750  15.646   4.114  11.114 -0.2327  0.3052  0.1079
15282W        W30751   1.327  11.152   5.604 -0.0385  0.2295  0.2231
15283W        W30752  15.391  12.666  12.172  0.1415  0.0413 -0.1872
15284W        W30753  12.062  15.522   1.987  0.3294  0.1702  0.0842
15285W        W30754  17.837  14.785   4.533  0.0816 -0.2178 -0.0896
15286W        W30755  13.376   5.294  10.599  0.0187  0.0074  0.4203
15287W        W30756   2.784  16.850   0.937  0.4840 -0.0281  0.0918
15288W        W30757   9.931   7.421   0.875 -0.0413 -0.0465 -0.0546
15289W        W30758  16.522  11.074   2.916 -0.2359  0.3039  0.2095
15290W        W30759  11.198   1.993   2.692 -0.1740 -0.0676 -0.1124
15291W        W30760   8.035   6.708   5.234  0.4031  0.0411  0.0589
15292W        W30761   2.480   5.486  11.226  0.2544 -0.0787  0.1942
15293W        W30762  12.290   6.435  12.864  0.0576 -0.1502  0.0987
15294W        W30763  17.428  11.993   3.940  0.4244  0.0774  0.0812
15295W        W30764  16.917   7.373   0.749  0.3109  0.0590 -0.0128
15296W        W30765   5.776   4.290   3.935 -0.0073 -0.1565 -0.1329
15297W        W30766   0.955   5.944   0.938  0.0749  0.0906  0.2544
15298W        W30767  16.157  10.347   0.593 -0.0898  0.0152  0.0021
15299W        W30768   7.970  17.003   1.407 -0.0380 -0.1057 -0.2573
15300W        W30769   3.952  10.186   1.940 -0.2425 -0.2630 -0.0035
15301W        W30770   9.250  16.783   3.107  0.0877 -0.1834  0.1917
15302W        W30771   8.726  17.419  11.586 -0.2661 -0.0589  0.1490
15303W        W30772   7.349   2.412   4.425 -0.1661  0.2487 -0.0948
15304W        W30773  11.193   3.539  12.345 -0.0404 -0.0904  0.1350
15305W        W30774  13.380   1.866   3.927 -0.1618  0.0842  0.1647
15306W        W30775  17.553  12.712  12.253  0.0733 -0.0126  0.2867
15307W        W30776   5.981  12.197  12.093 -0.2537  0.1816 -0.1289
15308W        W30777   7.769  13.156  16.235  0.0675  0.2614  0.1341
15309W        W30778  10.700  16.875   3.210 -0.1736 -0.1367 -0.2484
15310W        W30779   7.147  15.990   3.846  0.1146  0.1468 -0.2756
15311W        W30780  16.072   8.050  15.795  0.0359  0.0867 -0.0164
15312W        W30781   2.487  10.028  13.266  0.0463  0.1623  0.0704
15313W        W30782   3.513  13.544   3.605  0.0951  0.2048 -0.0028
15314W        W30783   3.203   2.439   5.063  0.3252  0.0908 -0.1151
15315W        W30784   8.530  11.341  14.381 -0.0044 -0.0076 -0.0241
15316W        W30785  10.745  15.692  15.508  0.1813 -0.2315  0.1727
15317W        W30786   9.468   3.606  15.401  0.2122 -0.3058 -0.0084
15318W        W30787   6.787   1.397   5.196 -0.1965 -0.1729 -0.0964
15319W        W30788   6.883   3.274   2.162  0.0204  0.1228 -0.1006
15320W        W30789  17.940  12.729   4.081  0.1893  0.0153  0.2728
15321W        W30790  15.374   1.415   3.687 -0.1715  0.0497  0.0226
15322W        W30791   2.741   0.179   2.493  0.0763 -0.0814  0.1370
15323W        W30792  14.615  10.566  10.937 -0.3418  0.0928 -0.2867
15324W        W30793  16.850   9.660   5.129  0.1634 -0.0163 -0.2182
15325W        W30794   9.690   3.552   4.156  0.4289 -0.0490 -0.2023
15326W        W30795  13.953  13.294   5.970 -0.1115 -0.0849 -0.0852
15327W        W30796   5.906  17.831  13.155 -0.0651  0.0619 -0.3102
15328W        W30797   1.664  14.747  16.130  0.2368 -0.2672  0.1587
15329W        W30798  12.810   5.282   1.301 -0.1758 -0.2848 -0.2447
15330W        W30799  16.093   4.661   3.262  0.2866 -0.0990 -0.1025
15331W        W30800   0.609  13.894   1.460 -0.0584  0.2902  0.1132
15332W        W30801   5.178   3.244   4.677 -0.1648 -0.1462  0.0152
15333W        W30802   5.262  15.566   1.840 -0.0101  0.1437 -0.0197
15334W        W30803   3.830   4.267  15.460 -0.1134 -0.1941  0.0761
15335W        W30804  17.034   3.825   1.918  0.1980  0.2454 -0.0279
15336W        W30805   6.245   2.598  15.785 -0.0289  0.0295  0.0394
15337W        W30806   4.860   9.869   0.018 -0.2025 -0.1854 -0.1752
15338W        W30807   7.683   4.925  14.473  0.0309  0.1975  0.0402
15339W        W30808  12.396   3.877   5.297  0.3688 -0.0583  0.0173
15340W        W30809  10.124  17.720  11.644 -0.1272  0.0844  0.2094
15341W        W30810   4.683   1.048  14.977 -0.1790  0.0911 -0.1523
15342W        W30811   8.904  11.432   5.020 -0.0146 -0.0338  0.0332
15343W        W30812  12.632   1.419   0.345  0.0509 -0.3549 -0.1743
15344W        W30813  15.560   0.370   4.478 -0.1569 -0.2541 -0.1233
15345W        W30814  12.780  13.717  14.840  0.1332 -0.2573 -0.1885
15346W        W30815  17.242   4.271   0.816  0.0389  0.2488 -0.0014
15347W        W30816  14.857   2.815  12.162 -0.1290  0.2770  0.0919
15348W        W30817   2.765  17.549   0.132 -0.2388  0.0229  0.1938
15349W        W30818   9.460  15.863  12.401  0.1222 -0.3099  0.0654
15350W        W30819   6.821  10.287  13.605 -0.0919  0.0388 -0.1487
15351W        W30820   9.736  15.251   3.148 -0.1096 -0.1075 -0.1798
15352W        W30821  11.210  11.273   4.303 -0.2826  0.1462  0.1161
15353W        W30822   3.725  16.833   4.562  0.0179  0.2244 -0.1465
15354W        W30823   2.072   3.201   0.776  0.0580 -0.0057  0.1426
15355W        W30824  17.407   9.150  11.662 -0.0185 -0.0268 -0.0489
15356W        W30825  13.048  12.296  10.570  0.1366 -0.0383  0.0707
15357W        W30826  14.427   5.246  15.341 -0.0099 -0.0676  0.1502
15358W        W30827   7.464  16.513  14.185 -0.0560  0.1161 -0.0950
15359W        W30828  12.131   9.745   2.753 -0.0926  0.0003  0.1705
15360W        W30829  15.517  11.377   2.195  0.1953  0.2508 -0.0933
15361W        W30830  10.990   0.198   2.559 -0.0975  0.0234  0.1659
15362W        W30831   5.262  18.009  11.594  0.0201  0.0144  0.0075
15363W        W30832   7.324   6.346   1.777 -0.0262  0.0255 -0.2553
15364W        W30833   6.456   1.935  12.515 -0.2263 -0.1041 -0.0569
15365W        W30834   0.901  13.411   2.279 -0.1773  0.0267  0.1624
15366W        W30835   8.130  11.385   2.407  0.1035 -0.1113  0.1786
15367W        W30836  16.594   9.998   1.525 -0.2631 -0.0343 -0.3490
15368W        W30837  16.335   2.305  12.434 -0.0970 -0.2909 -0.1426
15369W        W30838   6.010   4.623   3.555  0.0924  0.1395 -0.3116
15370W        W30839   1.442  14.118  11.432  0.1385 -0.0117  0.1100
15371W        W30840   9.858  11.803  11.217  0.5131 -0.0358 -0.0180
15372W        W30841   1.338  13.509   1.560  0.0504 -0.1285 -0.2451
15373W        W30842   7.526   7.381  15.581 -0.2255  0.1878  0.0627
15374W        W30843  14.796   4.841  15.251 -0.0984  0.2446 -0.3384
15375W        W30844  15.202  15.937   5.619  0.0945  0.4970 -0.1229
15376W        W30845  13.876   7.929   2.188 -0.1363  0.0260  0.1021
15377W        W30846   7.192  15.137   0.712 -0.0197  0.1524 -0.2305
15378W        W30847  15.512  15.456  11.276 -0.1597 -0.1619  0.1828
15379W        W30848   5.464   5.353   3.053 -0.0218 -0.0205 -0.1899
15380W        W30849   6.358   2.115  13.713  0.1123 -0.2111 -0.3208
15381W        W30850   9.463   4.111  13.847  0.0681  0.0019 -0.1219
15382W        W30851  14.657  11.941  11.866 -0.1376  0.0415  0.1584
15383W        W30852   6.925  15.519   1.362 -0.3049 -0.0285 -0.0289
15384W        W30853   8.802   2.206  12.694  0.0795 -0.4789 -0.0433
15385W        W30854  11.395   6.281   3.447  0.2942  0.0646 -0.1113
15386W        W30855  11.505   9.236  11.098  0.1746 -0.0749 -0.1505
15387W        W30856   9.521   0.808  15.715  0.0008 -0.2709  0.0114
15388W        W30857  11.675   2.165  13.670  0.2584 -0.0184  0.2818
15389W        W30858   1.335   9.681   1.677  0.2657 -0.0392 -0.0323
15390W        W30859  11.083  13.892   3.555 -0.0498 -0.2605 -0.0176
15391W        W30860  14.817   5.352   3.925 -0.0992 -0.0911  0.0866
15392W        W30861   2.943   8.766  15.652 -0.2615 -0.3024 -0.0683
15393W        W30862   6.311   5.562   1.394 -0.1718  0.4018  0.3047
15394W        W30863  13.353   6.802   2.866 -0.0977 -0.0603 -0.1228
15395W        W30864   5.613   0.718   5.012  0.1067 -0.2442  0.0867
15396W        W30865   2.276   0.770  16.056 -0.0281 -0.2567 -0.2517
15397W        W30866   2.895   8.487   0.895 -0.0081 -0.2325 -0.3279
15398W        W30867  14.392   6.355  15.424  0.1732 -0.1359 -0.0937
15399W        W30868  15.613   9.782   1.954  0.0216  0.1388  0.0622
15400W        W30869  11.217   3.330  14.338  0.0904  0.3219  0.2401
15401W        W30870  13.674   5.265   0.078 -0.0140 -0.3808 -0.0012
15402W        W30871  13.316   2.551  15.371 -0.0420  0.0818  0.0826
15403W        W30872   2.174   6.862   2.766 -0.1076 -0.2390  0.3075
15404W        W30873   1.078   3.393  11.145  0.0197  0.2065 -0.2324
15405W        W30874  13.657   4.239   5.404 -0.0024 -0.1162  0.1678
15406W        W30875   4.145   2.615  12.708 -0.0197 -0.0359 -0.0656
15407W        W30876   5.484   4.242  11.557 -0.0800  0.0225 -0.0179
15408W        W30877   1.871   1.763  12.295  0.2290  0.1190  0.1652
15409W        W30878   9.660   1.736  12.383  0.0079  0.3846  0.0187
15410W        W30879  14.631   3.837   0.434  0.1019 -0.2324 -0.4272
15411W        W30880  10.471   2.899  12.539 -0.0083 -0.1213 -0.1320
15412W        W30881  10.216   0.618   2.708  0.0216  0.1396  0.1632
15413W        W30882   8.506  16.863   5.049  0.1824  0.2615 -0.0987
15414W        W30883  10.821  14.444  11.369 -0.0240 -0.1354 -0.1026
15415W        W30884  15.599  13.295   3.003 -0.1308 -0.2224 -0.1276
15416W        W30885   4.260   1.268   0.667 -0.1366  0.2164  0.1156
15417W        W30886  14.793   8.580   1.620  0.1051  0.3975 -0.1003
15418W        W30887  11.086   1.321  12.220 -0.0048 -0.2202 -0.0978
15419W        W30888   9.884  14.499   5.372 -0.3136  0.0291 -0.2022
15420W        W30889  10.130  14.181   4.715 -0.2335 -0.0298 -0.2268
15421W        W30890  13.836   3.410   0.051  0.1123 -0.2296 -0.2490
15422W        W30891   1.703  14.671  14.287 -0.1749 -0.0585  0.0248
15423W        W30892  15.321   4.537   5.757  0.2078 -0.0228 -0.0269
15424W        W30893   9.639  11.810   4.806  0.1252 -0.1492  0.0297
15425W        W30894   6.457   2.594   4.227  0.0970  0.1650  0.1268
15426W        W30895   9.092   2.312  13.548 -0.0435 -0.0588  0.1779
15427W        W30896   7.330   6.247   0.231  0.2033 -0.2246  0.0346
15428W        W30897   6.482   8.712   0.350  0.0920  0.2386  0.0351
15429W        W30898   1.949   3.905  13.446  0.0985 -0.0396 -0.0731
15430W        W30899  10.020   8.441  13.597 -0.0448 -0.0317 -0.1332
15431W        W30900   0.788   9.661  11.957 -0.0794  0.4329  0.0914
15432W        W30901   8.896  10.982  12.640  0.3500  0.1086  0.0229
15433W        W30902   1.988   3.084   4.023 -0.1233  0.0999  0.0270
15434W        W30903  11.547   1.135  13.260  0.0582 -0.0546 -0.0339
15435W        W30904   3.716   6.427   4.282  0.0835  0.2035  0.1392
15436W        W30905   6.563  16.926   1.535  0.0921 -0.3076  0.1183
15437W        W30906   5.674  17.443  14.907 -0.1318 -0.2345 -0.1877
15438W        W30907   1.713  12.250   3.498  0.0259 -0.0753  0.0499
15439W        W30908   6.490  11.505   1.905 -0.0415  0.0133 -0.0986
15440W        W30909  11.243  14.022  14.541  0.0494 -0.0021 -0.0064
15441W        W30910   6.406   3.385  16.286  0.1098  0.1072 -0.1275
15442W        W30911  14.051  14.533  11.417 -0.2311 -0.0598 -0.1215
15443W        W30912   7.274   3.765   0.772  0.1389  0.0329 -0.0699
15444W        W30913  17.898   4.263   2.287 -0.1405  0.1938 -0.3093
15445W        W30914   0.244   3.189  15.242 -0.2875 -0.1309 -0.0558
15446W        W30915   1.210   1.319  13.930  0.3073  0.1067 -0.0709
15447W        W30916  15.522   5.356   3.275  0.3062  0.0591 -0.0611
15448W        W30917  10.131   3.513   5.444 -0.2144  0.0661  0.3140
15449W        W30918   7.037   1.840  12.300 -0.2331 -0.0419 -0.0363
15450W        W30919   8.009   3.214   3.564  0.1011 -0.0155 -0.2873
15451W        W30920  17.077   4.074   1.361 -0.3124  0.0001 -0.2322
15452W        W30921   4.054  11.691  14.795 -0.0834  0.2625 -0.1984
15453W        W30922  16.281  10.415   4.897  0.1137 -0.1950  0.2042
15454W        W30923  10.072   1.883  12.637 -0.2255  0.2221 -0.1378
15455W        W30924   6.163   1.188   3.683  0.1000 -0.0691  0.0260
15456W        W30925   8.844   0.652   4.006  0.2511 -0.0754 -0.3183
15457W        W30926  10.640   0.372   3.317 -0.1057 -0.1211  0.0034
15458W        W30927  12.519   8.472   3.823 -0.1911 -0.0515 -0.0747
15459W        W30928  17.911   0.049  15.588  0.1587  0.1328  0.0799
15460W        W30929   9.683  14.418   3.389 -0.0318 -0.0549  0.4890
15461W        W30930   5.005  15.230   4.894  0.0511 -0.1850  0.2665
15462W        W30931  12.110  13.095  12.060 -0.0758  0.1149  0.1998
15463W        W30932   5.642   0.726   1.494  0.2353 -0.2535  0.0283
15464W        W30933   0.072   5.734  10.934  0.2119 -0.0311  0.0994
15465W        W30934  17.828  13.820   2.262 -0.0539  0.2401 -0.1492
15466W        W30935  12.797   7.466  13.785 -0.2376  0.2257  0.0461
15467W        W30936  17.152   4.312   1.885 -0.0631 -0.0278  0.0098
15468W        W30937   5.703   7.649  15.654 -0.0727  0.0733 -0.1258
15469W        W30938   4.092   8.557  11.140  0.1364 -0.0626  0.0148
15470W        W30939  13.850   8.314   1.395 -0.0269 -0.0725  0.0478
15471W        W30940   1.604  17.531  14.255 -0.1368 -0.2017  0.1413
15472W        W30941  10.533   5.798   4.410 -0.3581  0.0958  0.0715
15473W        W30942   1.262   5.797   2.648  0.0867 -0.1242  0.4031
15474W        W30943  12.694   3.570   1.969 -0.2675 -0.2170  0.0370
15475W        W30944  13.197   2.996   4.288 -0.2369  0.0744  0.4358
15476W        W30945  13.392  11.057   5.419 -0.0342 -0.0067 -0.1303
15477W        W30946  17.070   3.785   6.319  0.0875  0.0757 -0.0851
15478W        W30947  10.400  11.581   1.147 -0.1177 -0.0109  0.0841
15479W        W30948   7.182   5.855  14.444 -0.3509  0.2968 -0.1843
15480W        W30949   5.890   8.110   5.064  0.0348  0.2240 -0.0436
15481W        W30950   0.657  15.985  14.823 -0.3809  0.4125  0.0295
15482W        W30951   7.537  12.184   2.576  0.0710 -0.0644  0.0081
15483W        W30952  13.501   2.526   0.503  0.3710  0.2971 -0.1450
15484W        W30953   1.106   3.108  10.739  0.1860 -0.0144  0.0101
15485W        W30954   5.931   6.548  14.268 -0.0432 -0.0192 -0.5219
15486W        W30955   3.375   1.292  12.031 -0.2555  0.1183  0.2448
15487W        W30956  10.549  13.265  14.469  0.0503 -0.3823 -0.0233
15488W        W30957  12.633  12.306  14.258 -0.1858 -0.0711 -0.0262
15489W        W30958  14.648   6.815  11.158  0.0153 -0.0284 -0.0359
15490W        W30959  12.121   2.350   1.572  0.0054  0.2125 -0.2031
15491W        W30960   3.477   2.147  14.281 -0.2682 -0.2101  0.0528
15492W        W30961   4.193  11.576  11.964  0.1549  0.0520  0.2647
15493W        W30962  14.058  10.420   0.067 -0.0029  0.1545  0.0861
15494W        W30963   6.180   9.894   3.076  0.2446 -0.0778 -0.0045
15495W        W30964  14.882  14.950  11.359 -0.0577  0.2610 -0.0110
15496W        W30965   1.503  13.196   5.386 -0.0403 -0.2768  0.0911
15497W        W30966   1.297   5.024   4.796 -0.2150 -0.2012 -0.0300
15498W        W30967   7.375   7.669   1.449  0.2715 -0.2475  0.1692
15499W        W30968  13.733  15.957   4.601 -0.0101 -0.1861 -0.0245
15500W        W30969  13.000  12.151   2.959  0.2075 -0.1423  0.1708
15501W        W30970   5.568   5.494  13.539  0.1709  0.0250 -0.1148
15502W        W30971  13.826  12.891   3.975  0.1019  0.1537 -0.0925
15503W        W30972   4.144   1.436   3.465 -0.2006  0.2077 -0.4194
15504W        W30973  10.291   4.208  16.211  0.0168  0.1706  0.2317
15505W        W30974   1.472   1.211   2.627 -0.1925  0.0873  0.1901
15506W        W30975   9.139   6.484   4.493  0.1240  0.0654  0.0869
15507W        W30976  15.279   7.981   4.372 -0.2969 -0.1701  0.3353
15508W        W30977   3.362  16.370  14.099  0.1242 -0.0925 -0.3665
15509W        W30978   1.107  14.626   1.432  0.1230 -0.1274  0.0059
15510W        W30979   7.865  13.041  11.822  0.0029  0.1899 -0.4613
15511W        W30980  13.066  12.308   2.150  0.3716 -0.0471 -0.0758
15512W        W30981  14.828   7.526  11.951 -0.2948 -0.4016  0.0181
15513W        W30982  12.113  17.376  13.855  0.0980  0.1929  0.1797
15514W        W30983   0.444   2.412   2.780  0.2569 -0.0394  0.4485
15515W        W30984   7.205  16.315  15.594  0.1296 -0.2121  0.0704
15516W        W30985   8.059   4.506   0.333  0.0708 -0.0822 -0.1103
15517W        W30986  16.291   5.424  10.954  0.1293 -0.1714 -0.1840
15518W        W30987   0.842   8.710  13.532  0.2180 -0.1072  0.0470
15519W        W30988   6.787   4.363  11.538 -0.0910  0.0664 -0.0762
15520W        W30989   6.102  11.799   0.568  0.2415  0.2154 -0.1606
15521W        W30990  11.551  15.539   4.100  0.0895 -0.1041  0.1914
15522W        W30991   6.852   5.407   2.980  0.4133  0.0317  0.1214
15523W        W30992  11.368   5.729  12.217 -0.2654 -0.0851 -0.3500
15524W        W30993   2.800  17.876  13.277  0.0908 -0.0281 -0.1054
15525W        W30994  15.359   7.331  11.631 -0.1162  0.3687  0.0563
15526W        W30995   8.689   4.656  10.941 -0.1406  0.0111  0.0986
15527W        W30996  14.123  13.669   4.138  0.0768  0.1500 -0.0181
15528W        W30997   0.921   0.160  12.451  0.1454  0.1375  0.0654
15529W        W30998  10.828   6.832   3.781  0.1337  0.1990 -0.0665
15530W        W30999  17.481  14.843   0.422  0.0050  0.0492  0.0831
15531W        W31000   6.264  10.270  11.286  0.2182  0.1376 -0.1149
15532W        W31001  14.923   3.413  15.129 -0.1677 -0.0135 -0.1546
15533W        W31002   7.489  17.943  11.175  0.0835 -0.1282 -0.2909
15534W        W31003   6.883   1.811   4.709  0.2484 -0.0296  0.1822
15535W        W31004   2.557  16.715  13.733 -0.2857 -0.1967  0.3771
15536W        W31005   1.290   3.269   5.108 -0.1254  0.0153  0.1849
15537W        W31006   0.897  14.743  13.005  0.0504  0.1111 -0.0885
15538W        W31007  18.046   9.264   6.054  0.1476  0.0241 -0.1067
15539W        W31008  11.926   5.199  15.195 -0.1423  0.0244 -0.0208
15540W        W31009  15.138   0.032  15.185 -0.1572 -0.0745 -0.1214
15541W        W31010   4.712   3.588   3.210 -0.1364  0.4903 -0.0609
15542W        W31011   2.296  11.172   5.721 -0.2853 -0.2965 -0.4381
15543W        W31012   1.360   9.466   0.745 -0.1778  0.2167  0.1437
15544W        W31013   6.858  14.073  13.052 -0.0517 -0.1445  0.0085
15545W        W31014   4.494  13.446  13.136 -0.0509 -0.1526 -0.2308
15546W        W31015   0.426   5.490  14.945  0.1521 -0.0130  0.1818
15547W        W31016   3.725   7.955  14.258 -0.2166  0.2457  0.2204
15548W        W31017   7.836  17.113  13.265  0.0782  0.0885  0.0150
15549W        W31018   5.155   9.132   5.147  0.2565 -0.1586  0.0733
15550W        W31019  10.692   6.026  10.428  0.0308 -0.0746 -0.3446
15551W        W31020   6.463   1.025   1.389  0.0185  0.1743  0.1268
15552W        W31021  16.441  12.265   4.680  0.1638  0.0727  0.1562
15553W        W31022   8.279  13.841  14.695  0.0571  0.2350 -0.2953
15554W        W31023  11.758  13.901   5.033  0.1493  0.2884 -0.3785
15555W        W31024   1.136   6.700  15.038  0.1898 -0.0767 -0.0238
15556W        W31025   9.214  12.754   2.189 -0.1513  0.0980 -0.3462
15557W        W31026  16.306   2.062   1.010 -0.1526 -0.1415  0.1299
15558W        W31027   3.922   5.087   3.781  0.2107  0.2660 -0.0484
15559W        W31028   1.800  10.479   3.128  0.2020  0.0082  0.1234
15560W        W31029  10.151  12.313   3.151 -0.2718  0.0119  0.1639
15561W        W31030   8.987  14.763  15.264 -0.0531  0.1351 -0.2998
15562W        W31031  16.150  10.983   4.215 -0.0684 -0.1016  0.3069
15563W        W31032   4.000   2.281   3.578 -0.2225  0.2812  0.0521
15564W        W31033   4.265  12.269   1.109  0.0294 -0.1754  0.0659
15565W        W31034  17.155   8.287  14.909 -0.1379  0.0240  0.1733
15566W        W31035  15.266  12.370   2.370  0.2308  0.1189  0.1626
15567W        W31036  11.533   5.939  11.666 -0.0369 -0.1937  0.0664
15568W        W31037  17.243  14.380  14.478 -0.1218  0.1337  0.3029
15569W        W31038   2.101   6.950  14.459  0.1817  0.5949 -0.1450
15570W        W31039   1.769   7.310  14.608 -0.0036  0.1213  0.0751
15571W        W31040  16.628  10.209  11.802  0.0099  0.0673 -0.0823
15572W        W31041  17.302  13.444   3.741  0.0142  0.1738 -0.0801
15573W        W31042   3.082  13.795   3.321 -0.0823 -0.0287  0.0341
15574W        W31043   0.248   9.788   3.934  0.1840  0.1051 -0.1793
15575W        W31044   5.985   3.745   1.160 -0.0618 -0.1301  0.1316
15576W        W31045  15.594  15.014  12.278 -0.1386  0.2292  0.2243
15577W        W31046  12.239   2.781  15.240 -0.2572  0.2110 -0.1160
15578W        W31047  13.319  12.202   4.441  0.1101 -0.1286  0.0088
15579W        W31048  15.723   6.761  12.520 -0.2630 -0.1683  0.3051
15580W        W31049   3.213   7.991   4.129  0.1189  0.1142 -0.2592
15581W        W31050   1.404  15.548  15.396  0.1256  0.1649  0.4631
15582W        W31051   7.660  14.420   5.369  0.1287 -0.1297  0.2441
15583W        W31052   6.671   6.329  15.696  0.0885 -0.1472 -0.1157
15584W        W31053   8.291   7.351   1.934  0.0147 -0.0205  0.1859
15585W        W31054   0.736   3.583   3.968 -0.2723  0.0626  0.0891
15586W        W31055   3.727   4.066   1.466 -0.0246 -0.4059 -0.1284
15587W        W31056   4.682   4.479  15.793  0.2962 -0.0620 -0.0970
15588W        W31057   3.442  13.911   0.734 -0.2962  0.2381 -0.1367
15589W        W31058  16.789   6.132   5.894  0.0848 -0.0020 -0.3543
15590W        W31059  14.481  13.138  15.746  0.1907  0.2163 -0.0191
15591W        W31060   3.122   7.184   4.601 -0.1350 -0.1255 -0.4416
15592W        W31061  14.326  10.819   2.192 -0.0053 -0.1079  0.0527
15593W        W31062   6.091  15.991   0.353 -0.2969  0.1098 -0.0508
15594W        W31063  12.373   8.601   5.430  0.1471  0.2140  0.0911
15595W        W31064   0.794   1.768   1.962  0.0393  0.1513 -0.0265
15596W        W31065  11.719  12.781   1.475  0.2491 -0.1698  0.0476
15597W        W31066   9.708  12.700   5.027 -0.0690  0.0117  0.1077
15598W        W31067   1.056  15.759   2.785  0.0283  0.1411  0.0338
15599W        W31068  13.781  11.937  11.640  0.1232  0.2117  0.0770
15600W        W31069   4.679   7.294   4.830 -0.2651  0.0677 -0.2253
15601W        W31070   2.389  16.916  15.853  0.3917  0.1432  0.1392
15602W        W31071  14.168  17.674  12.560 -0.0828  0.1464  0.2833
15603W        W31072  17.707   9.607  15.548 -0.1841  0.1379  0.1548
15604W        W31073   2.932  12.240  13.509 -0.2960 -0.2803 -0.0128
15605W        W31074   5.645   4.894  13.330 -0.1414 -0.2540 -0.0274
15606W        W31075   2.962   6.275  14.093 -0.0022  0.0518 -0.2008
15607W        W31076   1.203  10.311   3.350  0.1516 -0.0747  0.2405
15608W        W31077   0.549   8.414   0.737 -0.0882 -0.0505  0.2544
15609W        W31078   6.508  12.014   1.944 -0.0796  0.2965 -0.0969
15610W        W31079  13.039  11.764   3.337  0.0065 -0.2069  0.1257
15611W        W31080  13.247  11.944   0.690  0.2631  0.0824  0.0594
15612W        W31081  14.831  14.558  13.844  0.3343 -0.1800 -0.0244
15613W        W31082  12.729   7.941   0.209  0.1756  0.3406 -0.2761
15614W        W31083  12.008   2.994  13.474  0.0053 -0.0934 -0.0218
15615W        W31084  13.053   4.418   1.954 -0.0778 -0.1559 -0.3474
15616W        W31085   7.411   6.481   0.721 -0.0064  0.0858 -0.2943
15617W        W31086   3.387  17.855   2.649  0.0337 -0.0231  0.5854
15618W        W31087   7.139  17.506  16.087 -0.3805  0.2091  0.0250
15619W        W31088   0.294  13.515  12.934 -0.0184  0.0625  0.1501
15620W        W31089  15.380  10.448   0.240  0.3699  0.2217 -0.1025
15621W        W31090  12.715  16.224   2.416  0.1256 -0.2346 -0.1007
15622W        W31091  10.554  12.002  11.893  0.1993  0.1597  0.0173
15623W        W31092  13.492   6.574  15.298  0.0567 -0.4765 -0.0919
15624W        W31093   2.566   0.958  15.374 -0.1386  0.1684 -0.1847
15625W        W31094  15.267   0.736   2.444 -0.3764  0.0771 -0.1192
15626W        W31095   6.891   5.208   2.501 -0.0114  0.1448 -0.0769
15627W        W31096   8.085   9.979  11.710  0.4427 -0.1225 -0.0569
15628W        W31097   8.756   5.541   4.020  0.1927  0.1271  0.1678
15629W        W31098  10.597   5.890  16.075 -0.1844  0.0229  0.0423
15630W        W31099  14.185   1.078   0.144  0.1224  0.0056 -0.0129
15631W        W31100  10.431   1.720   5.908  0.0450  0.0986 -0.2688
15632W        W31101   2.306   5.451  12.284  0.0137  0.0930 -0.2481
15633W        W31102   6.989  12.103  11.303  0.3316 -0.0150 -0.1617
15634W        W31103   4.067   8.088   3.252 -0.1564  0.0236  0.1774
15635W        W31104   8.442   4.250   4.445  0.0068  0.0693  0.1837
15636W        W31105   4.663  16.375   4.357 -0.3466  0.2187  0.1209
15637W        W31106   1.082   4.825  14.516  0.3394  0.1158 -0.1782
15638W        W31107   5.302  10.109  16.200  0.1249 -0.0101 -0.0219
15639W        W31108   1.216   3.836   0.969 -0.0473 -0.2051  0.1543
15640W        W31109   3.603   8.492   2.636  0.1654  0.2584  0.2753
15641W        W31110  10.426   2.304   3.840  0.0514 -0.0002 -0.2219
15642W        W31111   0.220  11.512  14.066  0.0902 -0.3602  0.0503
15643W        W31112   3.263   1.809   0.277 -0.1478 -0.0581 -0.2393
15644W        W31113  13.669  16.540   1.254  0.1533  0.1273 -0.2648
15645W        W31114   7.040   3.609  15.680 -0.0994 -0.0916 -0.2298
15646W        W31115   9.970   4.953   2.949 -0.1041 -0.0334  0.0347
15647W        W31116   2.242   0.554  13.459 -0.0863 -0.3745  0.0824
15648W        W31117  13.404  17.141   2.913 -0.1836 -0.1228 -0.1264
15649W        W31118  16.052  12.522  13.007 -0.0085  0.1103 -0.3127
15650W        W31119   2.832  10.914  12.170 -0.2052  0.0775 -0.0126
15651W        W31120   3.583   1.280   1.800 -0.0032  0.1738  0.0915
15652W        W31121  17.985  15.473  11.965  0.1301  0.0138  0.1432
15653W        W31122   5.763   4.495   1.008  0.0346  0.0729 -0.1405
15654W        W31123  16.019   8.112  15.057 -0.0823 -0.0118 -0.0089
15655W        W31124  14.714   8.238   3.189 -0.2645 -0.2226  0.0387
15656W        W31125   1.695  17.153  12.504 -0.3591 -0.1896 -0.0895
15657W        W31126   4.102  15.089   3.662  0.0720 -0.0686 -0.0171
15658W        W31127   6.883  16.349  15.199 -0.0614  0.2565  0.0764
15659W        W31128   1.611  14.132  10.942 -0.0073 -0.1137 -0.0596
15660W        W31129   0.290  11.208  15.530  0.0097  0.1668 -0.1035
15661W        W31130   7.870   4.386  15.667 -0.3241  0.1741 -0.0303
15662W        W31131   3.765   3.564   2.114 -0.1221 -0.1917  0.0924
15663W        W31132   7.626   4.110  14.639  0.0410 -0.2387  0.1756
15664W        W31133   2.716   5.690  12.097  0.2596  0.1381  0.1607
15665W        W31134  12.869   7.571   2.364  0.1688 -0.1593  0.0127
15666W        W31135  14.309   6.773   0.418  0.0084 -0.1138 -0.0006
15667W        W31136   2.621  11.856   4.758  0.2156 -0.1672 -0.2648
15668W        W31137  16.845  15.725  12.727  0.0121 -0.1839  0.0422
15669W        W31138  15.804   7.501  11.897  0.1553  0.3647  0.1299
15670W        W31139   6.275   1.774  14.962  0.0764  0.1573  0.2537
15671W        W31140   6.764  15.078   1.242 -0.0890  0.1337 -0.3350
15672W        W31141   5.817   0.423  10.719 -0.1814 -0.1626  0.0400
15673W        W31142   3.393   9.429   5.244  0.0428 -0.0259  0.1870
15674W        W31143  13.486   4.351   5.886 -0.0257  0.1852  0.2589
15675W        W31144  11.003  17.273   5.264  0.2995 -0.1952  0.0701
15676W        W31145   0.334   9.454  14.971 -0.5500 -0.0522  0.1051
15677W        W31146   4.448  10.451  12.859  0.1289 -0.2028  0.1784
15678W        W31147  11.060  13.569  13.732  0.1548  0.1656  0.0872
15679W        W31148  11.340  14.958   3.186  0.1384 -0.1171 -0.1348
15680W        W31149  15.890  14.341  15.651  0.0268 -0.0337  0.0927
15681W        W31150   2.124   0.100   0.751  0.2238  0.1270 -0.0121
15682W        W31151  15.170  17.497  14.035 -0.2354  0.0768 -0.0639
15683W        W31152   4.305  13.144   2.647 -0.0031 -0.2978  0.0197
15684W        W31153   3.485  17.861  12.646  0.1199 -0.0271 -0.0541
15685W        W31154  13.419   7.907   0.167  0.2247 -0.1766 -0.0326
15686W        W31155  17.919  14.307   1.218  0.3962  0.1382 -0.0644
15687W        W31156  17.168   7.441  11.860 -0.1417  0.2684 -0.1611
15688W        W31157  16.911   8.283   3.242 -0.0738  0.0419  0.0740
15689W        W31158  10.652  17.987   0.315  0.0886 -0.1142 -0.3648
15690W        W31159  11.134  15.754   4.354  0.2520  0.0856 -0.1065
15691W        W31160   1.611  15.118  11.081  0.0766 -0.1118 -0.0618
15692W        W31161   5.395  12.164   4.838 -0.0876  0.2035  0.2366
15693W        W31162   4.970   3.132   0.754 -0.0849 -0.3201  0.1366
15694W        W31163   8.180  11.683   6.163  0.0614  0.1127 -0.0917
15695W        W31164  15.127   0.569   3.652 -0.0370  0.0807  0.1793
15696W        W31165   3.051   0.941   3.361 -0.1938  0.3302 -0.1971
15697W        W31166  14.612   3.031  15.334 -0.0407 -0.1791  0.1158
15698W        W31167  16.147   1.879   3.603 -0.1179 -0.0591  0.2240
15699W        W31168   0.545  15.951  15.354  0.1541  0.0413  0.1323
15700W        W31169   3.824   5.953  10.765  0.1549  0.0599 -0.1445
15701W        W31170   3.377  10.386  15.666  0.0783 -0.1402  0.2129
15702W        W31171   7.247  14.675  14.793 -0.3530  0.0554 -0.2063
15703W        W31172   3.111  13.956   2.576  0.0526 -0.0558  0.0607
15704W        W31173  10.193   6.427  13.779  0.1416 -0.2124 -0.0485
15705W        W31174  15.157  16.751  14.570  0.3790  0.3203  0.1051
15706W        W31175  16.207  13.627  15.036  0.2555  0.0474  0.2548
15707W        W31176   8.486   6.997   5.358 -0.0359 -0.1968 -0.0340
15708W        W31177   0.982  10.001  12.194 -0.0342  0.0886 -0.0538
15709W        W31178   8.398  17.043  12.432  0.2479 -0.2552  0.2399
15710W        W31179   7.992  16.574   3.833  0.1996  0.0763  0.1357
15711W        W31180  15.720   4.872  11.657 -0.2134  0.1165  0.6534
15712W        W31181   1.519  14.696   2.790 -0.1251 -0.2234 -0.1133
15713W        W31182   5.760  15.641   0.538  0.1353  0.0458 -0.1633
15714W        W31183   1.702  14.866   3.262 -0.1397 -0.0454  0.0896
15715W        W31184   5.937   2.977  16.275 -0.0268  0.2566 -0.2318
15716W        W31185   4.511   5.373   1.462 -0.0701 -0.0386 -0.4182
15717W        W31186   5.338   0.458  14.722  0.3353  0.3714  0.1337
15718W        W31187  17.926  13.445  15.234 -0.0156 -0.0845 -0.1575
15719W        W31188   1.202   5.239   1.902  0.0748 -0.0293  0.1368
15720W        W31189  12.681  11.727  11.791 -0.1896 -0.1055  0.0999
15721W        W31190   5.914  11.200  13.710 -0.1715 -0.1706  0.1012
15722W        W31191   9.788  17.639   3.788 -0.0307 -0.0354 -0.1444
15723W        W31192  17.959   5.685  13.636  0.1602  0.0352  0.3140
15724W        W31193   5.810  12.630   2.637 -0.0918  0.0684  0.1623
15725W        W31194  13.345  17.518  16.272 -0.3552  0.2087  0.1073
15726W        W31195   6.843   5.008  12.334 -0.2133  0.1230 -0.1458
15727W        W31196   0.224   4.621   0.827 -0.0385 -0.2635 -0.0389
15728W        W31197   7.750   8.491  11.111 -0.0445  0.0585  0.0898
15729W        W31198   6.146  17.717  10.702  0.1224  0.2440 -0.0332
15730W        W31199   8.719  10.731  13.069  0.1623 -0.1105  0.0827
15731W        W31200   2.753  14.846   1.761  0.0572 -0.0213  0.0659
15732W        W31201   8.390   6.244   4.937 -0.3086 -0.2912  0.2025
15733W        W31202  11.620  12.437  15.873  0.1049 -0.0865 -0.1119
15734W        W31203  16.783  13.089  13.308 -0.1613 -0.1129 -0.0854
15735W        W31204  16.273   7.281  16.231 -0.1575  0.0604 -0.0884
15736W        W31205   5.905  17.598   0.275  0.0909  0.3276 -0.0278
15737W        W31206   9.506  13.395   2.278  0.3305  0.3646  0.2912
15738W        W31207  13.145   8.826   0.437 -0.1755  0.1081  0.1637
15739W        W31208  10.982   9.871  12.099 -0.2548  0.0855  0.1656
15740W        W31209   9.520   9.899  12.097  0.0224 -0.5861  0.1141
15741W        W31210   7.097  13.373   1.095 -0.1493  0.2605  0.3768
15742W        W31211  17.085  12.282   2.951 -0.0343  0.1317  0.2272
15743W        W31212   7.821  14.942   4.275 -0.3226  0.0542  0.2061
15744W        W31213   7.184   8.709   2.255  0.1318 -0.0571  0.4285
15745W        W31214  11.403  15.663  16.143 -0.2050 -0.2229  0.2144
15746W        W31215  15.311   6.281   3.234  0.0147  0.1833  0.0893
15747W        W31216   3.360   2.873  14.814  0.1150  0.0459 -0.1944
15748W        W31217   7.005  16.124   5.662 -0.0860  0.2073 -0.2743
15749W        W31218   3.091  11.544  13.890  0.3377  0.2631 -0.0667
15750W        W31219  13.965   7.339   2.907  0.1662  0.1219 -0.1020
15751W        W31220  13.669  14.337  15.728 -0.0933 -0.0343 -0.1473
15752W        W31221   9.305  13.636   5.554  0.2405 -0.0365  0.0942
15753W        W31222   0.951  18.004  14.690 -0.1180 -0.1320 -0.1059
15754W        W31223   0.127   5.000   2.834  0.1210  0.2121  0.0849
15755W        W31224   4.404  13.561  11.230 -0.2427  0.4322  0.0811
15756W        W31225   2.164  10.872   1.853  0.1608 -0.1706 -0.1830
15757W        W31226  12.080  14.768  12.055  0.0303  0.2014  0.1890
15758W        W31227  14.509  17.501  14.713  0.0462 -0.1726 -0.2163
15759W        W31228  14.180  12.911   3.629 -0.0584 -0.1942 -0.0199
15760W        W31229   6.825  10.055  12.802  0.1862 -0.1356  0.0494
15761W        W31230   6.930  17.746  15.603  0.0458 -0.0239  0.3145
15762W        W31231   6.301   1.447   1.224 -0.0584  0.0291 -0.0734
15763W        W31232  17.040   6.381   4.509 -0.1846 -0.0289  0.0696
15764W        W31233   0.145  17.269  11.476  0.0189 -0.1876  0.2564
15765W        W31234   6.935  17.701   5.830 -0.1847  0.1926  0.1396
15766W        W31235   1.052   5.298   5.207  0.0575  0.1919 -0.2273
15767W        W31236   3.994  10.038   0.895  0.0677 -0.0565  0.2511
15768W        W31237   0.173   3.632  14.910  0.4812 -0.1625 -0.0288
15769W        W31238   0.930  17.789  12.071  0.2197 -0.0557  0.0251
15770W        W31239  11.872   4.628  12.966  0.0482  0.4163 -0.0834
15771W        W31240  15.656  16.953  13.362 -0.0439 -0.1278 -0.1271
15772W        W31241   2.239   1.735   3.001 -0.0275  0.2470  0.1142
15773W        W31242   6.772  13.095   4.585  0.1529 -0.0943 -0.0224
15774W        W31243  11.379  17.252   0.040 -0.1751  0.1694  0.1846
15775W        W31244   9.689  11.969   5.809 -0.1900 -0.0182 -0.1523
15776W        W31245   9.374   1.782   3.085  0.0772  0.0416  0.0578
15777W        W31246   5.797   1.416  14.112  0.1817  0.0431  0.2690
15778W        W31247   8.821   5.989  11.770  0.0449  0.0388  0.0763
15779W        W31248   8.284  17.805   0.076  0.2640 -0.1280 -0.0029
15780W        W31249  15.622  17.095   5.701  0.1061 -0.1117  0.1284
15781W        W31250   8.726   7.104   3.046 -0.0146 -0.0296 -0.2830
15782W        W31251  15.504   6.778   0.955 -0.1059 -0.0182 -0.1204
15783W        W31252   9.354  17.881   3.920 -0.2118 -0.0698 -0.2456
15784W        W31253   1.024   5.511  16.245 -0.2852  0.2929  0.0365
15785W        W31254  13.950   7.202  13.399  0.1162 -0.0152 -0.0123
15786W        W31255   4.410  13.747   4.308 -0.0957 -0.1689 -0.0102
15787W        W31256   7.589   8.332   1.411  0.1936 -0.1046 -0.0219
15788W        W31257  17.034  14.073  11.825 -0.0688  0.2281  0.3467
15789W        W31258   8.815   1.652   3.909 -0.1054  0.1492  0.3002
15790W        W31259   1.036  10.944  12.462  0.1402  0.1411  0.1259
15791W        W31260  10.281   9.012  12.995  0.0913  0.0794  0.0281
15792W        W31261  11.734   0.744   4.122  0.1641 -0.1798 -0.1490
15793W        W31262   1.082  13.958  11.787 -0.0825  0.3351  0.0685
15794W        W31263  10.719   0.924   4.276 -0.1118 -0.1697 -0.0405
15795W        W31264  13.836   1.152  15.844  0.2229 -0.2123  0.1809
15796W        W31265  12.020  16.400  15.295 -0.3417 -0.1321  0.1341
15797W        W31266  12.585  14.502   4.511  0.0655  0.0120  0.1145
15798W        W31267  14.676  15.815   2.040  0.2429 -0.1931 -0.1875
15799W        W31268   5.181  10.412   0.647  0.0782  0.2077  0.0476
15800W        W31269  14.795   4.291   3.551 -0.0122  0.2802  0.0251
15801W        W31270   6.551  12.341   3.890  0.2361  0.2610  0.0563
15802W        W31271   0.272  13.138   0.421 -0.0334  0.2871  0.1571
15803W        W31272   6.823   3.482  14.460 -0.1235 -0.3739  0.0501
15804W        W31273  12.318  12.126   5.372 -0.0373  0.0926 -0.2075
15805W        W31274   3.309  13.115  11.349 -0.2214  0.3701 -0.2641
15806W        W31275   4.022   0.553  12.266  0.1327  0.0087 -0.1439
15807W        W31276   9.609  16.036   0.885  0.3329  0.0095  0.2401
15808W        W31277  11.461  16.490   5.363  0.1059 -0.0450 -0.0270
15809W        W31278  10.468   8.515   3.204 -0.2892  0.0810 -0.2035
15810W        W31279  17.411   5.606   3.596  0.0458  0.1002  0.0748
15811W        W31280  11.019   1.129   5.544  0.0191 -0.0412  0.0812
15812W        W31281   8.679  17.528   0.184 -0.2684  0.4031 -0.1895
15813W        W31282   5.763   7.248   2.983  0.1813 -0.2140  0.3818
15814W        W31283  10.592   5.162  14.115 -0.1653 -0.2270  0.1408
15815W        W31284   5.707  11.516  16.118  0.2581 -0.1041  0.0060
15816W        W31285  11.190  12.037   1.561 -0.1489 -0.0169 -0.1344
15817W        W31286   6.863   1.146  14.541  0.0543  0.1322  0.1492
15818W        W31287   7.391  12.239   3.576  0.0739 -0.2260 -0.1688
15819W        W31288  14.745   5.171  16.250  0.0251 -0.0266 -0.1716
15820W        W31289  10.430   5.295  13.660  0.2449 -0.2642 -0.1345
15821W        W31290  11.842   9.396  15.124 -0.1992 -0.0479  0.1588
15822W        W31291  14.238   0.265   2.034 -0.1168  0.0222 -0.0847
15823W        W31292   3.404  12.019  13.612 -0.0279  0.1006 -0.3599
15824W        W31293   6.819  11.414  14.041 -0.1667  0.1980  0.1204
15825W        W31294   7.743  15.088   1.272 -0.1823  0.2853  0.1864
15826W        W31295  17.265   3.639   1.081 -0.2022 -0.0341  0.0564
15827W        W31296   4.260  17.128  14.860  0.0667 -0.2811 -0.0419
15828W        W31297  15.089  15.747   2.290  0.1373 -0.0793 -0.0507
15829W        W31298  13.439   2.555  11.827 -0.1274  0.1988  0.1484
15830W        W31299   2.837   0.582   2.210 -0.1158  0.2954  0.1318
15831W        W31300  12.972   9.191   2.468 -0.1187  0.0982 -0.1120
15832W        W31301   4.748   0.836   4.461  0.0105 -0.2841 -0.1783
15833W        W31302  16.518   5.146   2.269  0.0544  0.2600  0.0480
15834W        W31303   5.650   4.467   4.425  0.1549 -0.1487 -0.2573
15835W        W31304  11.906   1.770   2.262  0.1237 -0.2239  0.0794
15836W        W31305   0.165   8.943  15.379  0.1827  0.0689  0.0417
15837W        W31306   1.408   1.807  13.872  0.1015  0.2378  0.2246
15838W        W31307   7.705  15.207   4.739 -0.0028  0.1692  0.0393
15839W        W31308   5.207   1.596   5.527 -0.3674 -0.2782 -0.1130
15840W        W31309   3.111  12.129  15.843 -0.1885 -0.1498  0.0435
15841W        W31310  13.737  11.460   1.468  0.3537  0.0800 -0.0244
15842W        W31311   8.313   4.236  15.900  0.0063 -0.1837 -0.2470
15843W        W31312   1.248   7.555  10.955  0.1057  0.1204  0.2219
15844W        W31313   6.605   3.726   4.159 -0.0863  0.1813 -0.4088
15845W        W31314   8.799   2.569   2.059  0.2072  0.4429 -0.1017
15846W        W31315   6.578   0.383  12.629 -0.0248 -0.1253  0.2558
15847W        W31316  16.896   5.626  15.638  0.1961  0.0092 -0.1003
15848W        W31317   9.864  13.241   4.950  0.1759 -0.0655  0.0547
15849W        W31318  18.005  10.559  12.984  0.3292 -0.1556  0.0669
15850W        W31319   2.251  12.058  14.653 -0.0167 -0.1075 -0.1080
15851W        W31320  11.807  18.071  13.718  0.1973  0.0546  0.1143
15852W        W31321  14.471   9.755  10.432  0.0302 -0.2167 -0.0277
15853W        W31322   9.441  17.700   3.405 -0.2203  0.2502 -0.1677
15854W        W31323  15.473  16.089   2.443  0.0853 -0.2455 -0.0680
15855W        W31324  17.860  12.986  13.637 -0.0252 -0.0657 -0.1423
15856W        W31325  14.944  13.599   3.625 -0.2061 -0.0531 -0.3679
15857W        W31326  10.155   1.890   0.571  0.0897  0.0476 -0.0811
15858W        W31327   9.562   6.294   5.518  0.1107 -0.1110  0.2425
15859W        W31328  17.331   3.999   2.837 -0.0943  0.2713 -0.2847
15860W        W31329  14.113   5.482   4.622 -0.1251 -0.0509  0.1651
15861W        W31330   1.416  11.983  14.182 -0.0788  0.3418  0.2537
15862W        W31331   7.821  11.605   3.848  0.2668  0.0897 -0.1271
15863W        W31332  12.396   7.274   5.074 -0.2500  0.1358 -0.1879
15864W        W31333   8.293  16.320   3.523  0.2304  0.3394 -0.2713
15865W        W31334  10.916   2.105   2.195 -0.0256  0.1167 -0.1073
15866W        W31335   7.264  15.095   1.192 -0.2997  0.0260 -0.1078
15867W        W31336   3.287   9.582  11.358 -0.1373 -0.0185  0.2204
15868W        W31337   9.552   9.848  10.422  0.2894 -0.0034 -0.1039
15869W        W31338   0.715  16.639  13.438 -0.0045 -0.0808  0.2032
15870W        W31339   8.553  13.527   4.715 -0.0937  0.0427  0.1095
15871W        W31340   5.909   8.511   4.788  0.0515  0.0364  0.0155
15872W        W31341  12.177   2.877   0.612 -0.0038  0.1820  0.4598
15873W        W31342  17.929  16.752  15.365  0.0597  0.2713 -0.0475
15874W        W31343   7.282   7.175  14.495  0.1302 -0.1084 -0.3161
15875W        W31344  15.000   1.510   4.104  0.1480  0.3058 -0.2873
15876W        W31345   1.420   8.751  11.994  0.2919  0.2919  0.0872
15877W        W31346  13.036  16.362   3.336 -0.3008 -0.0604 -0.0602
15878W        W31347  16.271   2.557  10.811 -0.2092 -0.0264  0.1078
15879W        W31348   9.636  16.817   0.104 -0.2503 -0.4019 -0.0270
15880W        W31349  16.909   4.189  13.721  0.0650  0.0330  0.1202
15881W        W31350  14.329   6.655  14.568  0.2488  0.0923 -0.0237
15882W        W31351  11.520  10.477  13.793  0.0465  0.0668 -0.0709
15883W        W31352  12.267  14.034   0.131  0.0377  0.0570  0.0768
15884W        W31353   9.084  14.480  14.445 -0.1795 -0.1078  0.3544
15885W        W31354  16.437  16.485  10.910 -0.2701  0.2290  0.1548
15886W        W31355   1.580  10.420   3.754 -0.1464 -0.0771  0.1841
15887W        W31356   7.932  13.495   4.008 -0.0581 -0.1942  0.3482
15888W        W31357  10.587   3.424  14.725 -0.1462  0.0428  0.1978
15889W        W31358  12.112   5.327  14.725 -0.0493  0.0868  0.1652
15890W        W31359   7.782  13.463   2.775  0.1216  0.1433  0.3640
15891W        W31360   8.198   0.585   2.628  0.1895 -0.1887 -0.1380
15892W        W31361  13.281  16.496   3.764 -0.1782  0.1539 -0.1335
15893W        W31362  14.631   6.277  13.140 -0.0515  0.0907  0.0660
15894W        W31363  14.845   6.948   2.915  0.0065  0.1270 -0.0262
15895W        W31364  14.703  15.992  12.366 -0.1680  0.0696  0.0707
15896W        W31365   2.464  14.525   2.957  0.1550  0.3314 -0.1419
15897W        W31366   4.558  10.774  12.541  0.1983  0.3820  0.0912
15898W        W31367   6.273   0.259  13.566  0.2167  0.0985  0.1938
15899W        W31368   1.941  10.029  12.522  0.1073  0.0433 -0.0116
15900W        W31369   3.691   2.642   3.820 -0.1884  0.0893  0.2145
15901W        W31370   2.320   8.948   3.000  0.1946 -0.0891 -0.4382
15902W        W31371   0.561  11.292   4.876 -0.0093  0.1198  0.2491
15903W        W31372  11.174   5.337  16.183 -0.1981 -0.4990 -0.1972
15904W        W31373   2.565   6.679  12.222 -0.0136  0.0233 -0.0817
15905W        W31374   1.121   3.169   2.458  0.2091  0.0324 -0.1057
15906W        W31375  17.043   4.478  13.318 -0.0460 -0.1859  0.2790
15907W        W31376  10.057  10.987  14.136  0.1366 -0.2429  0.2153
15908W        W31377  13.072   1.840  14.807 -0.2237  0.0760 -0.0985
15909W        W31378   0.559  12.950  11.483 -0.0061 -0.1476 -0.2011
15910W        W31379  15.045   0.523  14.221  0.0800 -0.3290  0.1551
15911W        W31380  14.626   6.298  14.571 -0.2503  0.0582  0.4525
15912W        W31381  16.647  14.321   5.243  0.0334  0.1310  0.0471
15913W        W31382   5.076   1.515   4.035 -0.1888 -0.2408 -0.2582
15914W        W31383  18.029   2.008  11.434  0.3249  0.0301 -0.0477
15915W        W31384  10.340  16.783  14.987 -0.1950  0.4319  0.1087
15916W        W31385   1.920   9.099   4.233 -0.0170  0.1716 -0.4427
15917W        W31386  14.384   4.894  13.279 -0.2079 -0.0885 -0.5300
15918W        W31387   2.308   7.896  16.187  0.1031  0.1201  0.0496
15919W        W31388   2.967   2.742  10.181 -0.0704 -0.0811 -0.0069
15920W        W31389   8.161  14.769   2.086 -0.1490 -0.2701 -0.1351
15921W        W31390   7.941  12.592  13.171  0.1319 -0.2200 -0.1794
15922W        W31391   5.449   4.654  16.310  0.2104  0.1731 -0.0286
15923W        W31392  10.917   4.610  16.139  0.1695 -0.1015  0.0103
15924W        W31393  13.946  10.829  15.609 -0.0105 -0.2518 -0.0387
15925W        W31394   1.872  16.735   1.723  0.0343 -0.1677 -0.1107
15926W        W31395   1.353  10.812   4.236  0.1404 -0.0015 -0.1858
15927W        W31396  16.364   6.397   0.870 -0.0782  0.0679 -0.0605
15928W        W31397   5.805   1.844  15.847 -0.0098 -0.1831 -0.0456
15929W        W31398  17.233   0.683  14.828 -0.0686 -0.0854  0.2844
15930W        W31399   7.574   1.512   4.900  0.2254 -0.0930  0.2291
15931W        W31400  12.932   5.601  14.882  0.0360  0.2388  0.3662
15932W        W31401   1.809  15.250  12.609 -0.2386 -0.1433  0.2561
15933W        W31402  15.839   8.081  13.306  0.0417 -0.0545 -0.2296
15934W        W31403  15.616   3.943  12.658  0.0688  0.2519 -0.1016
15935W        W31404   7.691   3.464  12.382 -0.3951  0.0368 -0.1713
15936W        W31405  12.897  11.044  14.567 -0.2822 -0.2805 -0.0077
15937W        W31406  13.352  12.848  11.812 -0.1086 -0.1406  0.0187
15938W        W31407   3.356   4.080  15.379 -0.3408 -0.0078 -0.2101
15939W        W31408  13.063   5.810  12.458  0.1963  0.0196 -0.0156
15940W        W31409   7.171  13.464   9.583  0.2031  0.1458  0.0061
15941W        W31410  12.663  11.375  12.630 -0.1961  0.2737  0.5269
15942W        W31411  16.865  14.440  13.199 -0.2988  0.2635  0.0344
15943W        W31412   8.336  12.685  14.027  0.3895  0.1562  0.1156
15944W        W31413  17.617   8.458   3.970  0.2326  0.0299  0.0836
15945W        W31414  15.956   0.214   4.702  0.4289 -0.1081  0.2448
15946W        W31415   1.207  14.755  14.383 -0.0634 -0.1157  0.1995
15947W        W31416  14.746  16.696  15.177 -0.2500  0.1379 -0.0622
15948W        W31417  11.196  17.586   2.173 -0.0319 -0.1919 -0.0177
15949W        W31418  16.608  14.384   0.699  0.1287  0.0745 -0.2124
15950W        W31419   1.115  15.356   3.653  0.3412 -0.1320  0.0433
15951W        W31420  14.109   3.569   4.201  0.0494  0.0381  0.2798
15952W        W31421   7.874  14.505  10.384  0.1732  0.2538 -0.0870
15953W        W31422   2.916  11.283   2.142 -0.1036  0.0378 -0.1353
15954W        W31423  10.770   3.626  13.062 -0.2810 -0.1019  0.0980
15955W        W31424   6.653  16.124  14.243 -0.1239  0.2592 -0.0148
15956W        W31425  12.324   2.400   5.470  0.0031  0.3218  0.0816
15957W        W31426  17.174   3.305  14.988 -0.0219 -0.1133  0.2159
15958W        W31427   2.881   9.786  15.680 -0.2395 -0.1261 -0.1723
15959W        W31428   7.459   1.850  11.435 -0.1740  0.0582 -0.3240
15960W        W31429   4.990   5.324   3.329 -0.0191  0.1566 -0.0248
15961W        W31430   0.741   0.702   2.963  0.1405 -0.1840  0.0475
15962W        W31431   3.059  10.469   4.104 -0.0834  0.0757 -0.1060
15963W        W31432   5.300  10.080  11.771 -0.0128 -0.1480 -0.1403
15964W        W31433  14.292   0.313   5.242 -0.1989  0.3021 -0.3022
15965W        W31434   0.694   7.693   4.352  0.1194 -0.4075  0.0448
15966W        W31435  13.413  16.428   4.642 -0.4006  0.0700 -0.2094
15967W        W31436   8.920  13.737   0.220  0.0230 -0.1729 -0.1928
15968W        W31437  10.443  10.036  12.959 -0.1986  0.0865  0.0486
15969W        W31438   5.528   2.315  14.098  0.1333  0.0220  0.1455
15970W        W31439   8.957   3.129   4.073 -0.2334  0.0972  0.0578
15971W        W31440  10.886   6.143   6.295  0.2047  0.1410 -0.1218
15972W        W31441  18.090  12.698  10.333  0.2530 -0.1114 -0.1356
15973W        W31442   6.314   2.906   1.045 -0.2858  0.0333  0.5062
15974W        W31443   3.778  13.677   1.361 -0.0917 -0.1831  0.0398
15975W        W31444  10.479   9.837  14.679  0.2897  0.0919 -0.0965
15976W        W31445  14.989   5.975   0.722 -0.1053 -0.0647 -0.0781
15977W        W31446  13.796   5.515  11.774  0.2774  0.0753 -0.1252
15978W        W31447  13.136   8.432  15.286 -0.1258 -0.0146  0.1396
15979W        W31448  11.259   7.409  13.749  0.2381 -0.1326  0.1134
15980W        W31449   6.693   4.982  10.938 -0.2310  0.0141 -0.2865
15981W        W31450  10.652   2.543  12.239  0.1362  0.0113 -0.1096
15982W        W31451   6.949   6.723   5.032 -0.2528 -0.0103  0.0484
15983W        W31452   9.362   7.551  11.844 -0.0547 -0.1438  0.2348
15984W        W31453   5.275  15.138  16.123 -0.0954  0.1185 -0.1039
15985W        W31454   2.048  13.317  14.249  0.1467  0.1390  0.1345
15986W        W31455   4.013  12.257  12.213  0.3493 -0.1657  0.0444
15987W        W31456   7.276  11.297  14.869  0.0668  0.1223  0.1106
15988W        W31457   0.838  14.760  10.777  0.0300 -0.0840 -0.1702
15989W        W31458  12.180   1.530   0.483 -0.1487 -0.0283  0.0895
15990W        W31459   2.286  12.940   3.885 -0.2802 -0.0411 -0.2655
15991W        W31460   5.563   8.955   4.474 -0.1217  0.2450 -0.1699
15992W        W31461  16.704   0.513   3.144  0.2792  0.0954  0.3739
15993W        W31462  11.030   6.170   2.100 -0.1847  0.0053  0.0186
15994W        W31463  17.453   6.988   3.444 -0.0511 -0.4481 -0.0974
15995W        W31464   6.355  14.718  15.884 -0.0612  0.1228 -0.0550
15996W        W31465  11.655   1.771   2.721 -0.0650 -0.1183 -0.3089
15997W        W31466   6.916  10.579   3.025 -0.0288 -0.3100  0.2520
15998W        W31467   3.686   1.082   3.203 -0.0642  0.0663  0.0711
15999W        W31468   4.669  14.856  12.552  0.2050 -0.0130  0.3477
16000W        W31469  17.090   9.988   0.969  0.3845  0.0383  0.0591
16001W        W31470   1.740  18.015  14.056 -0.1302  0.2483 -0.1020
16002W        W31471   2.106   7.401   4.407 -0.1134  0.0512 -0.1076
16003W        W31472  11.527   5.560   6.167 -0.1702  0.0527  0.2177
16004W        W31473   0.238   1.733   0.712  0.1484 -0.1596  0.0547
16005W        W31474  13.888   2.434   5.342  0.2933  0.1966  0.1574
16006W        W31475  13.690   0.887  15.415  0.1287  0.0799 -0.0315
16007W        W31476   9.216  13.500   6.055  0.1143 -0.1861  0.0268
16008W        W31477  16.684   1.714   1.230 -0.1164  0.3148 -0.0258
16009W        W31478  15.051  14.396   1.097 -0.2442  0.1239 -0.0252
16010W        W31479  14.624   7.966   3.950 -0.3257 -0.2069 -0.0957
16011W        W31480   2.859  18.026   3.156 -0.0864 -0.2004  0.0013
16012W        W31481  14.607   3.889  16.194  0.1045 -0.0071 -0.0567
16013W        W31482   2.360   6.882   2.242  0.2276 -0.0172  0.2462
16014W        W31483   5.967   2.884  13.355  0.0043  0.2496  0.0630
16015W        W31484  10.852   9.407   0.514  0.0707 -0.0692 -0.0046
16016W        W31485  16.511   4.993   1.104 -0.1713 -0.2404  0.0111
16017W        W31486   6.418   8.549   1.863 -0.5057  0.1986 -0.1264
16018W        W31487  12.907   8.065  13.722  0.1812  0.1580  0.2003
16019W        W31488   6.370  13.376   0.643  0.0959 -0.1151 -0.1917
16020W        W31489   5.579  17.586  15.459 -0.2651 -0.1552  0.1584
16021W        W31490   6.804  14.571  11.980 -0.2125  0.1121 -0.0217
16022W        W31491   5.764  14.008  14.768  0.2468  0.0541 -0.1789
16023W        W31492   1.169   1.554  13.505  0.0349 -0.2100 -0.3247
16024W        W31493  15.414   4.861  12.455  0.2017  0.4759 -0.1048
16025W        W31494  16.771  15.769  15.010 -0.2213 -0.2766  0.0537
16026W        W31495  17.093  17.827  13.856 -0.3258 -0.1998  0.0272
16027W        W31496   0.826  16.785  14.064 -0.0431  0.1456 -0.2299
16028W        W31497   5.101  13.854   4.833 -0.0083 -0.0260  0.2065
16029W        W31498   0.395   2.702   1.285  0.2905 -0.0580 -0.1455
16030W        W31499  10.024  10.239   4.399  0.0978 -0.1855  0.1206
16031W        W31500   4.144   0.170   0.429 -0.1883  0.5138  0.0101
16032W        W31501  13.078  15.952  12.034  0.1702 -0.3380  0.0315
16033W        W31502   6.377   2.060   5.605  0.1317 -0.3864  0.0611
16034W        W31503  12.826   7.694   6.626 -0.0573 -0.0658 -0.2014
16035W        W31504   2.035   0.857  14.709  0.5369 -0.2741 -0.0305
16036W        W31505  11.341   0.987  11.409  0.2080  0.1935  0.0564
16037W        W31506  17.885  14.032  13.569 -0.1776 -0.3155 -0.1332
16038W        W31507  15.914   8.020   1.802 -0.3503 -0.0085 -0.0076
16039W        W31508  16.091  10.065   2.685  0.0220  0.1838 -0.0774
16040W        W31509  17.211  16.891   3.965 -0.1498 -0.1485  0.1860
16041W        W31510   6.845   8.700   0.802 -0.1216  0.0939  0.3499
16042W        W31511  12.646   4.505   2.211  0.0536 -0.1265 -0.1926
16043W        W31512  15.468   5.475  15.138 -0.1180  0.1753  0.1601
16044W        W31513   1.317   1.565  14.915  0.0734  0.2215  0.1708
16045W        W31514  10.600  17.410   4.077 -0.2784  0.1065 -0.1363
16046W        W31515   8.608   4.749   2.923  0.0085  0.0158 -0.0562
16047W        W31516   5.333  11.955  12.416  0.0446 -0.1093  0.0426
16048W        W31517   3.875  16.755  12.490  0.0040 -0.1750 -0.0564
16049W        W31518  15.070  13.696  16.170  0.0112 -0.1736  0.0946
16050W        W31519  14.790   0.849   1.047 -0.0365  0.0473  0.0575
16051W        W31520  16.901  15.302   3.597  0.1691  0.0128 -0.0685
16052W        W31521  17.448  14.902   3.067 -0.1300  0.3098 -0.1998
16053W        W31522   4.137  16.155   4.414  0.0673  0.1967 -0.0993
16054W        W31523   7.342   3.037   1.372 -0.1093  0.0670  0.0222
16055W        W31524   2.887   7.619   4.357  0.0738  0.0193 -0.0628
16056W        W31525   0.686   1.832  11.761  0.0722 -0.1902  0.1436
16057W        W31526  14.589  11.126  15.904 -0.1210 -0.1860  0.0606
16058W        W31527   6.414   3.621   3.320 -0.1554 -0.2994 -0.1415
16059W        W31528   0.170   0.442   1.165  0.0857  0.2919 -0.0533
16060W        W31529  14.989  11.641  13.567  0.2123 -0.2272 -0.1256
16061W        W31530  11.955   0.687   3.311 -0.0949 -0.0689  0.1493
16062W        W31531  16.140   6.654   3.749 -0.0593  0.0951  0.3152
16063W        W31532  17.011  17.680   0.387 -0.1656 -0.0596 -0.4294
16064W        W31533  10.442   0.797   6.090 -0.0785 -0.0285  0.1308
16065W        W31534  14.905   4.480  12.857  0.2048 -0.1287 -0.1413
16066W        W31535   4.113   5.991   2.930 -0.0577 -0.2058  0.2106
16067W        W31536   7.508   4.656   4.351 -0.1349 -0.4430  0.0202
16068W        W31537   4.721   6.429   3.086 -0.1199  0.1172 -0.1587
16069W        W31538  10.081  12.586  13.391 -0.1322  0.2257  0.0373
16070W        W31539  12.624   8.323  15.073 -0.0302  0.0872 -0.0269
16071W        W31540   3.338  11.731  11.172 -0.1675 -0.0576 -0.4114
16072W        W31541   3.315   8.822   0.877  0.0491 -0.0327 -0.0681
16073W        W31542  15.610  13.947   1.834 -0.1547 -0.1483 -0.1609
16074W        W31543   5.355  10.223   1.041  0.2673 -0.1103 -0.3153
16075W        W31544   6.324  13.435  14.639  0.1293 -0.2328  0.1428
16076W        W31545   0.608   5.142   3.701 -0.0565 -0.2165  0.1235
16077W        W31546   4.861  11.313  14.616  0.0288  0.2116 -0.2325
16078W        W31547   9.944   8.252  14.062 -0.0921  0.0710  0.1415
16079W        W31548  14.127   1.347   4.117  0.1298 -0.1595 -0.0767
16080W        W31549   5.655   2.260   0.681  0.1878  0.0615  0.0903
16081W        W31550   2.752   2.163   2.305 -0.1673 -0.0574  0.2367
16082W        W31551  10.350  16.087   3.147  0.2894  0.0891  0.0447
16083W        W31552   8.761  14.458   1.414 -0.2550  0.0337 -0.1581
16084W        W31553   5.935   8.651   1.667  0.1541 -0.0081 -0.3025
16085W        W31554  13.747  15.608  11.387  0.1493 -0.0843 -0.0255
16086W        W31555  17.143   9.831   6.142  0.2616 -0.1589 -0.3150
16087W        W31556  17.271  13.238  14.279  0.2658 -0.1563 -0.0112
16088W        W31557  15.452  18.049   2.455 -0.0972  0.0008  0.0545
16089W        W31558   3.272   2.317   2.219  0.0386  0.1353 -0.3168
16090W        W31559   3.369  11.229   9.955 -0.3143  0.2688  0.0004
16091W        W31560  12.090   0.851   4.525 -0.1135  0.0996 -0.1309
16092W        W31561  15.284   6.160   5.422 -0.1077  0.1041 -0.2921
16093W        W31562  13.397   1.383  13.586 -0.1903  0.0630 -0.3064
16094W        W31563   7.814   2.166   1.513 -0.0532 -0.1560 -0.3445
16095W        W31564  10.111   9.905  15.600 -0.2136  0.2698 -0.4238
16096W        W31565   7.463  12.853   5.813 -0.1248 -0.0536 -0.2146
16097W        W31566   4.618   7.163  13.114  0.1926 -0.1872  0.4634
16098W        W31567  16.143   4.888  11.017 -0.0455 -0.1309 -0.0290
16099W        W31568  15.146   7.793  12.766 -0.1261  0.1631  0.0605
16100W        W31569   0.691   6.737   5.734  0.2041  0.1415  0.2161
16101W        W31570  15.326  11.645  14.481 -0.2117  0.1517 -0.1284
16102W        W31571  17.814  15.113   2.690  0.1666  0.2205 -0.1094
16103W        W31572   2.761  17.098  11.855 -0.0836 -0.1464 -0.2760
16104W        W31573   3.855   7.320  12.507  0.1010  0.0796  0.0376
16105W        W31574  17.729  15.711   1.326  0.2469  0.2034 -0.1092
16106W        W31575   9.259   1.789   6.491 -0.1583  0.2089  0.0381
16107W        W31576   0.104  11.155   0.889  0.0174 -0.1108  0.0499
16108W        W31577   1.220  17.162   0.051 -0.1112 -0.0302 -0.2068
16109W        W31578   6.254   0.078   3.421 -0.1217  0.1392 -0.0695
16110W        W31579   6.989   3.177  13.427 -0.0735 -0.3865 -0.0247
16111W        W31580   7.425  15.144  11.407 -0.1674  0.3426  0.0832
16112W        W31581   8.506  12.099  13.809  0.3782  0.0559 -0.1281
16113W        W31582  17.903   0.452  13.903  0.0651  0.1076 -0.0489
16114W        W31583  17.869   1.028   3.963 -0.1492  0.1845  0.0276
16115W        W31584   4.785   4.043   0.792  0.1309  0.1624  0.1154
16116W        W31585   7.710  18.011   6.262 -0.1071  0.1471 -0.1796
16117W        W31586   1.938  14.843   1.132  0.2020  0.4095 -0.0023
16118W        W31587   7.484   6.531   3.317  0.2480  0.0769  0.0406
16119W        W31588   6.132   3.325   2.994 -0.0189 -0.0582  0.0529
16120W        W31589   3.335   3.462   3.039  0.0833 -0.0835  0.1619
16121W        W31590  17.436  10.434   1.008  0.2422  0.0596  0.0273
16122W        W31591   9.550  14.295  11.374 -0.0269  0.0861  0.0436
16123W        W31592  16.685   8.879  14.070  0.1930 -0.0491  0.0767
16124W        W31593  14.480   7.293   6.284  0.2468 -0.0455  0.0554
16125W        W31594  15.637  13.895  12.678 -0.0121  0.2227 -0.1171
16126W        W31595   0.505  15.042  13.851 -0.0382  0.1339  0.1231
16127W        W31596   3.060   3.248  11.357 -0.0599  0.2183 -0.3918
16128W        W31597   0.520   8.165  13.714 -0.0436  0.1043  0.0470
16129W        W31598   7.278  14.778   3.450  0.1434 -0.1358  0.4275
16130W        W31599  14.966   0.636   5.412  0.0589 -0.0207 -0.0112
16131W        W31600   4.791   8.046  16.141 -0.0211  0.2165 -0.0419
16132W        W31601   6.279  13.800  12.127 -0.1945 -0.2211 -0.1510
16133W        W31602  12.296   9.221   1.679 -0.1300  0.0301 -0.0315
16134W        W31603   9.129   2.049  15.113  0.0458  0.0308 -0.2938
16135W        W31604  11.132  17.847   0.391  0.2549 -0.2109 -0.1929
16136W        W31605  13.637  10.125   1.113  0.1604  0.0849 -0.3573
16137W        W31606  17.856   6.502  10.748  0.1696  0.0120 -0.1250
16138W        W31607   2.307  11.155  14.714 -0.1763 -0.2350  0.0979
16139W        W31608  17.795   0.268  11.462  0.0189  0.3049  0.0282
16140W        W31609   0.135  14.920   5.671 -0.0920  0.2812 -0.1341
16141W        W31610   0.148  10.015   2.086  0.0502  0.0248  0.1604
16142W        W31611   2.788   6.202  15.093 -0.3579 -0.2903  0.0031
16143W        W31612   0.237   5.032  11.419  0.1848  0.0929 -0.0864
16144W        W31613   4.914  12.288   0.433 -0.1670 -0.1821 -0.0906
16145W        W31614  15.486  17.866  13.821 -0.0721  0.1889 -0.3260
16146W        W31615   8.832  15.477   3.278 -0.0290  0.1337 -0.1785
16147W        W31616  13.967  14.470  13.272 -0.0822 -0.1767  0.0129
16148W        W31617   1.431   7.382  16.015 -0.1989 -0.0766  0.2770
16149W        W31618  14.134  16.702  15.863 -0.0704  0.2892  0.1698
16150W        W31619  17.903   8.503   0.596  0.1633 -0.1639 -0.0041
16151W        W31620  15.325   2.933  11.976 -0.0651 -0.3790 -0.4501
16152W        W31621  12.119   4.982   1.316 -0.0772  0.0132  0.0761
16153W        W31622  13.947  16.100  11.610 -0.3710  0.0205  0.0832
16154W        W31623  10.439   8.030   1.551 -0.0239  0.0030 -0.1195
16155W        W31624   3.589  10.213   4.767  0.1230 -0.3053  0.1352
16156W        W31625   5.602   5.995   5.910  0.0552  0.0480 -0.2508
16157W        W31626  17.067   6.481  14.504 -0.0293 -0.2295 -0.2168
16158W        W31627   5.270   6.544  13.085 -0.1034  0.1853  0.1599
16159W        W31628   8.421  17.404   4.344 -0.2065  0.1592  0.1624
16160W        W31629   5.447  10.571   2.983  0.3385 -0.0389 -0.1131
16161W        W31630   1.953   5.057   2.379  0.2550 -0.3969 -0.0592
16162W        W31631   0.902   8.988   5.345  0.2057  0.1418  0.1998
16163W        W31632  13.984   2.164  13.125  0.0231 -0.2978  0.1420
16164W        W31633   4.290   4.971   3.003  0.0787  0.0657  0.4611
16165W        W31634  12.905  12.787   2.151 -0.1840 -0.0409 -0.1095
16166W        W31635   3.968  11.446   5.676 -0.1048  0.2540  0.2176
16167W        W31636   3.779   8.185   5.049  0.0083 -0.1198 -0.0104
16168W        W31637   8.691  17.612   3.751  0.2847  0.4717 -0.0554
16169W        W31638   2.395  11.901   2.160  0.2747 -0.1088  0.1435
16170W        W31639  17.615  10.162   2.803 -0.3465  0.3248  0.2720
16171W        W31640  13.955   6.549   5.960  0.1053 -0.1330 -0.2820
16172W        W31641   0.444  14.913   1.524 -0.0125 -0.0055  0.1470
16173W        W31642  15.816  16.125   4.597  0.0506  0.2795 -0.0044
16174W        W31643  15.828  14.419   1.764  0.3697  0.0072  0.1260
16175W        W31644   9.018   9.845   3.703  0.2481  0.0084 -0.1406
16176W        W31645   4.935  12.274  14.668 -0.0560 -0.2578 -0.1830
16177W        W31646   5.757   8.412   1.128 -0.5387 -0.1248 -0.0116
16178W        W31647  10.185  10.922   2.781  0.2128 -0.0226  0.1407
16179W        W31648  14.068   6.758  14.139 -0.0611  0.0651  0.0555
16180W        W31649  16.660  16.703   4.265  0.1805 -0.0098  0.0963
16181W        W31650  15.012   7.410   5.979  0.0953 -0.0658 -0.0303
16182W        W31651  17.278  13.885   1.688  0.0508  0.0184  0.0582
16183W        W31652  10.440   2.106  12.303  0.2052  0.0859  0.0004
16184W        W31653  14.300   3.363   0.564 -0.0595  0.0955  0.1856
16185W        W31654   4.415  16.906  11.973 -0.1811 -0.1473  0.2102
16186W        W31655  14.150  17.998  13.940 -0.1441 -0.1260 -0.0688
16187W        W31656  17.832  17.025  15.781  0.0180  0.0492  0.0495
16188W        W31657   2.643   4.454   4.849  0.0845  0.1169 -0.1063
16189W        W31658  11.242   3.800  13.895 -0.0801  0.0198 -0.0290
16190W        W31659   7.048  11.559  10.661 -0.0612 -0.1789  0.2777
16191W        W31660   4.449  17.806  11.152 -0.0882 -0.1126 -0.0339
16192W        W31661   3.484   7.752   2.032 -0.0900  0.1765  0.1852
16193W        W31662  13.628  11.835  14.816 -0.0703  0.1003  0.0027
16194W        W31663   7.901   0.240   4.656  0.3024 -0.0185 -0.2299
16195W        W31664   3.600   9.182  11.473 -0.1103  0.0874 -0.1385
16196W        W31665   4.275  12.671  15.957  0.1123 -0.0206 -0.1805
16197W        W31666   1.093   0.168  11.935  0.3038 -0.0276  0.2099
16198W        W31667  14.681   8.730   5.999 -0.0640 -0.0094 -0.2195
16199W        W31668   3.905   3.382  15.922 -0.0772 -0.0943 -0.0840
16200W        W31669   0.712  17.709  14.191 -0.0278 -0.0817 -0.1091
16201W        W31670  13.330   6.192  11.676  0.0445  0.2531  0.3289
16202W        W31671   8.611  11.693  13.221 -0.0934 -0.1711  0.1221
16203W        W31672   8.349   5.901   2.625 -0.0705 -0.2096  0.1632
16204W        W31673   5.769   7.282  15.300  0.2673 -0.2184 -0.0254
16205W        W31674   8.816  13.178   0.942  0.0029  0.1874  0.0979
16206W        W31675   5.820   0.262  13.785  0.1836  0.0192 -0.1221
16207W        W31676  15.167  12.774  11.578  0.0372  0.1785 -0.1050
16208W        W31677  13.045   1.467  11.479  0.1132  0.0827  0.3008
16209W        W31678   9.356   0.884   4.689 -0.0482  0.0057  0.1651
16210W        W31679   4.712   3.071  14.254 -0.2564 -0.0210  0.1079
16211W        W31680  10.284   3.163  11.534 -0.0902  0.3046 -0.0549
16212W        W31681   3.416   4.375  15.021  0.1488 -0.1000 -0.0350
16213W        W31682  13.133  14.371   0.219 -0.0075  0.0741 -0.3844
16214W        W31683   0.569   6.275   3.396  0.1392  0.3485  0.0405
16215W        W31684  10.367   7.627   3.073  0.1224 -0.0662 -0.3075
16216W        W31685   3.822  12.517  15.614  0.1118 -0.2696  0.2738
16217W        W31686   2.763   7.883   5.070  0.2642  0.1505  0.0435
16218W        W31687   8.058  10.696  14.996 -0.2155 -0.1781  0.2795
16219W        W31688  13.515  15.769  12.221  0.0692 -0.2125 -0.2671
16220W        W31689   1.978   8.918   1.853 -0.0539  0.2439 -0.2430
16221W        W31690   3.366  16.601   1.441  0.0963 -0.0214  0.0345
16222W        W31691   9.339  13.740  12.072  0.1568 -0.4105  0.1536
16223W        W31692   3.231  16.214  15.799 -0.0263 -0.0810  0.3066
16224W        W31693  11.305  16.573  11.186  0.1144  0.2828 -0.2700
16225W        W31694   8.178   4.592   1.867  0.0707  0.2395 -0.0184
16226W        W31695   4.940   6.177   4.287 -0.1926 -0.2652 -0.1086
16227W        W31696  11.237   9.745   2.911  0.3785 -0.2213 -0.1700
16228W        W31697  13.218  11.764   2.052  0.0680 -0.0982  0.0763
16229W        W31698   0.350  12.629  13.071 -0.0124 -0.0456 -0.3252
16230W        W31699   0.465   7.167  12.815  0.0647  0.3681 -0.1689
16231W        W31700  17.384  17.949   1.248  0.1228  0.0919  0.1125
16232W        W31701  14.647  12.759  14.406  0.0367 -0.1363 -0.4063
16233W        W31702  17.054   3.501   4.788  0.1197  0.2467  0.2386
16234W        W31703  16.544   7.008  14.430 -0.0018 -0.1756 -0.0353
16235W        W31704  10.782  17.205  11.537  0.1299  0.1983 -0.1082
16236W        W31705   0.939  11.614   1.033 -0.0019 -0.2121  0.1841
16237W        W31706  14.850  17.465   5.987  0.1668  0.2758  0.3043
16238W        W31707  17.781   9.508   0.862  0.2130  0.1880 -0.0727
16239W        W31708  15.189  13.506  14.228 -0.0221 -0.0013 -0.0442
16240W        W31709   0.670  17.383  12.293 -0.0722  0.0803 -0.3732
16241W        W31710   1.892   5.319  13.685 -0.1273 -0.0555  0.1294
16242W        W31711   0.131  15.075  13.503 -0.3131 -0.0970 -0.3003
16243W        W31712  12.107   4.284   6.465 -0.0615 -0.0188  0.1451
16244W        W31713  10.322   2.978  10.178 -0.1402 -0.2377 -0.1346
16245W        W31714  13.374   3.920   0.180  0.0597  0.0617  0.0952
16246W        W31715  17.758  12.768   0.477  0.1395  0.0537  0.3471
16247W        W31716  15.004  15.031   3.058  0.0542 -0.0824  0.3210
16248W        W31717   4.697  14.633   0.366 -0.0462  0.3310  0.0554
16249W        W31718   0.216   7.058   4.657  0.0348  0.0358 -0.0399
16250W        W31719  13.661  16.583   2.339  0.0121 -0.2035 -0.1077
16251W        W31720   4.061  16.189  14.628 -0.1521  0.0411  0.0124
16252W        W31721   2.387  10.529   3.993 -0.1825  0.0978  0.2328
16253W        W31722   5.950   5.499   1.028  0.1402  0.0158  0.1211
16254W        W31723  17.040   1.143  14.758  0.1055  0.1161  0.0232
16255W        W31724  15.750   5.338   5.466  0.2188  0.1138  0.2449
16256W        W31725  11.102   6.560  12.347 -0.0390 -0.3520 -0.1374
16257W        W31726   0.942  17.658  15.064  0.0648 -0.0221 -0.0427
16258W        W31727   2.025  13.715   1.419  0.4405 -0.1467  0.0223
16259W        W31728  10.384   4.256   4.888  0.1462 -0.0888 -0.0615
16260W        W31729  14.436   4.824   3.167 -0.3421  0.1555 -0.4040
16261W        W31730   0.268  12.556  12.588  0.1173 -0.2018  0.0910
16262W        W31731  10.487   7.070  15.914 -0.0340  0.1528  0.0038
16263W        W31732  10.681  14.954  11.526 -0.2516  0.1609  0.1440
16264W        W31733   7.484  15.488  14.309 -0.0470 -0.0821 -0.1905
16265W        W31734   2.408  15.296  13.371  0.3380 -0.1855  0.0670
16266W        W31735   4.086   0.922   3.562  0.1759  0.0979 -0.0647
16267W        W31736   4.765   1.619   5.465 -0.2545 -0.1738  0.2036
16268W        W31737  11.680   3.252  16.253  0.1293  0.2387 -0.1620
16269W        W31738   2.993   2.611   0.072  0.1749 -0.3599 -0.1398
16270W        W31739   2.942   4.253  11.581  0.1549 -0.6161  0.1854
16271W        W31740  10.044  12.915  14.387 -0.1299  0.1564  0.0338
16272W        W31741   3.494  15.022  11.354  0.2476  0.0561 -0.0831
16273W        W31742  17.499  16.610   3.346  0.0584 -0.1647 -0.1124
16274W        W31743   7.866  15.772  12.864  0.2156 -0.0647  0.0174
16275W        W31744   9.992   7.837  14.734 -0.0771 -0.2164  0.2708
16276W        W31745  11.174  10.211   2.989 -0.0955  0.1603  0.1268
16277W        W31746  13.856  10.945   1.445 -0.0467 -0.0283  0.0501
16278W        W31747  13.363  14.988  15.366  0.1141  0.0440  0.1887
16279W        W31748  10.817  15.613  13.339  0.2152 -0.0761 -0.0560
16280W        W31749   1.700   9.161   2.266  0.0181  0.0333 -0.1978
16281W        W31750   7.874  16.317   0.971  0.1270 -0.3029 -0.2306
16282W        W31751   5.629   9.050  12.891  0.0185  0.1953  0.1281
16283W        W31752  15.128  10.760   5.475 -0.2033 -0.0760 -0.1671
16284W        W31753   0.146  13.977   1.936  0.2527  0.0513  0.0745
16285W        W31754  12.320  11.913   4.048 -0.0800 -0.1011 -0.3842
16286W        W31755  18.084   5.391   3.091  0.1963  0.3108  0.3000
16287W        W31756  16.161   8.290   0.304  0.3671  0.0198 -0.0721
16288W        W31757   9.524   5.604  13.926  0.0397 -0.0200 -0.4026
16289W        W31758  17.593  12.298   2.272  0.0514 -0.0053  0.1236
16290W        W31759   8.254   4.328  13.248  0.0968 -0.1853 -0.1443
16291W        W31760  10.694   8.074  13.098 -0.2773 -0.0181 -0.1051
16292W        W31761  11.153   5.555  14.425  0.1580 -0.0212  0.4373
16293W        W31762  12.757   9.695   3.785  0.3035 -0.0578 -0.3164
16294W        W31763   4.256   7.020  12.255  0.2225 -0.1005  0.0551
16295W        W31764  13.524   7.349   1.665 -0.1854  0.2723 -0.1433
16296W        W31765   7.406   4.609   0.845  0.2328 -0.0970  0.0437
16297W        W31766   6.616  13.977  16.276  0.1645  0.3785  0.0756
16298W        W31767   7.038   7.283   0.161 -0.0068  0.1389  0.3164
16299W        W31768   3.266  17.320  11.083  0.0028  0.2144  0.0496
16300W        W31769   7.265   0.333  13.842 -0.0098 -0.1001 -0.0293
16301W        W31770  17.140   0.503   4.217  0.0240 -0.2884 -0.0976
16302W        W31771   0.164   1.852  12.498 -0.1376 -0.0472 -0.2168
16303W        W31772   3.657  12.580  14.588  0.0334  0.0347 -0.2124
16304W        W31773   1.464  15.238  15.956  0.3102  0.0458 -0.0294
16305W        W31774  17.166  17.399  15.320  0.2356  0.1238  0.2398
16306W        W31775  17.881   7.269  13.417  0.2928  0.0360 -0.0949
16307W        W31776   6.095  10.166   3.604 -0.1179 -0.0583 -0.2487
16308W        W31777   1.019   9.552  12.451 -0.0259 -0.1851 -0.0571
16309W        W31778   2.023   1.427  11.389 -0.0734 -0.2171 -0.3137
16310W        W31779  12.701  16.354   1.897  0.1623 -0.0254 -0.0898
16311W        W31780  17.867   4.789   5.571 -0.2550 -0.2708 -0.2721
16312W        W31781  15.117   4.570   2.379 -0.0165  0.0007 -0.0552
16313W        W31782  10.760   2.036  15.906 -0.1972 -0.0285 -0.1164
16314W        W31783  12.590   4.765   4.938  0.0207  0.1964  0.2097
16315W        W31784   8.229   9.761  11.220 -0.0113 -0.1407  0.1896
16316W        W31785   7.701   1.999   2.490 -0.1102 -0.0212 -0.2896
16317W        W31786  10.250  16.414   1.792  0.2091 -0.2061 -0.0679
16318W        W31787  11.668  17.325  15.313 -0.0298 -0.1066 -0.0621
16319W        W31788   1.679   6.249  12.665  0.1414  0.0891  0.2825
16320W        W31789   9.818   9.674  13.529  0.1083 -0.2441 -0.1372
16321W        W31790  15.631   2.966  11.066 -0.1998  0.0765  0.0519
16322W        W31791   9.720  13.229  14.161 -0.0856  0.0985  0.4958
16323W        W31792   2.665   3.054  11.037 -0.0961  0.2321 -0.1042
16324W        W31793   4.740   3.925  14.419  0.1059  0.3215  0.1192
16325W        W31794   0.338  17.588   4.520  0.1860  0.0787 -0.0096
16326W        W31795   8.752   5.742   3.042 -0.0761  0.0785  0.0030
16327W        W31796   9.233   1.276  14.383  0.1565 -0.0675  0.0775
16328W        W31797   4.531  10.274   9.920  0.0388 -0.1688  0.1779
16329W        W31798  13.654   7.794   6.256  0.1753  0.2653  0.2102
16330W        W31799   6.766   5.810  15.757  0.0127 -0.2180  0.3487
16331W        W31800  15.287  15.839   1.834  0.0214 -0.1015  0.0581
16332W        W31801   8.537   6.193  10.490  0.2587 -0.0502 -0.1230
16333W        W31802  12.772   3.439  12.586 -0.1446 -0.0807  0.1288
16334W        W31803   1.361  17.735  11.162 -0.1780 -0.1186  0.2920
16335W        W31804   6.560  10.478  13.974  0.0601 -0.1709 -0.0502
16336W        W31805  12.240   1.255   0.101 -0.2020  0.0686  0.0045
16337W        W31806   0.543   3.173  11.286 -0.2937  0.2175 -0.1130
16338W        W31807   0.024  10.909  12.462  0.0114 -0.0868  0.1559
16339W        W31808   7.409   7.704   6.251  0.0560 -0.1501  0.3490
16340W        W31809   8.828   5.736  15.877  0.0369  0.0028 -0.3336
16341W        W31810  14.911  10.434  11.323 -0.0680  0.4326 -0.1303
16342W        W31811   3.924   5.503   1.403 -0.2367  0.1197 -0.1361
16343W        W31812  12.166   5.724  11.489 -0.2480 -0.0057  0.3010
16344W        W31813  15.647   3.060  16.228  0.1982  0.0214  0.2500
16345W        W31814  11.255  17.367   0.555 -0.3009 -0.0419 -0.0051
16346W        W31815   1.613   7.899   5.497 -0.0999 -0.2481 -0.1242
16347W        W31816  15.143   2.754   4.977  0.1737  0.1617  0.0389
16348W        W31817   2.652   4.508   0.564 -0.1606 -0.1575 -0.0579
16349W        W31818   5.910  15.818   6.001  0.0868  0.1738 -0.0161
16350W        W31819  13.139  17.142  13.963  0.0236  0.2820 -0.1759
16351W        W31820   7.862  10.860   1.075 -0.2352 -0.0032 -0.2736
16352W        W31821   9.524  13.588  15.878 -0.0849 -0.2830  0.0485
16353W        W31822   7.307  13.573   5.441  0.1762  0.3505  0.4761
16354W        W31823   4.930   3.353   3.828 -0.0602  0.0155 -0.0638
16355W        W31824  12.287   6.402   1.107 -0.3860 -0.0902 -0.0756
16356W        W31825   7.966   7.552  12.350  0.1442  0.0279  0.1249
16357W        W31826   4.999   0.019   3.305 -0.0846 -0.0909 -0.1595
16358W        W31827   3.253   5.154  14.272 -0.1290  0.1821  0.0384
16359W        W31828   9.728   1.109  11.752  0.2198 -0.1462  0.1787
16360W        W31829   3.553  16.537  11.677 -0.1993 -0.1180 -0.0185
16361W        W31830   9.641  12.771   6.199 -0.1106 -0.0472  0.1100
16362W        W31831  17.736  12.955   1.044 -0.2628  0.0294 -0.0663
16363W        W31832   8.430   1.204   0.847 -0.0828 -0.0050  0.2292
16364W        W31833  13.818  16.994   2.654  0.1423 -0.0320 -0.0932
16365W        W31834  10.360   6.071   3.618 -0.0608 -0.0482  0.0912
16366W        W31835  12.639   2.566   5.816 -0.0980 -0.1744 -0.0082
16367W        W31836   7.332  10.231   0.302 -0.0673 -0.1068 -0.1480
16368W        W31837   3.227  13.768  14.282 -0.0584  0.0293 -0.0199
16369W        W31838   8.879   2.010   3.370 -0.0489 -0.0595 -0.1508
16370W        W31839   6.007   7.226   3.544  0.3350 -0.1846  0.0721
16371W        W31840   1.513   4.185  14.968  0.0344 -0.0270  0.4431
16372W        W31841  13.592   1.246  15.026 -0.3763  0.2835 -0.1417
16373W        W31842   6.323  11.781   3.513  0.0956 -0.0924 -0.0071
16374W        W31843   9.780  10.976   3.714  0.2885  0.2932  0.2627
16375W        W31844  14.933  11.255  13.856  0.3172 -0.1167  0.0018
16376W        W31845  12.947   0.016  13.687 -0.0542  0.2826  0.1569
16377W        W31846   5.313   0.205  13.898 -0.3197  0.3223 -0.0277
16378W        W31847   7.817  14.698  11.370 -0.1816 -0.0437  0.2198
16379W        W31848  17.035  11.709  13.921 -0.1999  0.1490 -0.0412
16380W        W31849  17.126   9.179  14.020 -0.0897  0.1884 -0.1683
16381W        W31850  13.419  10.869  12.461 -0.0850 -0.1844  0.3189
16382W        W31851   8.823   2.253  14.127 -0.2061 -0.2624 -0.2849
16383W        W31852  18.075   0.871   1.846 -0.1283  0.1565 -0.2747
16384W        W31853   3.636  17.604   5.254  0.0194 -0.3712 -0.1102
16385W        W31854  14.948   9.368  11.515  0.0614 -0.0925 -0.0922
16386W        W31855  17.193  17.907  12.096 -0.1900  0.1953  0.0687
16387W        W31856  16.914  15.966   1.055  0.0168  0.1012 -0.1210
16388W        W31857  14.370   4.648   3.589 -0.4749 -0.4131  0.0155
16389W        W31858   1.990  12.563   5.711  0.1743  0.0880 -0.1454
16390W        W31859   8.525  18.059  15.640 -0.3880 -0.1043 -0.0247
16391W        W31860  15.925  14.507   3.040  0.0353  0.0528 -0.1136
16392W        W31861   6.071   4.151   5.107 -0.0090 -0.2190 -0.1702
16393W        W31862  12.634  17.673  11.921  0.1448  0.1180 -0.4590
16394W        W31863  13.393   5.645  14.520 -0.0366  0.0262  0.0529
16395W        W31864  16.549   0.122  13.754 -0.3006 -0.0098 -0.3354
16396W        W31865  10.651   9.167   1.854 -0.1346 -0.2613 -0.1694
16397W        W31866   0.254   9.586   4.763 -0.0135  0.1821  0.0872
16398W        W31867   0.114   6.531   4.856 -0.0162 -0.1884  0.0650
16399W        W31868   5.350   1.419  13.914 -0.1488  0.0886  0.0304
16400W        W31869   9.316  15.333  12.308 -0.0210 -0.2179  0.2884
16401W        W31870   3.939  15.265   1.834  0.1533 -0.1660 -0.4453
16402W        W31871   8.545   4.357   1.617 -0.0896 -0.0040 -0.2245
16403W        W31872   5.883   2.503   0.280  0.3613 -0.2443 -0.0984
16404W        W31873   0.069   8.179  12.263  0.1618  0.2241 -0.3628
16405W        W31874  13.639   1.880   2.330  0.1203 -0.0357 -0.2795
16406W        W31875   0.849   9.490   1.557 -0.5357 -0.0667  0.3926
16407W        W31876  17.300   9.922  12.807 -0.0503  0.2912  0.0461
16408W        W31877   1.300  13.456   4.978 -0.2139  0.3481  0.0487
16409W        W31878  11.513  13.247  12.808 -0.0405 -0.1329 -0.2677
16410W        W31879   5.241  15.887   6.139  0.0090 -0.1132  0.2482
16411W        W31880  14.274  17.513   5.432 -0.0255 -0.3408 -0.0483
16412W        W31881   5.199   1.768   0.043 -0.0762  0.0512 -0.0288
16413W        W31882   8.206   6.961   4.360 -0.1206  0.2235 -0.0748
16414W        W31883   8.183   3.837  12.943  0.0531  0.0241 -0.0201
16415W        W31884   1.606  16.184  11.622  0.1096  0.2209 -0.2272
16416W        W31885  13.527   0.561  14.126  0.0668 -0.1150 -0.0316
16417W        W31886   8.259   8.452   3.052 -0.0701 -0.1187 -0.0509
16418W        W31887  14.085  11.516   5.873  0.1423  0.3801  0.0399
16419W        W31888   3.258  14.377  13.404  0.0762 -0.0151  0.5422
16420W        W31889   0.424   9.004   3.497  0.0114 -0.0730 -0.0120
16421W        W31890  17.030   9.301   2.691 -0.2710 -0.1248  0.1081
16422W        W31891  12.396  13.018   9.654  0.0256  0.0987 -0.2256
16423W        W31892   9.547  14.012  14.976 -0.4185  0.2020  0.0014
16424W        W31893  14.000   6.031  12.389  0.0329  0.1108 -0.2383
16425W        W31894  10.898  14.829  14.535  0.1114 -0.0880  0.1270
16426W        W31895  16.816   6.142  12.153  0.0192 -0.0069  0.1919
16427W        W31896   2.352   1.650   3.497  0.1536 -0.0411 -0.0238
16428W        W31897   7.995   8.747   4.936  0.0230  0.0390 -0.2615
16429W        W31898   0.326   3.065  14.712 -0.1448 -0.2307  0.0710
16430W        W31899   7.989   4.849  14.051  0.1092 -0.2970 -0.0332
16431W        W31900  17.194  13.459  16.261  0.2421 -0.0398 -0.2494
16432W        W31901  10.272   6.105  14.168  0.5642 -0.1832 -0.0686
16433W        W31902  16.005   4.839   3.937  0.0494  0.2089  0.1091
16434W        W31903   0.395   9.550   3.488 -0.1491  0.2687  0.2355
16435W        W31904  18.083   2.515  14.652 -0.1244  0.1808 -0.1160
16436W        W31905   8.514   2.266  15.952 -0.0652  0.1227 -0.0201
16437W        W31906  17.873   1.461  13.765  0.2667  0.1489  0.0689
16438W        W31907  15.186   9.564  12.459  0.0537  0.2797  0.0418
16439W        W31908   2.289   3.600  11.760  0.0098 -0.0665 -0.4506
16440W        W31909   5.701   0.330   0.215 -0.2630  0.1742 -0.1487
16441W        W31910   0.635   2.863   0.837 -0.2566  0.0998 -0.0372
16442W        W31911   5.144   7.312  11.474 -0.3300 -0.1117  0.1672
16443W        W31912   1.964   6.602   4.116 -0.0843  0.1409 -0.1365
16444W        W31913  10.820   2.328   4.834 -0.0663  0.0290 -0.0367
16445W        W31914   8.293   7.652   1.094 -0.0069 -0.3425 -0.3747
16446W        W31915  12.441  12.594   6.146  0.1696  0.1204 -0.0035
16447W        W31916   7.575   0.950   1.421 -0.0673  0.0016  0.1404
16448W        W31917   6.737   7.862   4.918 -0.1000 -0.1157 -0.2451
16449W        W31918  18.059  10.770  13.853  0.3543 -0.2072 -0.0865
16450W        W31919  16.981   7.624   3.278 -0.0745 -0.1580 -0.0065
16451W        W31920   4.679   5.896  14.574  0.2013 -0.1406 -0.3065
16452W        W31921   6.671   4.802  15.507 -0.2445 -0.0261 -0.1044
16453W        W31922   2.202   7.692   1.666 -0.0910  0.0572  0.1544
16454W        W31923  11.697  12.234   1.422 -0.0061 -0.1594  0.0006
16455W        W31924  10.751  15.131  15.528 -0.2290  0.0660  0.1103
16456W        W31925  16.909  13.386  14.666 -0.0187 -0.1298  0.0705
16457W        W31926   1.724  16.833   4.297  0.2436 -0.0223 -0.1527
16458W        W31927   7.097   2.134  14.171  0.1622 -0.1305 -0.2484
16459W        W31928   5.716  13.441   3.818 -0.1810  0.1139  0.0989
16460W        W31929  12.783   0.087   0.330 -0.2696  0.1089 -0.2927
16461W        W31930  14.148   4.926  12.368 -0.0009 -0.1389 -0.0256
16462W        W31931  17.560  16.548   2.316 -0.0774 -0.0437  0.2540
16463W        W31932   3.556  16.755  13.511  0.1299  0.0622 -0.1283
16464W        W31933   6.860   6.338  12.828  0.0095 -0.2084 -0.0661
16465W        W31934   2.592   3.151   0.303  0.1013  0.0107 -0.2507
16466W        W31935  16.296  15.071   4.698 -0.0895 -0.0163 -0.0800
16467W        W31936   4.112  15.615  12.684 -0.1280  0.0761 -0.1318
16468W        W31937   7.805  15.565   1.003  0.0028  0.5706 -0.0046
16469W        W31938   8.892  14.901   2.837 -0.0034  0.1178 -0.1799
16470W        W31939  17.658  10.134  10.567 -0.0991  0.1211  0.1175
16471W        W31940  16.882  14.010   2.292  0.0866  0.0727 -0.0773
16472W        W31941   4.661   8.897   3.466  0.0003 -0.1369  0.0422
16473W        W31942   5.988  13.609  12.597  0.1457  0.1119  0.1839
16474W        W31943   2.731  14.098   2.889  0.0245 -0.1295  0.1547
16475W        W31944   6.551   3.350  15.771  0.0156  0.0496  0.1329
16476W        W31945   4.488   3.247  11.623 -0.4609 -0.1684 -0.0316
16477W        W31946   1.697   5.919   0.494  0.1444  0.4147 -0.0009
16478W        W31947  11.419  11.073  14.566  0.3316 -0.1969  0.0434
16479W        W31948  17.530   4.617   0.516 -0.1370  0.2944  0.1154
16480W        W31949   6.117   1.513   3.256 -0.0847 -0.2478  0.1706
16481W        W31950   2.902   4.157  13.455 -0.1619  0.0249  0.2507
16482W        W31951   3.524   9.161   4.807 -0.0707 -0.0913 -0.1331
16483W        W31952  17.586  11.013  10.830 -0.0137 -0.0681 -0.0533
16484W        W31953   8.653  17.282  14.030  0.0711 -0.2081  0.0709
16485W        W31954  15.687   7.642   4.418 -0.0970 -0.0650 -0.0036
16486W        W31955  15.103  17.023  15.032  0.0348  0.0693 -0.0354
16487W        W31956  16.488   0.165  15.774 -0.3750  0.0098  0.3464
16488W        W31957   0.273   5.069   4.927 -0.3174 -0.1821  0.0340
16489W        W31958   4.894  16.735  10.425 -0.1337  0.2775 -0.0316
16490W        W31959  14.766  13.175   5.470  0.1759 -0.2405  0.0197
16491W        W31960   7.248   9.223  15.741 -0.3564  0.0589 -0.0271
16492W        W31961  17.491  16.842   4.446 -0.0464  0.1463  0.0054
16493W        W31962   5.429  16.108  15.951 -0.3861 -0.0779  0.0983
16494W        W31963  13.006  14.834  13.649  0.2133 -0.1454  0.0007
16495W        W31964   5.273   4.997  12.616  0.2362 -0.4295  0.0993
16496W        W31965   2.341   1.802   1.540 -0.2494 -0.1492 -0.3208
16497W        W31966   4.174  13.008   1.879 -0.0217  0.0700  0.2327
16498W        W31967   2.636   1.623  10.979  0.2314  0.0002 -0.0639
16499W        W31968   5.870   6.113  15.867  0.2530  0.0703 -0.1350
16500W        W31969   2.816   6.480   0.571 -0.0725 -0.0841  0.1340
16501W        W31970   8.603  13.745   2.170 -0.1099 -0.1381  0.1516
16502W        W31971   5.084  15.618   2.681 -0.0253  0.1427  0.0242
16503W        W31972  15.872  14.180  15.113  0.0617 -0.1450  0.1874
16504W        W31973  14.954   1.008  11.939  0.1675 -0.4359  0.2060
16505W        W31974  11.438   2.020   3.165 -0.1064  0.0601 -0.2897
16506W        W31975   0.966   2.705   2.980  0.3009  0.1570  0.2258
16507W        W31976  11.793   8.788   0.560  0.1663 -0.1829  0.1125
16508W        W31977  16.063   6.176   4.030 -0.0315  0.1760 -0.1706
16509W        W31978  10.713   1.468   0.542  0.1309  0.0142 -0.3079
16510W        W31979  15.046  10.899   3.755  0.1792  0.0953 -0.5604
16511W        W31980   1.516  10.696   0.192  0.3200  0.0520 -0.0670
16512W        W31981  11.095  15.240   4.112  0.0350  0.0626 -0.1573
16513W        W31982   1.671  11.206  11.766  0.1685 -0.5233 -0.2374
16514W        W31983   8.953  17.856  12.661  0.2414 -0.0076  0.2564
16515W        W31984   6.002  12.665  15.270  0.3344  0.0341 -0.0433
16516W        W31985  16.230   2.278  14.652  0.1046  0.0035 -0.1356
16517W        W31986   5.255  17.101   0.880 -0.1264 -0.2135 -0.1030
16518W        W31987   2.352  16.473   3.712  0.0042  0.0618 -0.0579
16519W        W31988  13.406   2.418   5.124  0.1021 -0.2753 -0.0830
16520W        W31989  11.474  17.830  12.800 -0.0860  0.0076  0.3251
16521W        W31990   0.457   4.102   6.222 -0.2133 -0.3323 -0.0173
16522W        W31991   2.631  15.621   5.338 -0.1090 -0.2119  0.3165
16523W        W31992   9.891   5.211   0.777 -0.0841 -0.0634  0.2256
16524W        W31993   6.156   0.687  15.369 -0.0219  0.2282 -0.0022
16525W        W31994   6.386   6.997  11.520  0.0606  0.1844  0.2778
16526W        W31995  17.287  14.903  11.641 -0.1933 -0.0126 -0.1105
16527W        W31996   7.084  15.686   2.520 -0.0683 -0.0702  0.2573
16528W        W31997  10.777   2.351  16.295  0.3191  0.0086  0.1343
16529W        W31998   4.383   2.604  16.118  0.1724  0.1248  0.2677
16530W        W31999  16.184   0.106  14.156 -0.1857  0.0172 -0.0651
16531W        W32000   2.059   9.992   1.198 -0.1134 -0.2090 -0.0592
16532W        W32001  12.016   9.150  15.589  0.0037  0.1937  0.0701
16533W        W32002  14.966  16.581   0.638  0.2504  0.0305 -0.0627
16534W        W32003  13.193  11.696   5.904  0.0969 -0.1136 -0.1173
16535W        W32004   5.480  10.389   5.122 -0.3051 -0.0983  0.2694
16536W        W32005  11.659   0.451   3.737  0.2219  0.1618 -0.3215
16537W        W32006  15.717  16.356  12.161 -0.0977 -0.3014 -0.0808
16538W        W32007  15.809  11.755   0.726  0.0027 -0.1345  0.0235
16539W        W32008   9.242   4.656   0.635  0.0302  0.0145  0.0637
16540W        W32009  17.352  10.422   6.011 -0.1569  0.0983 -0.1788
16541W        W32010   2.442   5.884  14.900  0.2240 -0.2045  0.1439
16542W        W32011   5.338   4.197  16.108 -0.0812 -0.0420  0.2585
16543W        W32012   4.698  15.251  16.006 -0.0422 -0.1129 -0.2198
16544W        W32013   5.153   6.353   5.126  0.1237 -0.0728 -0.1025
16545W        W32014  18.041   2.756   4.900  0.0888  0.4060 -0.2326
16546W        W32015  18.041  16.721   0.456 -0.1934 -0.1786  0.1297
16547W        W32016   9.808   7.607   2.693  0.0908  0.1830  0.0461
16548W        W32017   1.058   9.035   0.977  0.0402 -0.1757  0.0302
16549W        W32018   3.022   2.799  12.667 -0.1152 -0.1064  0.0326
16550W        W32019  17.882  12.022  13.332  0.0933  0.1827  0.1169
16551W        W32020   3.590   6.914   5.412 -0.0008 -0.3714  0.0174
16552W        W32021  15.937  17.030   1.682  0.2528  0.0779 -0.0334
16553W        W32022   7.001   4.982  13.304  0.1510  0.1322 -0.0460
16554W        W32023   5.339  13.540  15.257  0.0924  0.1209 -0.1120
16555W        W32024  10.034  11.172  12.799  0.0108 -0.0494  0.1613
16556W        W32025  14.426   5.102   4.873  0.1953 -0.2954  0.0468
16557W        W32026  14.564   8.911   2.409 -0.2592 -0.2401  0.0469
16558W        W32027  11.727  10.189   0.406 -0.0463  0.0864 -0.0647
16559W        W32028  11.774  12.850  13.062  0.0806  0.0116  0.0794
16560W        W32029  13.746   0.162  13.873  0.0612 -0.1835  0.4385
16561W        W32030  16.122  13.911  15.460  0.1122 -0.0891 -0.2342
16562W        W32031   7.889   8.172   2.826 -0.1099  0.0657  0.1313
16563W        W32032   5.482   1.876   3.878  0.1942  0.1268 -0.0331
16564W        W32033  17.175  10.623   0.318  0.2149  0.1793  0.2045
16565W        W32034   7.438   8.920  12.983  0.0356  0.0604 -0.0464
16566W        W32035  13.123   3.379   1.279  0.2388  0.1316 -0.1560
16567W        W32036  16.782  11.830   2.416  0.1529  0.2662  0.0213
16568W        W32037  16.444  12.314  13.814 -0.1276 -0.1017  0.0392
16569W        W32038  16.363  12.834   2.782  0.0850 -0.2584 -0.1627
16570W        W32039  10.764   6.166   1.632 -0.0696 -0.0962  0.0731
16571W        W32040  17.232  11.966   2.499  0.1303  0.3834 -0.0373
16572W        W32041   5.237   2.293  16.250  0.2103  0.0715 -0.2929
16573W        W32042   9.539   9.717  12.711 -0.1011 -0.0885 -0.1861
16574W        W32043   0.464  15.098   9.991  0.3330  0.2327  0.0931
16575W        W32044  13.718   5.945   2.694  0.0025 -0.0265 -0.0511
16576W        W32045  12.982  15.044   3.781 -0.0500  0.1909 -0.2607
16577W        W32046   9.200  13.599   3.589 -0.1623  0.0295  0.1584
16578W        W32047  11.482   9.210  15.431  0.1424  0.0064  0.0215
16579W        W32048   9.281  16.830   3.630 -0.3099 -0.0866 -0.0109
16580W        W32049   7.258  11.711   0.965 -0.2174  0.1319 -0.1549
16581W        W32050  11.644   9.495   2.875  0.0777 -0.4346 -0.2033
16582W        W32051   7.157   9.719  15.690  0.1795  0.0686 -0.1963
16583W        W32052   9.230   7.107  11.969 -0.0928 -0.1812  0.1379
16584W        W32053   7.531  16.327  11.718 -0.0793  0.1826 -0.1977
16585W        W32054   3.316   1.225  12.567  0.1658  0.1232  0.0450
16586W        W32055   1.855  12.746  11.520  0.2538 -0.1738 -0.0444
16587W        W32056   9.258   3.730   4.877 -0.0490  0.0087  0.0336
16588W        W32057   5.664  10.995  13.278 -0.3264  0.1583 -0.2884
16589W        W32058  10.678   2.281   4.340 -0.2800 -0.0844 -0.0660
16590W        W32059  14.202   4.546   4.043 -0.2802 -0.1737  0.1472
16591W        W32060  12.291   7.539  15.543 -0.1652  0.0320  0.1803
16592W        W32061   3.643   8.371  10.932 -0.2493  0.1505  0.1710
16593W        W32062  15.183  12.801   3.712 -0.1104 -0.1917  0.2500
16594W        W32063   0.117   0.154  11.304  0.1024 -0.2829 -0.0345
16595W        W32064  14.379   7.156   2.953 -0.1960  0.2056 -0.0687
16596W        W32065  14.951   8.010   0.804 -0.0551 -0.1141 -0.4477
16597W        W32066   9.804  14.731  11.192  0.3426  0.0576 -0.4247
16598W        W32067   2.764   7.889   1.541  0.0661 -0.1137  0.2117
16599W        W32068  17.981  17.439  12.990 -0.0211 -0.1681 -0.3613
16600W        W32069   6.869   5.060   0.234  0.1011  0.2460  0.1968
16601W        W32070  12.952   6.383  11.054 -0.1943  0.2668 -0.0636
16602W        W32071   0.924  14.330  13.288  0.2543  0.0735  0.0610
16603W        W32072   7.445   5.334   4.145 -0.0814 -0.0565  0.1077
16604W        W32073   4.807  11.014   4.771  0.1222 -0.0238  0.0326
16605W        W32074   7.403   4.310  15.510 -0.3201  0.3974  0.1180
16606W        W32075  17.116   6.583   3.410 -0.2194  0.4052 -0.3590
16607W        W32076  14.058   0.473  11.892 -0.1899  0.0563  0.2675
16608W        W32077   3.527   0.023  14.369  0.1990  0.0336  0.0803
16609W        W32078   4.569   2.538   4.643 -0.1625  0.0842  0.2787
16610W        W32079   8.724   3.178  15.890 -0.0960 -0.1823 -0.1312
16611W        W32080   5.507   6.961  14.236 -0.1019 -0.1250 -0.0892
16612W        W32081   9.442  16.065   1.744 -0.2013  0.1445 -0.1581
16613W        W32082  17.533  12.872  10.969 -0.0251  0.1911 -0.0054
16614W        W32083   8.336  14.916  14.679 -0.0069  0.5563 -0.1339
16615W        W32084   7.012   7.847  16.120  0.0006  0.1089 -0.0495
16616W        W32085   0.612   2.960   3.580  0.4247  0.4240  0.1319
16617W        W32086  14.462   4.684  11.418  0.0650 -0.0643  0.0368
16618W        W32087   1.632   2.277  11.564 -0.1532 -0.0552 -0.1844
16619W        W32088   0.461  15.930   5.039  0.2158 -0.2269  0.1183
16620W        W32089  11.019   1.370  14.092 -0.2438  0.0228  0.0588
16621W        W32090  15.789   5.231  15.491 -0.2175 -0.1219  0.1527
16622W        W32091   5.881   3.476  16.245 -0.0648  0.0972 -0.2584
16623W        W32092   0.524   3.785  16.030  0.1490  0.1139 -0.1016
16624W        W32093   9.030  11.361  15.846 -0.1769 -0.0576  0.1550
16625W        W32094  14.957   7.408   0.144  0.0679  0.0359 -0.0316
16626W        W32095   5.419  13.970   0.549 -0.2554 -0.3732 -0.2325
16627W        W32096  10.021  15.517   2.276  0.1648  0.1803 -0.0103
16628W        W32097   0.419  17.601  12.906 -0.2252 -0.0895 -0.1483
16629W        W32098   4.116   5.605  13.953 -0.0160 -0.0850  0.3193
16630W        W32099   0.036   5.204   5.332  0.0967 -0.0358  0.0613
16631W        W32100  11.071  13.805   0.002  0.2481 -0.1845 -0.0344
16632W        W32101   4.781   1.528  12.763  0.1481  0.0495  0.0471
16633W        W32102   2.247  10.239   4.563 -0.2530 -0.0060  0.1544
16634W        W32103  13.073  12.156   1.672 -0.0443 -0.0952 -0.2757
16635W        W32104  15.089  10.183   5.404 -0.0362  0.0166  0.1221
16636W        W32105   2.076   7.764   3.917  0.1850 -0.0384  0.1289
16637W        W32106   4.545   7.805  14.712  0.0159 -0.0781  0.1110
16638W        W32107  10.374   9.902   4.747 -0.1522  0.3215  0.1471
16639W        W32108   6.961   5.224   5.417 -0.1411  0.0332 -0.3395
16640W        W32109  16.609  16.204   1.515 -0.3271  0.1724 -0.0093
16641W        W32110   0.663  11.806   0.508 -0.0565  0.1155 -0.0731
16642W        W32111   0.045  15.665   4.956  0.3713 -0.0717 -0.1601
16643W        W32112   9.455   0.935   2.327 -0.3823 -0.2544  0.1552
16644W        W32113  10.997  12.852  10.851 -0.2532  0.0204  0.4410
16645W        W32114   3.907   5.067   2.113 -0.0831 -0.1210  0.3277
16646W        W32115   1.689   5.889  13.584 -0.1612 -0.2860  0.1068
16647W        W32116  11.512   4.006  12.079  0.0724  0.1196  0.0087
16648W        W32117   6.566   5.053   0.674 -0.1407  0.1512 -0.0787
16649W        W32118  14.153  18.098  12.097 -0.0591  0.2515  0.1430
16650W        W32119  16.825  17.778   2.549  0.0704 -0.1402 -0.1371
16651W        W32120   5.806   9.109  15.131  0.3166  0.0067  0.0972
16652W        W32121   2.290  12.394   2.200 -0.0159 -0.3501  0.0477
16653W        W32122   9.829   8.933  14.452  0.0228 -0.0220 -0.0427
16654W        W32123   0.112   8.075   3.329  0.0194 -0.2073  0.1035
16655W        W32124  17.982   4.246  12.526  0.2503  0.1969  0.0898
16656W        W32125   5.725   5.958  13.828 -0.0159  0.1207 -0.1084
16657W        W32126  11.426   5.186  15.195  0.3164  0.0163 -0.1397
16658W        W32127   5.117   4.528  12.665  0.0090 -0.2655  0.1543
16659W        W32128  10.114   0.843  12.391  0.0296 -0.0417 -0.3962
16660W        W32129   2.285   2.172  16.063 -0.2071  0.5486 -0.0989
16661W        W32130   1.395  17.391  11.612 -0.2059  0.3415 -0.1528
16662W        W32131   9.830   5.932   3.546 -0.0111  0.0271  0.0273
16663W        W32132  15.145   8.538  14.891  0.1732  0.0223 -0.1644
16664W        W32133   0.711   7.206   4.456 -0.0732 -0.0811 -0.2598
16665W        W32134  10.491   5.736   1.837 -0.2601  0.0981  0.2411
16666W        W32135   5.411  14.072   3.498  0.1450  0.0815 -0.0596
16667W        W32136   0.693  15.061   0.731  0.1638 -0.0611 -0.0152
16668W        W32137   8.330   5.300   0.646 -0.2294 -0.0112  0.0684
16669W        W32138   0.289  17.110  12.949  0.2353  0.1595  0.1879
16670W        W32139  15.447  11.182   4.601  0.0579 -0.2061  0.1620
16671W        W32140  15.914   1.192   5.178  0.0030 -0.0838 -0.1495
16672W        W32141  16.032  14.909   3.923  0.0744 -0.0531  0.0149
16673W        W32142  11.623   3.584  11.352 -0.1167  0.2706  0.0605
16674W        W32143  17.782   8.205  10.977  0.2278 -0.1348  0.3896
16675W        W32144   1.076  17.072   1.070 -0.0481  0.0479 -0.1760
16676W        W32145   2.393   9.813   2.053  0.3984 -0.0913  0.1031
16677W        W32146  17.490   4.560  11.071  0.2431 -0.0840  0.1151
16678W        W32147   8.547   3.623  15.850  0.0843  0.3268  0.0141
16679W        W32148  12.357  15.893  16.285 -0.2704  0.0123  0.0357
16680W        W32149  15.810   2.924   4.409 -0.0271  0.0857  0.1918
16681W        W32150   8.113  15.370  12.643  0.1927 -0.0103 -0.0774
16682W        W32151   8.245  10.324   3.375 -0.1189 -0.1895  0.1023
16683W        W32152  13.254   6.806  14.141  0.0961  0.1562  0.2915
16684W        W32153   2.049  16.991  12.775  0.1187 -0.0383  0.1260
16685W        W32154   5.106   6.095   3.306 -0.0335  0.0444  0.2927
16686W        W32155   9.173  15.565  11.823  0.0365  0.0706  0.1909
16687W        W32156  14.514  18.088  13.528  0.1383 -0.0451 -0.1982
16688W        W32157   8.108   8.429  13.525 -0.1225 -0.1126 -0.0297
16689W        W32158  11.679   6.571   1.372  0.3067 -0.2206 -0.0352
16690W        W32159   0.023  17.221   4.842 -0.2343 -0.0228 -0.1789
16691W        W32160   6.225   4.033  12.118  0.1519 -0.2836  0.0916
16692W        W32161   5.290   4.173   2.187 -0.0826 -0.2394  0.0027
16693W        W32162  10.232   8.543  15.778  0.1330  0.0527 -0.0352
16694W        W32163  10.872   5.715  15.284  0.0135 -0.1537 -0.1605
16695W        W32164  12.361  16.908  14.330 -0.1707 -0.0990 -0.2278
16696W        W32165   5.698  14.889  13.964  0.0408  0.0656 -0.2541
16697W        W32166  15.559   3.681  15.028  0.0175  0.0988 -0.1422
16698W        W32167   2.475  14.418   2.434 -0.0508 -0.0341 -0.0493
16699W        W32168  14.327  11.085   4.916  0.0208 -0.1420 -0.0995
16700W        W32169   3.681   2.448  14.601 -0.0162  0.0866  0.0990
16701W        W32170   1.060   1.128  11.694 -0.1930  0.2890 -0.2550
16702W        W32171   4.016   2.303   2.371 -0.2440 -0.1346 -0.0271
16703W        W32172  12.451   9.580   1.387  0.0470 -0.0533  0.1883
16704W        W32173   7.308   7.771   4.409  0.2405  0.2376 -0.1206
16705W        W32174  10.394  11.336   3.110 -0.0653  0.0831 -0.1598
16706W        W32175   0.582  11.165   4.352 -0.1303 -0.1843  0.1712
16707W        W32176  10.517   6.178   4.801 -0.0201  0.0542 -0.0462
16708W        W32177   3.923  15.162  15.268 -0.0575 -0.1324 -0.0232
16709W        W32178   6.433   3.783  14.453  0.0632 -0.1496  0.1002
16710W        W32179  10.085   8.542  12.761 -0.2651 -0.0783 -0.2182
16711W        W32180   8.129   0.558   5.098 -0.0468  0.1109 -0.4797
16712W        W32181  13.793   1.387   5.836 -0.0286  0.0269  0.1822
16713W        W32182   9.225   3.369   4.382 -0.0239  0.2741 -0.1011
16714W        W32183   2.654  10.518  14.517  0.2750  0.0098 -0.0342
16715W        W32184   4.212   2.163   5.922 -0.0253 -0.0230  0.0181
16716W        W32185  13.367  12.635  15.764  0.0672  0.0613 -0.1848
16717W        W32186  12.778   9.122   3.009 -0.3868 -0.1377 -0.1819
16718W        W32187   6.953  12.288   4.156 -0.1061 -0.0940 -0.1754
16719W        W32188  13.106  10.085   2.647  0.0348 -0.1725 -0.0078
16720W        W32189   1.835  16.206  15.927 -0.0583  0.1030 -0.0811
16721W        W32190  17.098  14.619   1.621 -0.1666  0.0081  0.0428
16722W        W32191   5.327  16.744   1.283 -0.4501  0.0450  0.1474
16723W        W32192   6.870  10.783  15.360 -0.0455 -0.0229 -0.0189
16724W        W32193   0.234   0.488   2.273 -0.1219  0.1526 -0.0337
16725W        W32194  14.082   7.777   3.702  0.2493 -0.3335  0.0484
16726W        W32195  10.440  17.187  11.147  0.1133  0.3036  0.0633
16727W        W32196  13.438  17.735  15.399  0.1369  0.2059  0.1411
16728W        W32197   0.265   5.629   2.156 -0.0506 -0.0765 -0.1217
16729W        W32198   2.194  14.011  13.875  0.0758 -0.1721 -0.0071
16730W        W32199  17.904   2.953  11.792  0.0971  0.1336 -0.0850
16731W        W32200   4.747  12.966  15.521  0.0141 -0.0746  0.0258
16732W        W32201  17.506  14.838  13.178  0.4062  0.2580 -0.3695
16733W        W32202  10.189  15.234  15.581  0.0890  0.0340 -0.0503
16734W        W32203  14.888   7.517   0.635  0.0867 -0.1219  0.1501
16735W        W32204  12.860   6.330  13.203 -0.0552 -0.0813 -0.2020
16736W        W32205  16.585  16.745  13.436 -0.0959  0.2299 -0.1788
16737W        W32206   3.557   9.258  12.202  0.2229  0.2505 -0.0105
16738W        W32207  11.352   5.116  15.786 -0.0246 -0.3011 -0.2045
16739W        W32208   9.697   1.755   1.380 -0.2005 -0.2773  0.0792
16740W        W32209  13.567  11.775   3.544 -0.1204 -0.1528 -0.1891
16741W        W32210   9.908   5.249  16.281  0.1735 -0.1864  0.0216
16742W        W32211   1.106   7.421   2.208  0.1105  0.0218  0.3029
16743W        W32212  18.090  12.058   2.316 -0.3083 -0.5087  0.1785
16744W        W32213   3.626   0.215   2.806 -0.0676 -0.1973 -0.2115
16745W        W32214   4.574   7.506   1.929 -0.0159  0.0706 -0.1568
16746W        W32215  17.410  11.515   3.891 -0.1647  0.1049 -0.1712
16747W        W32216   6.349   8.271   4.939  0.0415  0.0164 -0.0729
16748W        W32217   7.583  12.141  13.931  0.1236  0.0349  0.2935
16749W        W32218  17.189  17.186   0.415 -0.0564 -0.2833  0.0539
16750W        W32219  10.275  10.308   1.647 -0.2974 -0.1442 -0.0232
16751W        W32220  16.293  12.811  14.054  0.2504 -0.0559 -0.3192
16752W        W32221   1.687   9.499   2.686  0.2059 -0.1664  0.3042
16753W        W32222   4.573  15.455   3.471  0.2989  0.0105 -0.2191
16754W        W32223  12.621   3.426   0.113  0.2757  0.1329  0.0784
16755W        W32224   0.915  14.257  12.799 -0.3420  0.1596  0.0020
16756W        W32225   3.642   3.054  15.661 -0.0681  0.2429 -0.0400
16757W        W32226   9.543   4.741   3.081 -0.1850 -0.3351  0.1168
16758W        W32227   3.132  14.802   3.912  0.1092  0.2128  0.1776
16759W        W32228   1.933   4.207   2.872 -0.1274 -0.1860  0.0539
16760W        W32229  15.979   7.064   1.847  0.0788  0.2199  0.1167
16761W        W32230  12.583   4.457  13.044 -0.1273 -0.0787 -0.0935
16762W        W32231   7.051  15.536  13.546 -0.2829 -0.0298  0.0773
16763W        W32232   4.531  10.917   1.114 -0.1105 -0.2375  0.0001
16764W        W32233  11.996  10.193  13.870  0.2576 -0.0655 -0.0026
16765W        W32234   7.567   2.249  13.324  0.2759 -0.0425 -0.0660
16766W        W32235   6.114  13.682   3.665  0.1897 -0.0421 -0.0810
16767W        W32236   5.326   4.864   4.553  0.0888  0.1233 -0.0395
16768W        W32237   9.531   9.484  15.230 -0.0027  0.1292 -0.0266
16769W        W32238  11.839  10.621   4.328  0.0435  0.1540  0.0155
16770W        W32239  10.853   1.365   1.092  0.3517 -0.1289 -0.0647
16771W        W32240   9.115   7.054  15.625 -0.0100  0.1013  0.1980
16772W        W32241  17.923  17.465  11.790  0.0179 -0.0322 -0.0892
16773W        W32242   5.610   9.035   5.052 -0.0375 -0.1304 -0.2424
16774W        W32243   8.532   8.283  12.751  0.4327  0.2265  0.0500
16775W        W32244   9.763   2.300  12.483  0.1048  0.0579 -0.0426
16776W        W32245  14.232  13.948   2.734 -0.0663  0.0185  0.0257
16777W        W32246   0.759  16.095   5.427 -0.1806 -0.0835 -0.0757
16778W        W32247  11.538  12.541   5.320 -0.0955 -0.0862 -0.1572
16779W        W32248  12.552   8.365  14.525  0.0910  0.0467 -0.0788
16780W        W32249   0.211   6.936  14.707  0.4580 -0.2792  0.4086
16781W        W32250   8.124   0.013  14.489 -0.0670 -0.1436  0.0869
16782W        W32251   7.085  13.356   4.992 -0.1844 -0.0690  0.5369
16783W        W32252   6.526  12.721  12.389  0.1883 -0.2926 -0.5053
16784W        W32253  11.986   5.806   0.964  0.1072  0.2999  0.0309
16785W        W32254   6.945   0.554  13.535  0.1283  0.1342 -0.1501
16786W        W32255  11.041  14.202   2.232  0.0110  0.2836 -0.0736
16787W        W32256  14.134   9.689   3.698 -0.0058  0.0009 -0.1255
16788W        W32257   1.299  17.686   5.070 -0.0088  0.1987  0.2157
16789W        W32258   2.114   5.233   2.829  0.0974 -0.0863 -0.1538
16790W        W32259  12.341   2.691  15.728  0.2670 -0.1482 -0.1226
16791W        W32260  13.094  17.977   5.042 -0.2803 -0.0047 -0.0837
16792W        W32261   4.908  14.672  11.082  0.2638 -0.0453 -0.2390
16793W        W32262   0.503   1.726  16.248  0.2073 -0.1806 -0.0427
16794W        W32263   7.390   5.356   2.040  0.3760 -0.1055  0.0577
16795W        W32264   4.791   3.593   0.975 -0.1150  0.0171  0.0818
16796W        W32265  15.277  14.969  12.774 -0.0275 -0.2382  0.3116
16797W        W32266  16.770   5.795   2.761 -0.2457 -0.0795  0.3203
16798W        W32267  10.855  17.989   4.683  0.2282  0.2787  0.1704
16799W        W32268   8.540  16.566   3.899  0.1931  0.1457 -0.0457
16800W        W32269   0.447   3.265   2.583 -0.1094 -0.1012  0.2217
16801W        W32270  13.158   3.417   0.151  0.0584  0.2406 -0.0975
16802W        W32271  16.082   2.488  15.222  0.1628  0.1629  0.1846
16803W        W32272   2.776  14.195   5.122 -0.1626 -0.0653 -0.0551
16804W        W32273  17.942   7.351   1.862  0.1201  0.5348 -0.2965
16805W        W32274   6.612  16.416  11.318  0.1155  0.0570  0.0923
16806W        W32275   7.274   4.887   2.707  0.0560 -0.1003 -0.2445
16807W        W32276   6.538   2.519   1.256 -0.1823  0.0958 -0.0938
16808W        W32277   3.679  15.068  12.777 -0.0176 -0.1028 -0.1257
16809W        W32278   3.202  14.805   4.755 -0.0019 -0.2868  0.2474
16810W        W32279   6.918   5.434   0.676  0.2775 -0.1542 -0.1499
16811W        W32280  12.174  15.623   2.839  0.1268 -0.2986 -0.0943
16812W        W32281  10.395  15.100   4.595 -0.1200  0.0886 -0.1284
16813W        W32282  11.325   5.931  14.847  0.0603 -0.0445 -0.1121
16814W        W32283  16.809  13.715   1.912 -0.5822  0.0701 -0.1650
16815W        W32284  12.859   3.245   2.340 -0.1743  0.0021 -0.2962
16816W        W32285  14.245  11.165   0.824 -0.0300  0.2312 -0.2919
16817W        W32286  10.128  14.444   1.261  0.2935  0.3056  0.2114
16818W        W32287  15.594   7.197   4.763 -0.1361  0.0462  0.1909
16819W        W32288  14.729   9.529   4.240  0.1718  0.1011 -0.0223
16820W        W32289   0.819   9.938   3.366 -0.2186 -0.1227  0.0045
16821W        W32290  15.674  12.146   5.895  0.2297 -0.1969 -0.0118
16822W        W32291   0.423   2.018   2.284  0.1069  0.0324  0.0322
16823W        W32292  13.270   4.120  15.927  0.1009 -0.0070  0.0580
16824W        W32293   6.895  15.952   4.750  0.0036  0.0623  0.1320
16825W        W32294   2.004   3.011  11.210 -0.3295  0.0745  0.2267
16826W        W32295   6.060  17.103   3.897 -0.1035 -0.0252  0.0657
16827W        W32296   5.580   4.422   3.324  0.0699  0.0787 -0.1827
16828W        W32297   0.475   9.990  10.925  0.1047 -0.2545  0.2164
16829W        W32298   7.977   8.049   2.181  0.1551 -0.2087 -0.3049
16830W        W32299  15.617   3.834   4.546 -0.1442 -0.0758  0.0446
16831W        W32300  12.971  15.428   1.798  0.3945  0.0550  0.2670
16832W        W32301   1.228  12.903  10.788  0.4878 -0.1392  0.1875
16833W        W32302   4.315   3.029  13.109 -0.0592 -0.0765 -0.0967
16834W        W32303   7.534   1.483   4.161  0.0680 -0.0593 -0.0760
16835W        W32304   4.478  13.667   5.232  0.0891  0.0500  0.3481
16836W        W32305  13.769  13.724   2.875  0.0948 -0.2317  0.3169
16837W        W32306   1.439  10.706   4.693  0.0767  0.2605  0.2777
16838W        W32307   1.780  16.766   4.807 -0.0865  0.1617 -0.1363
16839W        W32308   6.649  16.640   1.161  0.0260 -0.0124 -0.1416
16840W        W32309  10.435   6.665   1.727 -0.0674 -0.0932 -0.0301
16841W        W32310   7.873   5.417   0.947  0.0928 -0.1611 -0.1126
16842W        W32311  14.537  15.822   4.972  0.1155  0.0955  0.1869
16843W        W32312   1.537  13.399  15.716 -0.1326  0.0488  0.1164
16844W        W32313   2.015   3.658   3.505  0.1844  0.1103 -0.1180
16845W        W32314   4.369  14.323   0.889 -0.3682 -0.2708 -0.1597
16846W        W32315  14.378  12.318   1.972  0.0639 -0.0888  0.3761
16847W        W32316   8.395   1.520   0.131  0.2083 -0.1710 -0.4665
16848W        W32317   3.480   3.212  16.089 -0.0258 -0.0580  0.0741
16849W        W32318   4.823  10.836   3.485 -0.2112 -0.0143 -0.0749
16850W        W32319   8.948  10.086  11.569  0.1130 -0.3381 -0.3742
16851W        W32320  15.405   2.206  11.192  0.0913 -0.1871 -0.2052
16852W        W32321   5.612   7.463  11.726 -0.2072  0.1025 -0.2760
16853W        W32322  12.933   9.209  14.849  0.1107 -0.2259  0.0600
16854W        W32323   5.624   3.161   5.671  0.0788  0.0490 -0.0489
16855W        W32324   4.563   9.835   3.705  0.2064  0.2499 -0.0907
16856W        W32325   7.578  14.393   3.407 -0.3887 -0.3406 -0.1414
16857W        W32326   3.400   1.174   4.090 -0.2066  0.2517  0.1295
16858W        W32327  16.523   1.624   2.134 -0.3899 -0.1379  0.0683
16859W        W32328  16.361   8.051   0.668  0.1915  0.1619 -0.0250
16860W        W32329  17.709   3.247   0.061  0.2461  0.1396  0.0710
16861W        W32330   2.775   0.969   1.948 -0.2060 -0.1296 -0.0007
16862W        W32331   3.946  11.642  14.331 -0.1907  0.0210  0.1597
16863W        W32332  14.004  10.551  14.029 -0.3145 -0.0012 -0.1275
16864W        W32333   4.506  12.939   0.035 -0.3192 -0.1816 -0.1920
16865W        W32334   4.255   1.842   2.297  0.0741  0.0539 -0.0800
16866W        W32335   1.605  16.587  14.591  0.4465 -0.1506 -0.1920
16867W        W32336   5.908  10.917  12.813  0.0764  0.0153 -0.0233
16868W        W32337  10.691  12.246  11.434 -0.2646  0.0304  0.3830
16869W        W32338  15.186   5.543   4.769  0.2016  0.0256 -0.1406
16870W        W32339  12.377  15.322  12.937 -0.4311 -0.1821  0.0928
16871W        W32340  17.826  10.083  15.569  0.0479 -0.1619 -0.1271
16872W        W32341   6.575  10.046   5.395 -0.1454  0.0652 -0.1584
16873W        W32342   3.432   1.224   5.066 -0.0497  0.0180  0.1443
16874W        W32343   1.184   9.329  14.017 -0.2710  0.3252  0.1394
16875W        W32344   8.213   7.124   1.182 -0.0472  0.2003 -0.1366
16876W        W32345  12.957   6.368  15.505 -0.0541 -0.1623 -0.0692
16877W        W32346   1.894   0.513   2.090 -0.0869 -0.1261 -0.2791
16878W        W32347   7.607   4.444   1.877 -0.1070  0.0622  0.0036
16879W        W32348  11.128  17.370   3.938 -0.1482 -0.1799 -0.1700
16880W        W32349  14.801  17.724  14.340  0.4179  0.1349 -0.3147
16881W        W32350   0.742  10.925  10.706  0.0986  0.2746  0.0030
16882W        W32351  14.480   7.428   5.796 -0.4366 -0.0392 -0.0726
16883W        W32352  11.413   7.309   5.920 -0.0728  0.0713  0.1435
16884W        W32353   5.353  16.378  15.030 -0.1370 -0.1170 -0.4086
16885W        W32354  12.821  10.112  14.514  0.2516  0.2053  0.2509
16886W        W32355   3.697   3.818  15.103  0.1404  0.0305  0.0008
16887W        W32356   5.482   2.074   2.602 -0.2864 -0.3019 -0.0042
16888W        W32357   4.635   6.461   0.496  0.2415  0.1867  0.3308
16889W        W32358   5.195   7.208   0.158 -0.4752  0.1448  0.0785
16890W        W32359   7.827  10.024  11.253  0.0816  0.1725 -0.0037
16891W        W32360   6.754   7.431  15.999  0.1914  0.0944 -0.3701
16892W        W32361   6.225  12.428   5.152  0.1684 -0.3341  0.1158
16893W        W32362   1.450   5.917   3.512 -0.0131 -0.0128  0.3137
16894W        W32363   5.098   7.900   5.376 -0.1050 -0.1576 -0.3123
16895W        W32364   7.456   4.708  12.046 -0.1195 -0.0984 -0.0679
16896W        W32365   9.212   7.490  10.953 -0.1100 -0.1179 -0.0126
16897W        W32366  14.836  10.790  13.211  0.0232  0.0340 -0.0550
16898W        W32367  10.457   6.686   4.166 -0.0732  0.0324  0.3083
16899W        W32368   9.015   8.814   0.320  0.0249  0.1632  0.1680
16900W        W32369  18.023  14.538   5.395 -0.1371 -0.0790 -0.2431
16901W        W32370   2.862  14.300  14.958 -0.0152 -0.1724  0.1645
16902W        W32371   5.299   7.605   2.504 -0.0729  0.0045 -0.0592
16903W        W32372   1.200  16.040   4.516  0.2266  0.0571 -0.0224
16904W        W32373   5.893   4.395  13.176 -0.1572  0.1238  0.0547
16905W        W32374   6.544   6.929  12.867 -0.1660  0.2038 -0.0903
16906W        W32375  17.917   6.459  16.256 -0.0653 -0.1827  0.3314
16907W        W32376   2.378   7.990  14.145  0.2961  0.0067  0.1299
16908W        W32377  12.652  11.751  13.012  0.0815 -0.2572  0.4086
16909W        W32378  14.180   4.500  13.564  0.1005 -0.0812 -0.1214
16910W        W32379  14.419  12.662  15.631  0.3930  0.3040  0.3086
16911W        W32380   2.361   4.372   3.965 -0.1927 -0.0343 -0.1190
16912W        W32381   4.130   8.994   1.409  0.1284  0.1570  0.0679
16913W        W32382  16.553   7.530  11.268  0.0187 -0.0306 -0.0292
16914W        W32383  13.682  13.007  10.425 -0.2122 -0.0635  0.1306
16915W        W32384  15.145   9.952  13.554 -0.0937  0.1321 -0.1972
16916W        W32385  17.202  15.039   3.927 -0.2069 -0.0140  0.2512
16917W        W32386   7.689   9.673   5.331 -0.0082 -0.1517 -0.0440
16918W        W32387  13.635  16.648  12.568  0.0722 -0.0403  0.0656
16919W        W32388   5.934   1.254  14.541 -0.4035  0.0997  0.4076
16920W        W32389   5.329   1.240   2.543 -0.1478 -0.1816 -0.0697
16921W        W32390   2.128  14.000  12.087 -0.2893  0.2697  0.1382
16922W        W32391  13.903   4.534  14.891  0.1501  0.2467 -0.0612
16923W        W32392  17.262  11.557   3.414  0.1437  0.0075  0.0547
16924W        W32393   1.807  12.923   2.631 -0.1492  0.3505 -0.2290
16925W        W32394   1.086  10.014  14.415 -0.0674  0.0523  0.3100
16926W        W32395  17.239   1.366  13.032  0.0426  0.0469 -0.1009
16927W        W32396   1.040   8.134   4.142  0.0588 -0.0402  0.2730
16928W        W32397   4.978   2.381   3.410 -0.1644 -0.0567  0.0871
16929W        W32398   5.527  10.080  13.199  0.5076  0.0256  0.0570
16930W        W32399   4.835   4.432   5.606 -0.0561 -0.1182  0.2087
16931W        W32400  17.032  14.018  15.527 -0.3390 -0.0571 -0.0150
16932W        W32401   2.178  16.928  13.987 -0.0945 -0.0022 -0.0391
16933W        W32402   5.720  10.164   0.662 -0.4610  0.1527  0.1613
16934W        W32403   7.248   0.105   1.335  0.0333 -0.1510 -0.0640
16935W        W32404   8.834  15.732  12.859 -0.1499 -0.3737  0.2097
16936W        W32405  17.643   7.456   0.415 -0.1606  0.0582  0.0510
16937W        W32406  15.708   8.726   0.803  0.0477 -0.0096  0.3581
16938W        W32407  14.849   9.364  12.950 -0.1929  0.1624  0.0044
16939W        W32408  17.268   5.152   3.322  0.1196 -0.0258  0.3301
16940W        W32409  12.457   4.087  14.294 -0.1256  0.2141  0.2877
16941W        W32410   5.495   1.695  13.202  0.1337 -0.3377  0.0515
16942W        W32411   1.579  11.718   1.938 -0.0294 -0.1153 -0.0581
16943W        W32412   1.074  16.579   2.322 -0.1571 -0.1893  0.4659
16944W        W32413   6.134  13.518   4.143  0.0048 -0.0917  0.3590
16945W        W32414  16.033   2.748   5.089  0.0365 -0.0832 -0.1365
16946W        W32415  16.477  11.961  11.480  0.0635  0.1029 -0.1485
16947W        W32416   6.559  17.417   4.303 -0.3351 -0.3861  0.3847
16948W        W32417  13.917  17.221   5.611 -0.0644 -0.3571 -0.1196
16949W        W32418   9.412  14.849   4.740 -0.2873  0.1721 -0.3408
16950W        W32419  10.086   6.813  15.726  0.2081 -0.3306  0.3770
16951W        W32420   4.222   9.454  13.938  0.0436 -0.5241  0.0648
16952W        W32421   4.556  15.861  15.380  0.2304  0.1802  0.1828
16953W        W32422  15.080  12.008  14.991  0.2182  0.1454 -0.1504
16954W        W32423  12.213  12.234  11.222 -0.2250 -0.1700 -0.0626
16955W        W32424  13.556   2.038  15.624  0.1040  0.0143  0.0909
16956W        W32425  16.464   0.887  13.851  0.0597 -0.0004 -0.2665
16957W        W32426   3.451   2.734  12.985 -0.3165  0.0023 -0.2200
16958W        W32427   3.484   1.785   1.846  0.1353 -0.0167 -0.2157
16959W        W32428   0.166  12.586  11.489 -0.1455 -0.0880 -0.1362
16960W        W32429   6.053  12.692  11.569  0.1691  0.1836  0.0704
16961W        W32430   6.270   3.393   4.333 -0.2609 -0.1162  0.0402
16962W        W32431   7.253  15.592   0.959  0.3017  0.1299 -0.4587
16963W        W32432  16.980   0.542  11.967 -0.0384  0.2173  0.0411
16964W        W32433   6.109   0.465  11.135  0.0165  0.0070 -0.0367
16965W        W32434  12.085  13.128   2.156 -0.0137 -0.0871 -0.2461
16966W        W32435  16.825   7.428  10.828 -0.2226 -0.5252 -0.0534
16967W        W32436  17.026   1.955   4.997 -0.1665 -0.2031  0.0054
16968W        W32437   7.994  15.250  13.159 -0.2271 -0.0554  0.0970
16969W        W32438  13.534  11.357  16.018  0.0900  0.2040  0.0829
16970W        W32439  17.214  10.676   1.355  0.1334 -0.3089  0.1493
16971W        W32440   5.127  10.384  11.383 -0.3624 -0.0903  0.2780
16972W        W32441   8.839   0.680  11.168  0.1934  0.0618 -0.1725
16973W        W32442  13.750   1.615  10.694 -0.0944 -0.0727 -0.1898
16974W        W32443   6.165  13.694  13.955 -0.0115 -0.1650  0.2133
16975W        W32444  14.837   2.698   1.171  0.1759  0.1615  0.0771
16976W        W32445   9.350   4.048  12.965  0.2226  0.1447 -0.1028
16977W        W32446  16.897   0.113   2.874  0.0228  0.1782 -0.1709
16978W        W32447  15.657  17.534   0.168  0.2442  0.0627 -0.2353
16979W        W32448   1.996   4.382  11.278 -0.0172  0.1132 -0.2507
16980W        W32449  11.302   4.673   6.297  0.1217 -0.2264 -0.2172
16981W        W32450  12.333  14.339  12.187  0.0437 -0.0195 -0.3861
16982W        W32451  17.569   9.889  11.592 -0.3666 -0.2474 -0.0765
16983W        W32452  15.677   9.667   0.471 -0.0035  0.2941  0.2313
16984W        W32453  16.289  15.157  11.706 -0.0483 -0.2728 -0.1267
16985W        W32454   4.440   4.936  15.685 -0.4600 -0.1156 -0.1445
16986W        W32455   4.610   2.393   2.027 -0.2094 -0.0000 -0.0158
16987W        W32456   7.863   6.818  16.198  0.3639  0.4026  0.0013
16988W        W32457  17.834   7.172   0.781  0.0422  0.1208  0.2206
16989W        W32458  12.249   6.136   2.072  0.0471  0.2413  0.4437
16990W        W32459  16.405  15.964   3.389 -0.1138 -0.0622  0.0425
16991W        W32460   3.542   3.708  16.105 -0.0216 -0.0985  0.1150
16992W        W32461  13.784  11.625   4.209  0.0511  0.0031  0.0669
16993W        W32462  16.972  12.346  12.735  0.2943 -0.1239  0.0354
16994W        W32463  11.500   2.128   2.321 -0.2449 -0.0117  0.0726
16995W        W32464  10.029   9.233   1.315 -0.1209  0.0191  0.0986
16996W        W32465   2.081   8.395  15.960  0.2117 -0.1056  0.0479
16997W        W32466   7.257   5.779   5.525  0.0870 -0.3318 -0.0317
16998W        W32467   8.540  15.153   2.148  0.1986  0.0049  0.2868
16999W        W32468  10.656   7.673   1.303  0.1071  0.2214  0.1043
17000W        W32469   9.637  14.215  12.013 -0.0095 -0.0959 -0.0719
17001W        W32470  10.019  15.411  10.329  0.0328  0.1200  0.1880
17002W        W32471  12.294  11.892  13.375 -0.0934  0.3566  0.0106
17003W        W32472   9.044   2.016  16.093  0.0787  0.0620  0.2162
17004W        W32473  16.736   1.511   4.117 -0.0585  0.4858  0.1547
17005W        W32474   8.550  12.449  11.326  0.0392 -0.0707 -0.0192
17006W        W32475  14.143   4.267  16.158 -0.0002 -0.1304  0.3390
17007W        W32476  10.019   5.292  15.399  0.0659  0.0610 -0.1710
17008W        W32477   1.167  15.161  10.866  0.2316  0.1634  0.1760
17009W        W32478   8.067   3.051  15.039 -0.3763 -0.1615 -0.1147
17010W        W32479   9.613   9.061   1.710  0.1025  0.2095  0.2165
17011W        W32480   3.205  13.126  12.140  0.1144  0.0301 -0.1038
17012W        W32481  14.704   2.906   4.644  0.2806  0.2809 -0.2414
17013W        W32482  12.887   2.685   2.183  0.1396  0.3118 -0.0119
17014W        W32483   1.160   6.227  12.789 -0.0275 -0.1764 -0.3476
17015W        W32484   6.199   3.590  11.778  0.0226 -0.1517  0.1022
17016W        W32485   8.420   0.082  13.255 -0.0805  0.3124  0.0357
17017W        W32486   5.400  16.730  12.348 -0.3919  0.0538  0.0696
17018W        W32487  11.095  14.087   0.441 -0.1364  0.1866 -0.2226
17019W        W32488  14.515  17.868   5.214 -0.1172  0.1442  0.0081
17020W        W32489  15.265   2.160  10.700 -0.0885 -0.0901  0.2841
17021W        W32490   7.950   3.723  11.505  0.3099  0.1768 -0.0961
17022W        W32491  11.549   9.826   5.531 -0.0289  0.0665  0.1760
17023W        W32492   8.327   0.078   4.429  0.3443 -0.1500 -0.2659
17024W        W32493   1.617   4.161   4.232 -0.1319  0.0068 -0.0486
17025W        W32494   5.147  14.159  10.494 -0.1680  0.2291  0.0162
17026W        W32495  14.585  16.512  12.233  0.1173 -0.0280 -0.0927
17027W        W32496  16.362  11.024  11.021  0.0850 -0.1776 -0.1464
17028W        W32497   8.878   7.771   1.319  0.0097  0.0524  0.0884
17029W        W32498  17.368  17.442   5.198  0.0847 -0.1963 -0.0785
17030W        W32499   6.872  14.405   2.690  0.3115 -0.1375  0.0187
17031W        W32500  14.183   6.364   2.545  0.0077  0.2427 -0.0615
17032W        W32501  10.852  15.205  12.885 -0.2934  0.2033 -0.0703
17033W        W32502  16.818   0.498  15.544 -0.2467  0.1746  0.3334
17034W        W32503   1.022  16.691  14.577 -0.2315 -0.3467  0.1237
17035W        W32504   8.720   0.444   2.594 -0.1896  0.1256  0.0954
17036W        W32505  12.898  17.154  14.400 -0.2241  0.1057  0.2802
17037W        W32506  17.673  15.818  14.492  0.0317  0.1261 -0.0243
17038W        W32507   6.076   9.344   0.440 -0.0815  0.0136  0.0958
17039W        W32508  14.781   5.785  14.290 -0.0745  0.1381 -0.1287
17040W        W32509   7.976   0.550   3.286  0.0858 -0.0418  0.0174
17041W        W32510  16.788  14.218   0.268  0.0913 -0.2076 -0.1115
17042W        W32511   5.762   5.019   3.251 -0.0069 -0.2156  0.0886
17043W        W32512   8.738   9.989   1.576 -0.1706 -0.1823  0.1995
17044W        W32513   4.791   0.498  14.768 -0.0391 -0.1352 -0.3572
17045W        W32514   6.102  15.019   3.870  0.2220  0.1441  0.0910
17046W        W32515  10.346   0.089   4.284 -0.0171 -0.2233  0.1453
17047W        W32516   2.676  11.702  12.819  0.2659 -0.0587  0.1094
17048W        W32517   4.210   7.573  12.171 -0.0093 -0.2106 -0.3031
17049W        W32518  15.144  15.454   3.628  0.3191 -0.0388 -0.0227
17050W        W32519  13.760  13.867  16.075  0.1280 -0.0830 -0.0279
17051W        W32520   2.649   9.347   1.110  0.1981 -0.0281 -0.2123
17052W        W32521  16.461  14.151  11.508  0.3243 -0.0006  0.0046
17053W        W32522   1.369   3.088   4.629  0.0548 -0.2878 -0.1494
17054W        W32523   1.872   1.919  11.202  0.4078 -0.1806  0.1813
17055W        W32524   8.812   0.030   2.966 -0.3215  0.1988  0.1593
17056W        W32525  16.198   9.746  10.930 -0.0434 -0.1395  0.1616
17057W        W32526  13.408   6.712  15.770 -0.1221  0.1694 -0.0393
17058W        W32527  15.037   4.967  12.743 -0.2507 -0.0605  0.0003
17059W        W32528   5.858   2.646   5.770  0.1202 -0.0170  0.1043
17060W        W32529  16.494   4.978  15.611 -0.2200 -0.0556  0.0728
17061W        W32530  17.471  10.976   3.915  0.0918  0.0589 -0.0594
17062W        W32531   7.072   0.061   5.637 -0.1426  0.0646 -0.3634
17063W        W32532  12.185   5.867   1.518  0.1125 -0.1563  0.1167
17064W        W32533   3.952  17.910   2.707 -0.0274  0.1435  0.1461
17065W        W32534  10.943  16.591   4.561 -0.2064  0.2743 -0.0793
17066W        W32535  13.587   3.851  15.612  0.1203 -0.4614  0.0178
17067W        W32536   9.363   9.444  13.606 -0.2479  0.0383 -0.1146
17068W        W32537   5.904   4.954  16.221 -0.2954 -0.2088 -0.1856
17069W        W32538   5.671   8.561   5.286  0.1341 -0.0682  0.0648
17070W        W32539  10.921  13.178   1.268 -0.0882 -0.1381 -0.1031
17071W        W32540  12.771  10.224  14.964  0.0658  0.0973  0.0256
17072W        W32541   8.664  12.710   0.143  0.2387 -0.2842  0.0680
17073W        W32542  11.459   3.786   0.636  0.0985 -0.0089  0.3003
17074W        W32543   3.856   2.974   5.436  0.4988 -0.2390  0.0997
17075W        W32544  13.515  11.678  12.404 -0.2310 -0.0458 -0.2149
17076W        W32545  15.152  13.658   1.734  0.1477  0.3197 -0.0566
17077W        W32546  17.081   5.874   0.958 -0.3349  0.1258  0.0679
17078W        W32547  12.790   6.155   4.304  0.2323  0.0502  0.4050
17079W        W32548  15.331  15.042   5.340 -0.0351  0.2800 -0.0875
17080W        W32549   4.260  11.867   0.789  0.1442  0.2577 -0.0325
17081W        W32550  18.056   9.045  14.770  0.3707  0.0999  0.3603
17082W        W32551  13.348   9.224  14.090  0.3343 -0.0233 -0.1275
17083W        W32552   8.284  14.230   4.629  0.0594  0.1130 -0.0875
17084W        W32553   2.333  10.466  15.580 -0.1713 -0.0983  0.0495
17085W        W32554   3.155   3.768  13.625  0.3129 -0.2425  0.4281
17086W        W32555  16.680  14.984  11.438 -0.0445 -0.0249 -0.1822
17087W        W32556  12.047   2.638   0.203 -0.1603  0.1771  0.0082
17088W        W32557  12.419  17.728  15.033 -0.0878  0.0194  0.1192
17089W        W32558   2.981   4.846  14.534 -0.1155  0.0330  0.2623
17090W        W32559  14.931   5.860  12.826 -0.4812  0.2611 -0.1832
17091W        W32560   8.991   5.845   3.542  0.1622  0.0274  0.0499
17092W        W32561   5.944   6.186  11.358 -0.0190  0.0720 -0.1439
17093W        W32562   8.480   0.675  12.009  0.1258  0.3274 -0.0270
17094W        W32563  14.830  15.092  15.111 -0.0054 -0.0587 -0.1320
17095W        W32564   8.159  14.728   3.173  0.0043 -0.0649 -0.0376
17096W        W32565  15.393   7.864   0.737 -0.2783  0.1205  0.1377
17097W        W32566   7.118  18.014  14.079 -0.2459  0.0777 -0.4794
17098W        W32567  11.198   8.925  12.031 -0.1422  0.0835  0.4202
17099W        W32568   7.265   6.783  13.741 -0.0064 -0.1374  0.0797
17100W        W32569  17.029   6.184   6.368  0.0582  0.5705 -0.0860
17101W        W32570   8.779   7.354   6.470 -0.0484 -0.0099  0.0507
17102W        W32571   2.056   6.356  11.361 -0.2053 -0.0755 -0.1448
17103W        W32572   5.803  10.814   0.397  0.2512  0.1370  0.0476
17104W        W32573   2.872   1.744   1.415 -0.0920  0.0607 -0.0400
17105W        W32574  16.972   7.207  16.234 -0.2676  0.0587  0.0297
17106W        W32575  10.862   5.305  11.312  0.4175 -0.0684  0.2168
17107W        W32576  11.114   6.736   5.332  0.0664 -0.0336  0.0925
17108W        W32577  16.389  10.462   3.453 -0.1403  0.0479  0.2765
17109W        W32578   9.379  15.590  10.939  0.0023  0.1046 -0.3361
17110W        W32579   2.139  10.810  15.899  0.1337 -0.0226  0.1912
17111W        W32580  16.760   1.390   9.791  0.0595  0.0278 -0.1979
17112W        W32581   5.018  11.283  11.725 -0.0628  0.1628 -0.0154
17113W        W32582  17.805   5.369  15.660 -0.0949 -0.0154 -0.1348
17114W        W32583   5.323  10.249   1.674  0.0086  0.1150  0.0887
17115W        W32584  13.540  15.901  10.382  0.3595 -0.0017  0.4032
17116W        W32585  14.410   7.258   2.091  0.2033  0.0720 -0.0844
17117W        W32586   4.847  12.534  15.243  0.1901  0.0208  0.0641
17118W        W32587  13.548  10.062   2.412  0.1308  0.0911  0.0653
17119W        W32588  13.916  16.689   5.493  0.3241  0.3895 -0.1806
17120W        W32589   4.743   4.765   2.739 -0.1882 -0.0240  0.0964
17121W        W32590  10.196  12.602  12.799 -0.1836  0.2870 -0.1391
17122W        W32591  10.841  15.019  10.620  0.0937 -0.0896  0.0456
17123W        W32592  13.918   3.855  14.393 -0.1602  0.0165  0.1090
17124W        W32593  17.717   6.110   5.493  0.0414 -0.0840 -0.1249
17125W        W32594  10.013   3.211  13.036  0.0384  0.2351  0.0333
17126W        W32595   7.092   2.630  12.715  0.2860 -0.0719 -0.0204
17127W        W32596  11.235  15.010   5.561 -0.0222 -0.2383 -0.1623
17128W        W32597   4.329   5.437   3.906  0.0561 -0.0544  0.1416
17129W        W32598   3.697  17.421   2.667  0.0592 -0.0610  0.2443
17130W        W32599   1.774   5.759  12.377  0.1233  0.0078 -0.1414
17131W        W32600   5.689   1.440  13.555  0.3261  0.0213 -0.0027
17132W        W32601  17.113   7.250   1.424  0.0428  0.0536 -0.0253
17133W        W32602   8.067  13.703   6.010  0.1990  0.2563  0.2722
17134W        W32603  12.823  14.139   3.429  0.2375 -0.0032 -0.4537
17135W        W32604  12.887   2.219  15.102  0.0415 -0.2799 -0.2680
17136W        W32605   1.226  12.860  13.584  0.0751 -0.1214  0.1576
17137W        W32606   1.075  17.535  14.538 -0.0303  0.1881 -0.0352
17138W        W32607   7.919   8.879  14.450  0.0069  0.1620 -0.2308
17139W        W32608  15.143  13.932   0.892  0.1145  0.0980 -0.3292
17140W        W32609   2.106   7.825  15.752  0.0212 -0.0263 -0.1642
17141W        W32610  13.209  13.722   5.958  0.0465  0.3523  0.4091
17142W        W32611   6.346   7.703  12.780 -0.2033  0.0376 -0.1241
17143W        W32612   9.288   2.402   6.316 -0.0354  0.0273 -0.0938
17144W        W32613  17.459  17.854   4.918 -0.4865  0.0101 -0.1855
17145W        W32614  13.813   1.781  11.849 -0.0405  0.2326  0.2430
17146W        W32615  16.210   2.558   0.822  0.1300 -0.2554 -0.0964
17147W        W32616  17.984  14.061   2.735  0.1146  0.0197  0.3143
17148W        W32617  16.990   7.289  13.025  0.2579  0.1907 -0.0028
17149W        W32618   9.751   7.354   3.717  0.1860  0.1590  0.0919
17150W        W32619  17.083  10.602  14.000 -0.1786  0.1948  0.3739
17151W        W32620   0.243   9.418  12.516  0.0643 -0.0463  0.1469
17152W        W32621  17.743   1.158  13.288  0.2744  0.1825 -0.2199
17153W        W32622  12.247   7.750  12.715  0.0289  0.0911 -0.2264
17154W        W32623  14.621   3.089  11.516 -0.2549 -0.0598  0.1317
17155W        W32624  16.940   3.099  16.020  0.1562  0.1622 -0.1710
17156W        W32625   4.024  14.201  13.695  0.0210  0.0269 -0.2616
17157W        W32626   0.786   5.925   0.255 -0.1462  0.1532 -0.0812
17158W        W32627  16.074  14.666  12.693  0.2003 -0.0691  0.1995
17159W        W32628   2.141  12.933  12.452  0.0883  0.0937 -0.4754
17160W        W32629   9.381  12.114  13.910  0.1442 -0.1046 -0.0484
17161W        W32630   7.402  14.095  14.071  0.0746 -0.2193 -0.0530
17162W        W32631  13.205   7.425  15.143 -0.0340  0.1731  0.0085
17163W        W32632   1.725   1.062  16.081 -0.2879  0.0186 -0.0836
17164W        W32633  13.310  14.174  11.490 -0.0232 -0.1830 -0.2575
17165W        W32634  14.100  13.745   1.920 -0.2623 -0.1416  0.4428
17166W        W32635   9.259   1.874   1.702 -0.1165 -0.0124 -0.2225
17167W        W32636   5.470   9.580  11.604  0.1286  0.0171 -0.1121
17168W        W32637   1.995  13.488  15.580  0.1458 -0.2195  0.1980
17169W        W32638  15.500   7.882   1.581  0.0117 -0.1183  0.3421
17170W        W32639  12.151   7.016   3.246 -0.1779  0.1477  0.0211
17171W        W32640  14.268   4.501  12.762 -0.0611 -0.1943  0.1432
17172W        W32641  11.577  14.618   3.535  0.1333  0.0629 -0.0871
17173W        W32642  16.697   0.580   4.000  0.2160 -0.2789  0.1527
17174W        W32643  10.188   0.856  16.321 -0.1799  0.1492  0.1886
17175W        W32644   3.323   5.889  12.758 -0.5117 -0.1730  0.0760
17176W        W32645   8.770   9.936   4.641 -0.1347 -0.0268 -0.0531
17177W        W32646  14.719  10.845   4.706  0.1212 -0.1284 -0.3683
17178W        W32647   7.415   0.830  16.142  0.0730  0.2217  0.0981
17179W        W32648  16.397   2.544  11.308  0.1885 -0.0032  0.0989
17180W        W32649  14.035  14.100   2.303 -0.2546  0.0789  0.1572
17181W        W32650   6.566  15.620   2.560  0.0518 -0.0815 -0.0666
17182W        W32651  15.537  17.396  13.137  0.3641 -0.0948  0.1149
17183W        W32652  17.571   5.474   3.074 -0.3745 -0.0635 -0.0734
17184W        W32653  12.918   9.029   0.816 -0.1703  0.0082  0.2855
17185W        W32654   2.052  11.800   4.837  0.1017  0.0456 -0.1811
17186W        W32655   0.967   3.510  13.407  0.1479 -0.0789  0.0465
17187W        W32656   4.554   1.592  10.812 -0.1502  0.0919 -0.4024
17188W        W32657   4.153  13.993  12.464  0.5811 -0.0880 -0.3595
17189W        W32658   7.396   0.550   1.623 -0.0694 -0.0745  0.0598
17190W        W32659   6.162  13.563   1.116  0.1515  0.0418 -0.0723
17191W        W32660   6.808  17.914  15.128  0.0441  0.1158 -0.2757
17192W        W32661   3.059   8.751  14.259 -0.1658  0.0452  0.0205
17193W        W32662   3.034   7.994   3.664 -0.1693  0.2726 -0.1382
17194W        W32663   8.442   5.443   1.153 -0.1618 -0.1297 -0.3346
17195W        W32664   5.156  13.820  14.890  0.3769 -0.2384 -0.0282
17196W        W32665  11.909  15.247  12.883 -0.1921 -0.1186  0.3983
17197W        W32666  10.961  15.597   0.317 -0.4116 -0.3740  0.2166
17198W        W32667  16.264   4.249   1.712  0.0363 -0.4493  0.1003
17199W        W32668   5.768  15.830  12.313  0.2570  0.1051  0.0030
17200W        W32669   2.377  14.147   5.416 -0.0102  0.2030 -0.0535
17201W        W32670   6.226   2.287  13.255  0.0137  0.1205 -0.0849
17202W        W32671  16.019   2.116   0.637 -0.0910  0.0593  0.1450
17203W        W32672   2.471   8.178  10.378  0.0215 -0.1735 -0.0913
17204W        W32673  11.527   1.138  10.649 -0.0257 -0.0987  0.0496
17205W        W32674  11.859  12.637  12.131 -0.0727 -0.0891 -0.2879
17206W        W32675   5.266   8.368   0.011 -0.1976  0.0920 -0.2230
17207W        W32676  17.849   6.417   1.212  0.2159  0.1635 -0.0873
17208W        W32677   6.951   1.889   3.742 -0.1246  0.3092 -0.0243
17209W        W32678   7.519  16.747  13.310 -0.0163  0.0745 -0.0264
17210W        W32679   9.765   2.880   3.732 -0.0761  0.0469 -0.0301
17211W        W32680   3.524   3.152   0.673  0.3558  0.1754  0.1572
17212W        W32681  14.706   6.475   1.427 -0.1022 -0.4525  0.0149
17213W        W32682   5.338  17.647   4.379 -0.2101 -0.0773  0.0039
17214W        W32683   8.341   4.569  16.280 -0.1986 -0.2880  0.2897
17215W        W32684   4.161  15.884  15.061  0.3096 -0.0847  0.0853
17216W        W32685   6.922   8.958  15.086  0.0438  0.1982  0.0799
17217W        W32686   2.727   3.892  12.010 -0.0592  0.3048  0.2367
17218W        W32687  10.480   1.950   4.698 -0.2518  0.2818 -0.1870
17219W        W32688   9.540  10.354   5.802  0.1578 -0.0499  0.3462
17220W        W32689  12.900   9.578   2.855 -0.1138  0.2379  0.2551
17221W        W32690  16.590   6.842  16.260  0.3200 -0.0877  0.0050
17222W        W32691   7.827   3.306   1.394 -0.1871  0.0989 -0.3049
17223W        W32692  11.721  16.306  11.125  0.0856 -0.1269 -0.0460
17224W        W32693   1.214   5.491  12.850  0.1544 -0.1560 -0.0544
17225W        W32694   9.403   0.147   4.310  0.1347 -0.0076 -0.2004
17226W        W32695   1.980  14.178  11.226 -0.0354  0.3076 -0.1579
17227W        W32696   6.656  10.179   2.938  0.2185 -0.1338  0.0096
17228W        W32697   8.268   5.348  14.713  0.0885  0.0081 -0.1101
17229W        W32698   3.426  12.247  14.054  0.0546 -0.1050  0.1163
17230W        W32699   2.717  15.202   0.299  0.0207 -0.4106  0.3076
17231W        W32700  10.557   8.556   2.699  0.1123 -0.1261  0.0664
17232W        W32701  11.931   3.038  14.864 -0.0425 -0.1307 -0.3010
17233W        W32702   9.486  17.639  14.316  0.3514  0.1813  0.1849
17234W        W32703  13.756   0.567   4.023 -0.0879  0.0583  0.0747
17235W        W32704  11.589   1.406   3.040  0.0277 -0.0572 -0.0108
17236W        W32705  16.230   6.664  14.150  0.3710 -0.1728  0.1444
17237W        W32706   0.346   8.628   2.015  0.2491 -0.1235 -0.3163
17238W        W32707   5.115  16.351  12.167 -0.0760  0.0837  0.0359
17239W        W32708  15.897   7.324  13.774  0.3555  0.2396  0.2001
17240W        W32709  10.765   1.960   0.338 -0.2536  0.2266 -0.0814
17241W        W32710  13.491   0.780  15.874 -0.0311 -0.1678  0.1601
17242W        W32711   2.767   8.965   0.275  0.0852  0.1960 -0.1167
17243W        W32712   6.516  16.594  14.101  0.1474 -0.3040  0.4910
17244W        W32713   9.231  10.311   6.177 -0.2288  0.1557  0.1207
17245W        W32714   9.999  15.537   2.844  0.1356 -0.0864  0.0976
17246W        W32715  11.377  17.930  13.375  0.2274  0.0245  0.2024
17247W        W32716   9.228  17.324   1.842  0.2392 -0.1586 -0.1423
17248W        W32717   9.233   0.016   1.297 -0.1114  0.3471  0.1565
17249W        W32718  13.812  14.763   0.834 -0.0961  0.3525  0.0689
17250W        W32719   9.238   6.317   0.395 -0.0113  0.0243  0.2235
17251W        W32720   3.416  13.134   0.144  0.2658 -0.2102 -0.0248
17252W        W32721   0.872   6.109  11.586  0.1265 -0.2898 -0.1453
17253W        W32722   6.612  13.750   3.936 -0.1828  0.1477 -0.1738
17254W        W32723  13.976  10.566   4.859 -0.2927  0.2187 -0.0849
17255W        W32724  10.014  14.083   1.740  0.3749  0.1192  0.0997
17256W        W32725  16.056   7.386  15.705  0.1759 -0.1261 -0.2824
17257W        W32726   2.913   0.474  13.863 -0.0136 -0.1261  0.1038
17258W        W32727   5.443  10.077   3.872 -0.0951  0.0846  0.0318
17259W        W32728   6.550   1.849   3.055  0.0841 -0.3096 -0.1418
17260W        W32729  15.178  14.856   1.154  0.0429 -0.2289 -0.2813
17261W        W32730   8.318   0.883  13.159 -0.1392  0.0905  0.1031
17262W        W32731   4.379   1.692   0.076 -0.1431  0.1923  0.1097
17263W        W32732   5.929   3.892  12.468 -0.0162  0.1377 -0.0406
17264W        W32733  17.355  10.046   2.368  0.1733 -0.0326 -0.0927
17265W        W32734   0.263  16.069  14.021 -0.0873 -0.1415  0.0679
17266W        W32735   9.683   1.277   5.900 -0.1081  0.3873 -0.0855
17267W        W32736   2.903   5.377   4.758 -0.1125 -0.0082  0.0064
17268W        W32737   9.548   2.337   4.228  0.0174 -0.0472 -0.2876
17269W        W32738   3.992  11.025   4.226  0.0922 -0.0999  0.0588
17270W        W32739   4.251   0.122  11.469  0.1407  0.1632 -0.1554
17271W        W32740   2.816  14.460  15.965  0.3282  0.3685  0.3395
17272W        W32741   7.763   2.675  11.664  0.1032  0.1211  0.2872
17273W        W32742   5.400   6.313   0.754  0.0098 -0.1819  0.1703
17274W        W32743  14.792  12.499   2.272 -0.1059  0.0500 -0.1743
17275W        W32744  15.685   2.450   0.885  0.2248  0.0313 -0.1452
17276W        W32745  14.123   6.515   5.259  0.1460 -0.2233 -0.2340
17277W        W32746  12.519  15.336  12.500 -0.2380  0.0247 -0.0069
17278W        W32747   2.678  10.474   4.448  0.0154 -0.0745 -0.1236
17279W        W32748  18.065  12.996  15.411 -0.0412 -0.2227  0.1384
17280W        W32749   0.940  12.037  15.463  0.0094 -0.0673  0.1414
17281W        W32750  16.518  11.722  15.904  0.0742 -0.0886 -0.1283
17282W        W32751  14.573  17.723  13.904 -0.2586 -0.0110 -0.0729
17283W        W32752  12.892   7.829  13.307  0.3918  0.0149  0.2040
17284W        W32753  11.528  11.834   4.820  0.1787 -0.1285 -0.2561
17285W        W32754   8.370  14.329   0.849  0.1474  0.1606  0.0977
17286W        W32755   7.864  14.739  13.182 -0.1030 -0.0815 -0.4797
17287W        W32756   0.260   7.657   0.278  0.0814 -0.0166  0.3167
17288W        W32757   9.781   5.441   1.238 -0.1227  0.1161 -0.0149
17289W        W32758   4.271   4.769  13.397 -0.2472 -0.1851  0.2942
17290W        W32759  11.817  17.086  14.810  0.0567  0.3273 -0.0999
17291W        W32760  11.908  17.788  14.110 -0.1606  0.0435  0.1436
17292W        W32761   3.057   5.878  13.665 -0.0138 -0.1898 -0.1730
17293W        W32762  17.339   4.218   6.218  0.1147  0.0855  0.1021
17294W        W32763  15.659   8.297   2.095  0.2349 -0.2240 -0.0730
17295W        W32764   5.926  11.525   2.613 -0.1083  0.0054  0.2548
17296W        W32765  13.855   5.147   5.426  0.1604 -0.2101 -0.0495
17297W        W32766  16.060  15.473   4.460 -0.2873  0.1605  0.1880
17298W        W32767   0.242   1.165   4.175  0.0201 -0.0458 -0.1200
17299W        W32768  12.396  12.985  11.601 -0.0256 -0.0809 -0.1309
17300W        W32769   7.682   5.961  15.909  0.1194 -0.0393 -0.0687
17301W        W32770  14.235   1.412  13.366  0.0416  0.1762  0.0550
17302W        W32771  10.277  11.655  11.533 -0.2026 -0.0386  0.0292
17303W        W32772  11.948  13.952  14.532  0.1154 -0.1689  0.0477
17304W        W32773   4.069   2.882  10.005 -0.2234  0.3155 -0.1508
17305W        W32774  11.621  16.369   0.414  0.0402 -0.0602  0.0102
17306W        W32775   5.595   2.744   5.343 -0.0523 -0.4544  0.0837
17307W        W32776   0.539   3.610   5.322  0.0659 -0.1496  0.0331
17308W        W32777   9.682  15.097  11.505 -0.2672 -0.2319 -0.2091
17309W        W32778   5.352  12.351  12.758 -0.2517 -0.0543 -0.1006
17310W        W32779  10.342   4.627   3.152 -0.0415  0.1017 -0.1129
17311W        W32780   6.030  13.316  13.065  0.1039 -0.0735  0.1780
17312W        W32781   7.175   8.486   1.672  0.5731  0.1526  0.0828
17313W        W32782   5.737   4.571   1.521  0.0356  0.0749 -0.2424
17314W        W32783  15.177   8.740   6.033  0.2212  0.2475  0.1858
17315W        W32784   6.843   6.306   1.802 -0.0221  0.0671 -0.1297
17316W        W32785   5.599  11.619  12.722 -0.0841 -0.2869  0.0815
17317W        W32786   3.016   5.581  11.183 -0.1181 -0.1425 -0.3491
17318W        W32787  15.117   3.070  14.463 -0.1945  0.2177  0.1042
17319W        W32788  15.247  17.417   5.575 -0.0210 -0.1538 -0.3156
17320W        W32789   6.206   5.617  15.446  0.0592  0.1740  0.2106
17321W        W32790   2.759  17.476   3.184  0.1161 -0.0766  0.0062
17322W        W32791   3.583  10.232   1.611  0.1046 -0.1666  0.0741
17323W        W32792   0.618   0.230  13.909 -0.1023 -0.3429  0.0142
17324W        W32793  12.436   9.524   0.037  0.2804 -0.0709  0.0359
17325W        W32794  14.763   5.687  15.798  0.2242 -0.0553 -0.0679
17326W        W32795  11.510   8.262  12.788 -0.0278  0.1475 -0.0398
17327W        W32796   2.390   5.880   4.387  0.0533  0.1863 -0.0205
17328W        W32797  17.920  16.616  10.160  0.0473 -0.1780 -0.2634
17329W        W32798   2.589   0.179   1.425  0.1084 -0.1558  0.2594
17330W        W32799   3.992  14.144  10.699 -0.1386  0.0614 -0.1225
17331W        W32800   1.095   6.407  13.238 -0.1637  0.1780  0.1068
17332W        W32801   9.851  16.568  15.096  0.1859 -0.0408  0.0303
17333W        W32802   0.490   0.594  13.031  0.1419 -0.2483 -0.0173
17334W        W32803  14.062  12.330   1.291  0.0693 -0.3461  0.2525
17335W        W32804   3.347  11.813   4.184 -0.1209  0.0367 -0.2111
17336W        W32805  13.295   1.397   5.493  0.0858  0.2945  0.2443
17337W        W32806   5.955   6.243   0.618 -0.0064  0.1186  0.2172
17338W        W32807  10.030  16.962   5.674 -0.1155 -0.0269  0.1765
17339W        W32808  13.902   3.938   2.866  0.2769  0.1240 -0.0559
17340W        W32809   4.017   0.008   3.797 -0.1220 -0.3819 -0.1546
17341W        W32810   8.671  12.375   3.127  0.1368  0.2281  0.1766
17342W        W32811   8.612  17.448  12.551  0.0268 -0.1188  0.1398
17343W        W32812  11.665   5.184   0.512  0.2611  0.0675 -0.1964
17344W        W32813   6.377   9.980   0.078  0.0398 -0.1884  0.3331
17345W        W32814  17.250  14.668  14.078 -0.0057 -0.1859  0.0519
17346W        W32815   0.006  17.819  12.746  0.1113  0.1964  0.1950
17347W        W32816  17.416   9.285   3.006 -0.0966  0.0234 -0.3826
17348W        W32817   8.931   7.818  14.171  0.0766 -0.2558  0.1494
17349W        W32818   9.866  11.974  14.025  0.0083  0.0896  0.1903
17350W        W32819   3.322   8.241  14.455 -0.0852  0.1159 -0.2662
17351W        W32820  17.438   9.867  15.901 -0.1290  0.0278  0.1797
17352W        W32821  16.070   0.003   0.648 -0.1146 -0.0738 -0.0508
17353W        W32822   4.854   1.527  15.507  0.0600 -0.2244  0.0057
17354W        W32823  12.625  17.587   6.219 -0.0721 -0.0324  0.0304
17355W        W32824  17.981   6.884  15.326 -0.0397 -0.3146  0.2480
17356W        W32825  17.672   9.700  12.533 -0.1463 -0.1695  0.2493
17357W        W32826  12.941   8.413  11.841  0.1735  0.1476  0.0934
17358W        W32827   2.918  14.404   1.836 -0.0510  0.1401 -0.1989
17359W        W32828  15.955  11.229   3.804 -0.0625  0.0170  0.5451
17360W        W32829  13.323   3.475   5.405 -0.0058 -0.3257 -0.0953
17361W        W32830   1.877   0.290  14.665  0.3773 -0.3641 -0.0596
17362W        W32831  16.558  14.963  14.038  0.1323 -0.0617 -0.2219
17363W        W32832   0.188  16.448   1.742 -0.1577  0.0213  0.1018
17364W        W32833  11.763  14.103   5.972 -0.0430  0.2311 -0.0084
17365W        W32834   5.958   4.728   2.872  0.0662  0.0149  0.1512
17366W        W32835   8.916   3.626  10.707 -0.1188  0.0286 -0.2434
17367W        W32836   5.435  13.494   3.419  0.2218 -0.0209  0.1117
17368W        W32837   9.680   9.118   3.497 -0.0301  0.0188  0.2773
17369W        W32838   1.017   5.453  13.836  0.0498 -0.2636  0.0020
17370W        W32839   0.534  16.499  12.058 -0.1597 -0.1417  0.0006
17371W        W32840   8.362   5.804   4.192 -0.2914 -0.2151 -0.0338
17372W        W32841   2.571  14.421  14.592  0.3568  0.0611 -0.0521
17373W        W32842   4.315   5.750   1.168  0.0523  0.2344 -0.2644
17374W        W32843   9.031  14.509   0.141 -0.0200  0.3483 -0.1801
17375W        W32844   0.268   3.384   2.119  0.0712 -0.2817 -0.0405
17376W        W32845  11.004   7.944   3.792  0.1046 -0.0171 -0.1392
17377W        W32846   3.126   5.811   4.913  0.3172  0.1413 -0.1679
17378W        W32847   2.846  11.852  11.525  0.1378  0.1794  0.0365
17379W        W32848  17.838   8.836  15.171 -0.0036  0.0256 -0.1306
17380W        W32849   8.758   1.319  14.542  0.0814  0.0887  0.2154
17381W        W32850   2.798  16.554  13.126  0.0964 -0.2161 -0.1435
17382W        W32851   8.570   7.780   5.008  0.1015 -0.0077  0.0014
17383W        W32852   8.859  10.354  15.415 -0.0947  0.0733  0.0575
17384W        W32853  12.048   1.921   0.914  0.1870  0.2400 -0.1864
17385W        W32854  14.351  11.010  14.019 -0.0690 -0.3232 -0.1228
17386W        W32855   8.106   1.110   1.995  0.3395  0.1564  0.0511
17387W        W32856   2.746  13.966  16.058 -0.5195 -0.3053  0.0529
17388W        W32857  11.776   1.097   3.566 -0.0522  0.0601 -0.0335
17389W        W32858   8.755   4.978   3.895  0.1652 -0.0692  0.2415
17390W        W32859   5.676  10.944  11.091 -0.0228  0.0397 -0.0294
17391W        W32860   9.717   6.854  12.597  0.0400  0.2850  0.5653
17392W        W32861  10.746  14.344  14.575  0.0619 -0.1226  0.1902
17393W        W32862   9.898   9.426  15.541 -0.1212  0.0416  0.0169
17394W        W32863   0.819   6.921   5.242 -0.2546 -0.0908 -0.2600
17395W        W32864  14.242  13.226   5.579  0.1677 -0.0933  0.2910
17396W        W32865   0.676   1.774  10.809 -0.0215  0.0073 -0.0850
17397W        W32866   9.212   0.340   3.836 -0.0698 -0.2715 -0.2643
17398W        W32867  11.993  10.477   2.950 -0.2206 -0.0292  0.4668
17399W        W32868  13.876  12.435  13.860  0.2330 -0.0170  0.0558
17400W        W32869   2.586  13.527  16.110 -0.3124 -0.1820 -0.1398
17401W        W32870   8.619   9.798   4.111 -0.2804  0.0585  0.1407
17402W        W32871  10.406   4.232  12.658 -0.1535 -0.1636 -0.2617
17403W        W32872   8.436   1.154  11.515 -0.1997 -0.0979  0.3310
17404W        W32873  16.323   5.882   5.664 -0.2190  0.1688 -0.2402
17405W        W32874   9.115  15.609  15.254 -0.4240  0.0735  0.2391
17406W        W32875  17.434   6.936   2.971  0.1910  0.0116  0.3326
17407W        W32876   6.157  15.431  14.631 -0.3865 -0.0628  0.1978
17408W        W32877  12.604   5.163  14.092  0.0674  0.0896  0.0357
17409W        W32878   7.245   3.838   5.703 -0.0012 -0.1849 -0.2350
17410W        W32879   9.059  15.264  13.934  0.2293  0.0223  0.1481
17411W        W32880  10.639   6.280  11.251 -0.2706 -0.2527 -0.2002
17412W        W32881   8.441  12.348   4.918  0.0023 -0.0227  0.1588
17413W        W32882  16.289  16.168   1.931 -0.0585  0.0190  0.2727
17414W        W32883   5.181   9.063   1.971  0.2610 -0.1067 -0.1953
17415W        W32884  15.500  10.307  13.767  0.2649  0.2716  0.1568
17416W        W32885  15.656   8.929  12.920 -0.2309  0.1815 -0.1393
17417W        W32886   5.313   8.971   1.528  0.2007 -0.2029 -0.0673
17418W        W32887   9.011  15.776   1.494  0.1422  0.0448  0.2559
17419W        W32888   0.382  10.014  14.861  0.1904  0.1740  0.1334
17420W        W32889   5.718   5.397  14.599 -0.0432  0.0135 -0.0244
17421W        W32890   8.104   3.800   4.629  0.1300  0.0136 -0.3212
17422W        W32891  16.131  17.043   5.678 -0.2794  0.0968 -0.1809
17423W        W32892   3.943  11.056   4.743  0.0797  0.1543 -0.2214
17424W        W32893  13.141  15.704   5.098 -0.0821  0.2062 -0.1007
17425W        W32894   1.187   4.535  10.669 -0.0087  0.0282  0.1788
17426W        W32895   5.283  17.312  11.031  0.0220  0.1289 -0.0381
17427W        W32896   4.929  15.577  14.508 -0.0518  0.2812 -0.0507
17428W        W32897  10.413  16.504  13.150  0.0350 -0.2848 -0.1830
17429W        W32898  11.528  15.806   1.032  0.0221  0.1020 -0.1297
17430W        W32899  15.968   5.577  15.149  0.1965  0.0789  0.1607
17431W        W32900   1.174   3.610   2.169  0.1028 -0.0424 -0.1921
17432W        W32901   1.735   8.897  12.396  0.2664 -0.0222 -0.4350
17433W        W32902  14.162   6.378  11.637 -0.1585  0.0514 -0.2257
17434W        W32903  16.571  13.325   1.590 -0.2602  0.1183  0.1305
17435W        W32904  17.720  11.680   0.365  0.0455  0.0060 -0.1308
17436W        W32905   7.978  15.741   2.233  0.0815 -0.1861 -0.1411
17437W        W32906   8.478   3.478   4.493 -0.2422 -0.0331 -0.0700
17438W        W32907   8.598  10.209  16.128  0.0028  0.0320  0.1693
17439W        W32908   2.493  13.014  16.048  0.0058  0.0348  0.0414
17440W        W32909  10.021   3.658  16.117  0.0173  0.2392  0.2210
17441W        W32910   4.464  12.501  12.036 -0.2029 -0.1607  0.2070
17442W        W32911   7.082  12.599   4.529 -0.1730 -0.2370 -0.2408
17443W        W32912  10.592  13.825   5.295  0.1212 -0.0111  0.3033
17444W        W32913   8.937  11.871  15.572  0.0567  0.3564 -0.1658
17445W        W32914   3.877  15.490  14.792  0.2557 -0.2175 -0.1869
17446W        W32915   1.259   1.820   1.962 -0.1841 -0.0182  0.0610
17447W        W32916   0.738   3.234   2.197  0.0879 -0.0413 -0.1582
17448W        W32917  17.329   5.989   6.042 -0.0701  0.2039  0.0468
17449W        W32918   1.533   3.349  13.244 -0.3085 -0.1844 -0.0220
17450W        W32919  17.768   2.468   0.794  0.0418  0.0665 -0.2856
17451W        W32920   1.337  17.142  12.848 -0.1604 -0.0199 -0.0452
17452W        W32921   9.287   1.700  13.629  0.4115 -0.1115 -0.0830
17453W        W32922  12.185   1.907  15.224 -0.3149  0.1572 -0.0690
17454W        W32923   2.899  16.877  16.245 -0.0508  0.0571 -0.2728
17455W        W32924   3.006   9.599  15.235 -0.0173  0.1805 -0.1254
17456W        W32925   4.429   8.553   2.151 -0.0452  0.0390 -0.1707
17457W        W32926  11.784  15.805  10.956  0.1885  0.0583  0.2077
17458W        W32927  17.015  15.172   3.118  0.1470 -0.1225  0.2004
17459W        W32928   7.905  15.435   3.848  0.2587  0.0626 -0.2320
17460W        W32929  16.421   8.035   1.745  0.0644 -0.2727  0.1382
17461W        W32930   9.308  10.002  15.290 -0.3314  0.1781 -0.1068
17462W        W32931  12.333   7.951  10.736  0.1930  0.1624  0.1109
17463W        W32932   2.024   9.575   3.056  0.3114  0.0142  0.2708
17464W        W32933   5.788   0.131   3.178  0.0899  0.3243  0.0602
17465W        W32934   2.706   3.646   5.174 -0.0303 -0.1554  0.1253
17466W        W32935   0.563  10.269  12.131 -0.0948 -0.0071 -0.1351
17467W        W32936  10.062   4.587  11.904 -0.1169  0.1705  0.4194
17468W        W32937   5.326  16.095   1.794 -0.1272  0.0764  0.1013
17469W        W32938  16.731  16.019  11.492  0.1962 -0.1179 -0.0736
17470W        W32939   3.844  13.770   0.460 -0.2988  0.1575  0.2283
17471W        W32940  17.819   6.030  16.056 -0.2017  0.1617  0.1190
17472W        W32941   9.476   5.501   5.783  0.2131  0.0268  0.0227
17473W        W32942   1.931  13.433  13.313 -0.2910  0.1556  0.2367
17474W        W32943   0.644  16.345  13.828  0.2940 -0.1794  0.0656
17475W        W32944  14.221   2.167   3.739 -0.3395 -0.1881  0.1216
17476W        W32945   6.562  16.301  12.963 -0.2753 -0.1607  0.2682
17477W        W32946  17.239   9.407  12.789 -0.1483  0.0832  0.0720
17478W        W32947  17.438  17.054  11.758  0.3252  0.1415  0.0963
17479W        W32948  11.446  11.431  12.671 -0.1129  0.0244 -0.0763
17480W        W32949  17.122   6.241  14.034  0.0758 -0.2216  0.1942
17481W        W32950   2.185   0.124   1.736  0.1594 -0.1432  0.2069
17482W        W32951   7.655   1.276   5.424 -0.2983 -0.2399  0.1593
17483W        W32952   3.583  10.709   5.028  0.2275 -0.3379 -0.0080
17484W        W32953  10.343  10.037  15.197 -0.0303 -0.2187 -0.1989
17485W        W32954  16.296  10.339   1.190 -0.0129  0.2055 -0.1700
17486W        W32955   8.654  16.633   2.313 -0.0495 -0.2665  0.1997
17487W        W32956   8.245  14.976  14.062  0.0507  0.1757  0.0346
17488W        W32957  13.085   6.644  10.344 -0.0326  0.0346  0.0205
17489W        W32958   3.579  13.480  11.920 -0.0955 -0.2810 -0.0805
17490W        W32959  16.086   3.713   6.012  0.1971 -0.0074 -0.0939
17491W        W32960   1.988  10.164  11.526  0.1775  0.2194  0.0565
17492W        W32961  13.678   2.050   4.342  0.1223  0.2281 -0.2180
17493W        W32962  14.334  11.253   0.394  0.0884  0.4199  0.0481
17494W        W32963   5.281   1.556  11.806 -0.0220 -0.2608 -0.1301
17495W        W32964  12.058   3.264  12.451  0.0558 -0.2486 -0.2404
17496W        W32965   6.217  10.216  13.581 -0.3143 -0.1839  0.1661
17497W        W32966   5.248  15.263  14.729  0.1858 -0.0339 -0.1688
17498W        W32967   8.345  14.470   1.736 -0.1093 -0.1047  0.1283
17499W        W32968  17.387   6.508   3.843  0.0848  0.2674  0.2982
17500W        W32969   7.749   2.308   5.977 -0.0002  0.1278 -0.1689
17501W        W32970  12.939  12.840   0.121  0.1526  0.1780 -0.0272
17502W        W32971   0.130   7.252  12.441  0.2058  0.1926  0.0520
17503W        W32972   2.829  10.182  12.753 -0.1199 -0.0091 -0.0673
17504W        W32973   6.601  15.850   4.213 -0.4159 -0.0308 -0.0767
17505W        W32974   2.105   8.268   2.437  0.1536  0.2168 -0.3245
17506W        W32975   6.736  11.454   3.726 -0.0635 -0.0354 -0.4163
17507W        W32976   5.510   2.281   6.008  0.0785 -0.2077  0.1609
17508W        W32977  17.192   6.115   5.593  0.3025 -0.0397  0.2352
17509W        W32978  10.499  11.386  11.086 -0.4638  0.0360  0.3524
17510W        W32979  10.138  16.669   2.169 -0.0054 -0.1603  0.2707
17511W        W32980   8.352  13.753   3.517  0.3172  0.1063  0.0516
17512W        W32981  16.240  14.540  13.917  0.0309  0.1972 -0.2614
17513W        W32982   4.918   1.042  10.151 -0.1520 -0.0058 -0.1113
17514W        W32983  15.347  17.517   0.623 -0.3069 -0.3703  0.2546
17515W        W32984   7.149  12.776   5.068  0.0948 -0.3336 -0.0745
17516W        W32985  14.346  12.249  15.884  0.4396 -0.0852  0.0583
17517W        W32986   2.139  10.365  13.571 -0.1270 -0.1129 -0.1757
17518W        W32987   4.957   1.264   1.732 -0.0481 -0.4577 -0.1580
17519W        W32988   0.683   5.770  13.764  0.1240  0.0312 -0.0277
17520W        W32989  11.779  13.067  11.698 -0.0114 -0.1334 -0.1723
17521W        W32990  15.512  13.174  11.281 -0.0144  0.0524  0.1541
17522W        W32991   6.811   3.866  12.877 -0.2438 -0.0177  0.0758
17523W        W32992   4.888  16.918   1.243 -0.0498  0.1136 -0.1256
17524W        W32993   1.985  14.788   0.254 -0.3202 -0.1610  0.1630
17525W        W32994  15.686   6.645   3.929 -0.0800 -0.2820 -0.2994
17526W        W32995  12.186   7.172   1.677 -0.1228 -0.0656 -0.2324
17527W        W32996   1.661  14.440  13.488 -0.2720 -0.0356  0.1022
17528W        W32997  15.396  13.351  15.986 -0.0111  0.1502 -0.0635
17529W        W32998   0.784  11.601   2.900  0.4069  0.0077  0.2008
17530W        W32999  17.491  13.899   4.016  0.0093 -0.0701  0.0038
17531W        W33000   1.190  13.008  11.493  0.2251 -0.0221  0.1087
17532W        W33001   4.638  15.312  14.748 -0.0699  0.0427  0.1904
17533W        W33002  12.898  15.398  12.875 -0.2656  0.0668  0.0341
17534W        W33003  13.569   4.501   2.801 -0.0046  0.1426  0.2373
17535W        W33004   3.441  17.799   2.113 -0.1762 -0.0361  0.0037
17536W        W33005  13.521  13.885   4.029 -0.1246 -0.2425 -0.2923
17537W        W33006   4.789   8.174   2.290 -0.1310  0.0205 -0.1326
17538W        W33007  11.301  10.850  12.349  0.1176  0.0049 -0.1978
17539W        W33008   4.946   3.216   0.070 -0.1558  0.0703 -0.1632
17540W        W33009   2.739   8.201  16.210 -0.2063 -0.3105  0.1457
17541W        W33010   3.929  10.614  13.794 -0.0456 -0.1680  0.0280
17542W        W33011  10.277  15.778   1.861 -0.0262 -0.0293 -0.4153
17543W        W33012  11.385   6.140  11.144  0.2743 -0.0210  0.1064
17544W        W33013   8.910   6.738  12.048  0.0001  0.1919 -0.0038
17545W        W33014   2.976   2.083  15.167  0.1141  0.0833 -0.2416
17546W        W33015   2.421   9.514  15.424  0.3638  0.2306  0.2375
17547W        W33016  18.065  13.353  15.786 -0.4233  0.2484  0.0449
17548W        W33017   5.106  10.942  15.447 -0.2244  0.0369 -0.0619
17549W        W33018  12.090  14.495   2.943 -0.0973 -0.0568  0.1747
17550W        W33019   3.168   2.407  15.623  0.0381 -0.0176  0.0762
17551W        W33020   0.359  17.880  13.879  0.1726 -0.2809  0.0779
17552W        W33021   4.324   3.955   3.440  0.2066 -0.0727 -0.1351
17553W        W33022   3.691   0.297   5.106 -0.1931  0.0659  0.2387
17554W        W33023  16.705  13.637  13.680  0.0356  0.1885 -0.3260
17555W        W33024  12.968   4.932   2.204 -0.0977  0.0818 -0.1725
17556W        W33025   7.271   9.647   4.400  0.2251  0.1256  0.4263
17557W        W33026  13.774  14.190  11.878 -0.1547 -0.0570  0.0887
17558W        W33027  13.757   9.221   3.828  0.2730 -0.0734 -0.0085
17559W        W33028  11.535   0.309  11.874 -0.1952 -0.0813 -0.2202
17560W        W33029   4.214   8.944   3.773  0.3056 -0.0718  0.0404
17561W        W33030  14.523  15.577   1.382  0.0673  0.3519  0.2341
17562W        W33031  17.027   9.277  15.074  0.1199 -0.2266  0.2116
17563W        W33032  11.644   8.516   1.095  0.0247 -0.0444  0.0614
17564W        W33033   4.810  15.902   4.439 -0.0204  0.0449  0.0912
17565W        W33034   7.629  17.303   1.054  0.0073 -0.3846  0.1467
17566W        W33035   7.452   4.850   2.184 -0.3411  0.1002  0.0025
17567W        W33036   8.215  13.575   3.006 -0.1301 -0.1668  0.1834
17568W        W33037   7.192   1.054   5.464 -0.1317 -0.0640  0.2301
17569W        W33038  13.037   0.050  15.291  0.1636  0.0916  0.0549
17570W        W33039   6.206  16.458  11.678  0.0833  0.0416 -0.3568
17571W        W33040   5.053  10.222  14.517 -0.0478  0.2069 -0.0216
17572W        W33041   7.487  15.570   1.406  0.1315  0.0170 -0.0939
17573W        W33042   1.652  12.407  15.926  0.2760 -0.3940  0.0463
17574W        W33043   8.636   0.368   5.242  0.3284 -0.0601  0.1661
17575W        W33044  14.704  17.919   3.369  0.0031  0.1373 -0.0352
17576W        W33045   3.410   0.013   1.697 -0.2193 -0.1798  0.1391
17577W        W33046  16.164   0.631   3.875 -0.1444  0.0622 -0.1515
17578W        W33047   2.215  14.954   2.092  0.1616 -0.0280 -0.0063
17579W        W33048   3.213   4.806   3.822  0.3318 -0.1148 -0.0387
17580W        W33049   9.726  10.764   0.588 -0.0478 -0.2394  0.0370
17581W        W33050  12.987   0.448   1.898  0.0398  0.2221 -0.0494
17582W        W33051  16.288  13.396  15.439  0.0727  0.2402  0.3668
17583W        W33052   3.208   9.477  13.559 -0.0035  0.0579  0.1483
17584W        W33053  10.774   2.190  11.869  0.0318  0.0146  0.2287
17585W        W33054   9.895   1.325  13.183  0.1223 -0.2335  0.1665
17586W        W33055   2.831   4.008   0.329  0.0011  0.0889  0.0653
17587W        W33056   0.471  18.040   3.714 -0.0492 -0.0771  0.0210
17588W        W33057   8.619  14.315  11.854 -0.1272 -0.0207 -0.1700
17589W        W33058   2.337   5.939   3.420 -0.0824  0.0493 -0.0738
17590W        W33059   1.895   5.621   3.329  0.2377  0.3511 -0.1108
17591W        W33060   4.070   0.683   0.193  0.2139  0.2310 -0.0649
17592W        W33061   1.180   1.042  11.213  0.0775 -0.0027 -0.0507
17593W        W33062  10.515  17.554  10.823 -0.5226 -0.0493 -0.2192
17594W        W33063   7.043  17.721  11.329 -0.2748 -0.1441 -0.0040
17595W        W33064   0.241   6.352   1.297 -0.2910  0.0284 -0.0322
17596W        W33065   0.078  13.657  14.238  0.2782 -0.0699 -0.1035
17597W        W33066   8.068  17.970  13.556 -0.2859  0.1200  0.1496
17598W        W33067   6.189   9.762  13.813  0.2457 -0.0455 -0.5137
17599W        W33068   3.804   8.781  15.943 -0.0534  0.0862 -0.0133
17600W        W33069  11.988  12.040   0.955 -0.1768 -0.2257  0.3121
17601W        W33070  13.758   4.772  11.121 -0.2143 -0.1446  0.0436
17602W        W33071   9.964   9.190  14.054  0.0784 -0.4113 -0.0113
17603W        W33072   1.426   1.625  15.934 -0.1021  0.3243 -0.0729
17604W        W33073   2.209   7.353   3.601 -0.1165 -0.0696  0.4073
17605W        W33074  12.442  11.267  14.128 -0.1238 -0.0257 -0.1463
17606W        W33075  16.151   8.867  12.912 -0.0015 -0.2169  0.2827
17607W        W33076   6.343   6.074   1.528 -0.0550  0.2077  0.0500
17608W        W33077  14.644   4.063  12.816  0.2806 -0.0584  0.1348
17609W        W33078   5.069  14.515   5.477  0.0522  0.0411 -0.0551
17610W        W33079  17.079  11.040   3.625 -0.0865  0.3382  0.0288
17611W        W33080   0.090  10.849  13.367 -0.0817  0.0148  0.0802
17612W        W33081   7.197  11.193  13.783 -0.1869  0.0645  0.0753
17613W        W33082   2.146  10.932   3.229 -0.0419  0.1143 -0.1095
17614W        W33083   0.551  13.053  13.181 -0.1799  0.2554 -0.0694
17615W        W33084  14.591  17.914   9.957 -0.0908  0.0807 -0.2780
17616W        W33085   6.802  14.566  15.009  0.3423  0.1991 -0.1627
17617W        W33086  13.817   8.917  14.609  0.1741 -0.3217  0.0288
17618W        W33087   2.976   3.424   4.019  0.0618 -0.0843  0.0356
17619W        W33088  11.301   7.951  10.027 -0.1050 -0.0096  0.0561
17620W        W33089  13.907  10.363   2.573 -0.0916  0.2902  0.4066
17621W        W33090  10.460   4.260  13.779  0.0844 -0.1177 -0.0482
17622W        W33091  10.353  14.665  13.158  0.2186 -0.0395 -0.1205
17623W        W33092   4.361  12.678   2.834 -0.2092  0.0608  0.1457
17624W        W33093   3.402  15.738  13.480 -0.0232  0.3372  0.1604
17625W        W33094  14.138   4.641   4.850  0.3918 -0.0859  0.0251
17626W        W33095  10.508   3.255   5.096  0.2773  0.2552 -0.0662
17627W        W33096  14.347  10.119   3.697 -0.0510 -0.1781 -0.0241
17628W        W33097   9.395  12.817  15.231  0.1505 -0.0793 -0.0614
17629W        W33098   3.473  15.397  11.646  0.0687  0.0844 -0.1427
17630W        W33099   5.096  16.654   3.758 -0.2083  0.1460  0.2574
17631W        W33100   5.750   9.599   0.715  0.0378 -0.0690 -0.1279
17632W        W33101   4.203   6.784  13.134 -0.0156 -0.0615  0.1067
17633W        W33102  14.746   5.227   5.763  0.0777  0.1394  0.1587
17634W        W33103   8.636  15.137  15.115  0.2542  0.1273  0.2466
17635W        W33104   7.730   9.252  13.570 -0.3103  0.0901 -0.0188
17636W        W33105  15.139  10.412   5.854  0.0627 -0.1389 -0.2102
17637W        W33106   2.815  13.115   1.638  0.0639  0.0254 -0.0960
17638W        W33107   2.757  11.495   3.034  0.0617 -0.0522 -0.2897
17639W        W33108  14.174   0.706   2.533 -0.0320 -0.1963 -0.1720
17640W        W33109   1.490   3.691  11.772 -0.1519 -0.0379 -0.0971
17641W        W33110  16.750   3.563  13.379  0.2500  0.1228 -0.2324
17642W        W33111   4.783   5.238  15.533  0.0827 -0.0240 -0.0382
17643W        W33112   8.604  15.923   3.335 -0.0871  0.3009  0.0241
17644W        W33113  15.062   9.793  15.517 -0.1340 -0.0699 -0.2012
17645W        W33114   6.133  15.539  11.289  0.0491  0.0247  0.0620
17646W        W33115  10.679   2.704   3.716  0.2966 -0.0086 -0.1123
17647W        W33116  13.519   7.491  16.291 -0.0931 -0.0644 -0.1352
17648W        W33117   6.090  16.365  14.453 -0.1196 -0.0010  0.2067
17649W        W33118  10.781   0.134   3.766  0.1975 -0.0074  0.2070
17650W        W33119   9.552   0.307   1.005  0.0266  0.0524  0.2321
17651W        W33120  15.644  12.438   4.948  0.1942 -0.3548 -0.1792
17652W        W33121  11.073   1.098   4.631 -0.0649 -0.0593  0.3065
17653W        W33122  10.948   1.450   1.566  0.1263 -0.0382 -0.2477
17654W        W33123  15.734   0.406   2.024  0.1157  0.2439 -0.1891
17655W        W33124  11.009   4.114   3.710  0.2021 -0.0763  0.1610
17656W        W33125   1.554   0.618  15.998  0.0264  0.1809 -0.1608
17657W        W33126   5.458  17.509   1.106  0.0309  0.2238  0.0946
17658W        W33127  14.755   6.133  15.043 -0.0777  0.2206 -0.0910
17659W        W33128   9.274   7.253   3.911 -0.3364  0.0105  0.1429
17660W        W33129   2.730  12.515   0.416 -0.0256  0.1273  0.0655
17661W        W33130  17.221   9.307   5.012 -0.2097 -0.2177  0.0064
17662W        W33131   6.420   7.002  13.980 -0.0158 -0.0894  0.0340
17663W        W33132   4.197  15.605   6.130 -0.2593  0.0362  0.2316
17664W        W33133  10.922  10.312   2.575 -0.1038 -0.0833  0.2395
17665W        W33134   0.794  17.126   3.300  0.0238 -0.0073 -0.1329
17666W        W33135   3.958   5.489   0.335 -0.0852 -0.0127 -0.3290
17667W        W33136   1.620   3.112   2.600  0.2722 -0.1248  0.1600
17668W        W33137   5.315  12.196  13.677  0.1811  0.5535  0.0780
17669W        W33138   8.973   3.495   5.768  0.2452  0.2213 -0.0421
17670W        W33139  13.245   4.311   5.108  0.0502 -0.1409 -0.0134
17671W        W33140  15.426   5.800   1.912 -0.1229 -0.1149 -0.1850
17672W        W33141   5.223   0.760   1.166  0.4116 -0.2436  0.3898
17673W        W33142  16.548   6.906  13.750 -0.0972 -0.1078  0.0280
17674W        W33143   4.679   5.743  13.181 -0.0002  0.3104 -0.2810
17675W        W33144  11.526  12.547   0.043 -0.0218  0.2555 -0.1062
17676W        W33145   2.262   6.963  15.474  0.0130 -0.0109 -0.3392
17677W        W33146   6.304  10.878   0.410 -0.1332 -0.1721  0.1239
17678W        W33147  17.083  17.286   2.469  0.1041 -0.2026 -0.0689
17679W        W33148   0.225  16.002   4.582 -0.2532 -0.2420  0.0203
17680W        W33149  15.889  15.382  12.271 -0.2472  0.0280  0.0400
17681W        W33150   8.627   1.028   1.259  0.2486 -0.0761  0.1518
17682W        W33151  11.958   1.021   1.818 -0.3063 -0.1166 -0.2629
17683W        W33152   2.225   2.148  12.377  0.0087 -0.4523 -0.1868
17684W        W33153   2.675   1.616   3.069  0.0145  0.0140  0.1136
17685W        W33154  13.577  13.428  12.033  0.1613  0.0490  0.2086
17686W        W33155  13.047   2.525  11.508  0.1461  0.1454  0.0265
17687W        W33156   7.554  16.208   5.375  0.0545 -0.0588  0.0956
17688W        W33157   4.887  11.316  15.766 -0.2086 -0.2731  0.0543
17689W        W33158   7.536  17.442   2.993 -0.3590 -0.1405  0.3545
17690W        W33159  12.674   7.805  11.014 -0.0785  0.0827  0.0487
17691W        W33160  11.383  16.328   1.344 -0.2756  0.4200  0.3233
17692W        W33161  14.390   9.322  12.553  0.0203  0.0470 -0.0529
17693W        W33162  17.006  11.198  13.903  0.1558  0.2109  0.0740
17694W        W33163  18.052  13.366   2.145  0.0268 -0.0572 -0.2030
17695W        W33164  11.554  11.219   0.316 -0.1094 -0.0535  0.0854
17696W        W33165   4.485   9.273   1.252  0.1296 -0.1106 -0.0123
17697W        W33166   3.045   7.932   0.545  0.1402  0.1813 -0.1883
17698W        W33167   6.835  15.710  11.912 -0.1800 -0.0628 -0.2486
17699W        W33168   0.436   6.296   4.361  0.1052 -0.2722  0.0033
17700W        W33169   6.419   7.599   1.660 -0.0753  0.0792  0.1611
17701W        W33170   1.211   0.976   3.956 -0.0907  0.2360  0.0068
17702W        W33171   9.808   2.088   0.935  0.0660 -0.2978 -0.0622
17703W        W33172   5.730   3.942  14.723  0.1077  0.1176  0.0168
17704W        W33173  11.087   8.175   4.226  0.1457  0.1745 -0.1579
17705W        W33174  14.832   5.229  15.598  0.4337 -0.1278  0.2543
17706W        W33175   8.323  14.467  13.020  0.0378  0.0491  0.1607
17707W        W33176  16.925   6.784  15.789 -0.1298  0.2214 -0.1121
17708W        W33177   8.034  13.160  10.699 -0.1182  0.0861  0.0889
17709W        W33178   4.694   1.653   2.825  0.2219  0.3543  0.2420
17710W        W33179   2.624  13.033  13.887  0.3520 -0.2179  0.2694
17711W        W33180   0.966   2.579  14.729  0.0172  0.0242 -0.0300
17712W        W33181  15.204  16.648   1.094 -0.0839  0.1848 -0.0678
17713W        W33182   9.519   2.043  11.692 -0.0623 -0.1041  0.2404
17714W        W33183  13.034   4.341  14.218 -0.1108  0.2169  0.0662
17715W        W33184   1.203   8.274  15.697 -0.0195  0.1993  0.0779
17716W        W33185   4.292   1.770  14.010  0.0933  0.2314 -0.0312
17717W        W33186  17.869   8.183  14.859  0.0233 -0.1728  0.0634
17718W        W33187  15.266  11.023  13.032 -0.3415 -0.2909 -0.1156
17719W        W33188   5.519  14.377  15.004  0.0740  0.2023 -0.0843
17720W        W33189   8.520  10.866   5.003  0.1741 -0.0058  0.6583
17721W        W33190   8.049   0.586   3.805 -0.1442 -0.1397 -0.0127
17722W        W33191  12.906   4.713  11.671 -0.2208 -0.1490  0.3995
17723W        W33192   2.824   0.667   2.740 -0.1817  0.1319  0.3455
17724W        W33193   1.544   3.600   1.281  0.2770  0.0361 -0.1448
17725W        W33194   0.786   3.896   3.470 -0.3809 -0.1057 -0.0224
17726W        W33195   9.015   8.820   0.780 -0.0248 -0.1835  0.0220
17727W        W33196   4.625  11.270   3.714  0.2948 -0.0230  0.4417
17728W        W33197   4.007   1.431  11.353 -0.1979 -0.0257  0.1672
17729W        W33198  15.193  16.701  15.385 -0.2025 -0.0936 -0.1107
17730W        W33199   6.313  17.495   2.695  0.0535 -0.0957  0.0559
17731W        W33200  14.658   4.317   4.101  0.0424  0.1672  0.0536
17732W        W33201  14.441   6.124   1.611 -0.1794  0.1197  0.0213
17733W        W33202   9.843   0.836  13.729  0.1667  0.1961  0.0304
17734W        W33203   8.454  16.357  16.116  0.0018 -0.0852  0.0156
17735W        W33204  10.762   0.597   2.809 -0.1495 -0.1812 -0.3000
17736W        W33205  10.813   7.950   2.374  0.0204  0.1417  0.0730
17737W        W33206  11.232   0.231   1.060  0.1796  0.2364  0.1254
17738W        W33207  11.004   0.368  13.926 -0.3992  0.0157 -0.3608
17739W        W33208   1.192  17.190  14.102  0.1576 -0.1946 -0.0277
17740W        W33209  11.656   4.285  11.647 -0.1086 -0.1183 -0.3868
17741W        W33210   4.409  15.201  12.272  0.1774  0.2640  0.2064
17742W        W33211   5.047   7.373   1.630  0.2106 -0.0006 -0.1636
17743W        W33212   9.489   5.802  13.410  0.2359 -0.0799 -0.1098
17744W        W33213  13.427   8.085   4.731  0.3299  0.4137  0.1850
17745W        W33214   1.843   1.405   2.262  0.2831  0.0290 -0.0840
17746W        W33215   8.407   2.044  14.108 -0.0406  0.1617  0.0021
17747W        W33216   1.510   0.594  10.994 -0.1813  0.2204 -0.3707
17748W        W33217   8.906   6.701  15.324  0.1082 -0.2455 -0.0418
17749W        W33218   0.790   5.325  11.907  0.0832  0.1811  0.1773
17750W        W33219  12.132   9.918   5.432  0.1368 -0.0429 -0.1384
17751W        W33220  13.358  15.069  11.053 -0.0032 -0.0752 -0.1453
17752W        W33221   0.090  11.428   2.072 -0.0165  0.2066  0.2365
17753W        W33222  12.009   2.922  12.094 -0.1885 -0.0153 -0.0824
17754W        W33223  14.225   0.404   0.486  0.0925 -0.1098 -0.1876
17755W        W33224   1.174   7.375  14.148  0.1968  0.0610  0.1886
17756W        W33225  14.413  12.086   1.492  0.0520 -0.1776  0.0442
17757W        W33226   6.559   2.883  15.475  0.1106 -0.1320 -0.0338
17758W        W33227   8.385  13.428  13.077 -0.0016 -0.0371  0.1667
17759W        W33228   3.253   8.617  14.722 -0.1168 -0.0369 -0.1795
17760W        W33229   5.532  17.252   5.086 -0.0819  0.4824  0.1186
17761W        W33230  10.834   4.129  16.313 -0.3414 -0.2871  0.0175
17762W        W33231  16.726   3.752  12.209 -0.5913 -0.1849 -0.3118
17763W        W33232   8.291   9.204   1.426  0.0915  0.0331  0.0205
17764W        W33233   3.438   5.231  13.062  0.1121 -0.4767  0.0829
17765W        W33234   9.035  10.914   5.116  0.3310 -0.1716 -0.2329
17766W        W33235  12.420   9.161  15.873 -0.1120 -0.0511 -0.0883
17767W        W33236   8.157   4.621  13.680 -0.0159  0.0904 -0.0473
17768W        W33237  11.097   4.074   0.443 -0.0196  0.0144 -0.0461
17769W        W33238   6.102   0.713   6.271 -0.2283  0.2391  0.3399
17770W        W33239   4.034   2.271  11.569  0.2881  0.1017  0.0411
17771W        W33240   3.235  12.411   0.005 -0.0812 -0.0616 -0.2021
17772W        W33241   8.343   3.408  11.588 -0.0672 -0.1228  0.1824
17773W        W33242   3.737  14.500   2.340  0.2765 -0.0229 -0.0290
17774W        W33243  17.367   2.109   0.762  0.3516 -0.1965  0.2866
17775W        W33244  13.110  12.062  13.105 -0.1353  0.0854 -0.0891
17776W        W33245   6.406  12.218  12.407 -0.0077  0.0437  0.0658
17777W        W33246   5.484  10.526  14.690  0.3441 -0.1722  0.2689
17778W        W33247   4.488   9.367   3.879  0.1830  0.0720 -0.4047
17779W        W33248   5.041  15.751   3.194  0.1365 -0.0555  0.2494
17780W        W33249   9.065  11.665  11.927  0.3005 -0.1310 -0.0555
17781W        W33250   6.839  17.532  14.834 -0.2320  0.0722 -0.2989
17782W        W33251   8.690  12.435   1.432 -0.0129  0.0244  0.0079
17783W        W33252  12.669  13.271   4.129 -0.0543  0.0429  0.0997
17784W        W33253  15.775   7.319   6.273 -0.0446 -0.0466  0.0396
17785W        W33254  17.686   3.699  13.201 -0.1431 -0.0302 -0.0652
17786W        W33255   7.085   8.967   4.041  0.1572 -0.1488  0.2854
17787W        W33256  14.282  11.619   1.686  0.2839 -0.0169  0.0800
17788W        W33257   0.530  11.517   3.876  0.0483 -0.2806  0.0929
17789W        W33258  13.197  14.202   2.533 -0.0313  0.0698 -0.1400
17790W        W33259   3.257  12.903   1.279  0.2213  0.1536  0.1833
17791W        W33260   9.661   8.006   3.561  0.0996 -0.1092  0.1343
17792W        W33261   4.932  10.552   1.312  0.1199 -0.0106 -0.0260
17793W        W33262  15.523   1.176  10.947 -0.0854 -0.3992 -0.2497
17794W        W33263   6.250   0.236   2.019 -0.1427  0.2561 -0.1315
17795W        W33264  13.252   7.203  15.971  0.0130  0.4185 -0.1216
17796W        W33265   5.733  11.041   2.843 -0.0934 -0.1700  0.1595
17797W        W33266   8.997   7.968   3.478  0.2930  0.3403 -0.0727
17798W        W33267   6.511   1.138  12.083  0.0240  0.1789  0.4672
17799W        W33268  10.276  13.164  12.596  0.0472 -0.1817 -0.0969
17800W        W33269  16.588   9.994   2.709 -0.1187 -0.0977 -0.1190
17801W        W33270  14.869   5.841   1.649 -0.0435 -0.0525  0.2086
17802W        W33271   7.847  14.410   2.908 -0.0201  0.1198 -0.2558
17803W        W33272  12.294  16.044   1.019 -0.1329 -0.1832  0.0845
17804W        W33273   1.783   8.163  12.687 -0.3235  0.0239  0.3098
17805W        W33274  16.324  11.056   1.264  0.1215  0.1916 -0.0826
17806W        W33275  15.132   5.171   0.209 -0.0067  0.0812  0.1095
17807W        W33276  16.395   9.194   3.249  0.2693 -0.2179  0.1096
17808W        W33277   9.142  15.109   0.724 -0.1269 -0.1330 -0.0539
17809W        W33278  13.185  14.643   4.263 -0.0508  0.1969  0.0432
17810W        W33279   9.550  14.140  13.272  0.0272 -0.0192 -0.0028
17811W        W33280  17.275   0.888  15.254 -0.3028 -0.0228 -0.0897
17812W        W33281   5.628  14.793  15.283  0.0227 -0.2381 -0.1464
17813W        W33282   3.563   2.059   3.060  0.1036  0.5089  0.0229
17814W        W33283  17.723   1.707   1.845 -0.0709  0.3057  0.0384
17815W        W33284  16.544   2.700  13.446  0.3583 -0.1729 -0.1840
17816W        W33285  12.231   6.845   0.880  0.0035 -0.3834 -0.1482
17817W        W33286   7.801  10.854  10.369 -0.0202 -0.1215  0.0920
17818W        W33287  16.561   3.283   2.280  0.0984  0.2878  0.0657
17819W        W33288  16.224  14.291   4.364  0.3267  0.0052  0.1549
17820W        W33289  12.243   2.202  12.322 -0.1036  0.0471  0.0381
17821W        W33290  16.845  13.327  11.148 -0.1481 -0.0909 -0.0185
17822W        W33291  11.068   9.653   5.609 -0.1375 -0.0848 -0.2380
17823W        W33292   0.868   1.171  15.501  0.1479  0.0433  0.0229
17824W        W33293  13.320   1.538   5.980 -0.1110 -0.0840 -0.0148
17825W        W33294   5.383  16.245  13.547 -0.0499 -0.0186  0.1534
17826W        W33295  16.797  12.503  15.548 -0.0717 -0.4095 -0.4092
17827W        W33296   7.170   2.382  14.958  0.1857  0.1783 -0.0361
17828W        W33297  10.120  13.766  16.224  0.1496 -0.0233 -0.1212
17829W        W33298  16.183   7.665  11.619 -0.0767  0.1496 -0.1015
17830W        W33299   3.673  17.000  11.472 -0.0657  0.3233 -0.1725
17831W        W33300   0.366   2.664  13.529 -0.1579 -0.0782 -0.4295
17832W        W33301   5.677   4.508   5.826 -0.0197 -0.1211 -0.1171
17833W        W33302  10.903   7.184  16.250 -0.0661 -0.1771  0.0342
17834W        W33303   5.325  13.064   4.887 -0.0458 -0.2099  0.2476
17835W        W33304   8.461   8.346  13.818  0.1523 -0.0970  0.0040
17836W        W33305   3.388  11.878   2.843  0.2083  0.0248 -0.3661
17837W        W33306  13.754  17.123   0.472 -0.0375  0.0459  0.0295
17838W        W33307   2.022   8.556   2.832 -0.1855 -0.1384  0.2275
17839W        W33308   8.347   0.475   1.125 -0.0502  0.2430  0.2678
17840W        W33309   6.058  14.899  10.666  0.2133  0.1201  0.2207
17841W        W33310   7.999  14.891   2.570  0.3086 -0.2324 -0.1111
17842W        W33311   8.518  17.590   2.832 -0.1604  0.2274 -0.0493
17843W        W33312   3.610  15.774  15.138  0.2425  0.0387  0.1081
17844W        W33313   4.748   7.818   1.573 -0.0382  0.2437 -0.2506
17845W        W33314   0.849   6.770  12.020  0.0972  0.1870  0.0037
17846W        W33315   8.399   4.856   5.111  0.1781  0.1003  0.1474
17847W        W33316  13.772   3.943  12.043 -0.1082 -0.0901 -0.1947
17848W        W33317   0.074   8.549  11.226  0.0513 -0.0984 -0.2709
17849W        W33318  15.093   0.811  13.418 -0.0647  0.0521  0.0277
17850W        W33319  15.917   9.546  15.703  0.2699  0.0698  0.2814
17851W        W33320  17.740   7.494  12.324  0.0478  0.1282  0.0124
17852W        W33321  13.324   9.559   2.428 -0.3248 -0.2245 -0.1486
17853W        W33322   8.695   4.525   0.482 -0.1404  0.3151  0.1633
17854W        W33323   5.279   3.526   1.037  0.2194  0.0048 -0.3541
17855W        W33324   0.532   5.341   3.209 -0.0817 -0.2309  0.2810
17856W        W33325   0.446   2.471   3.764  0.0835 -0.2046 -0.4204
17857W        W33326   6.665   1.468  12.702 -0.1243  0.1763  0.1587
17858W        W33327   0.098   8.512   2.462  0.0735 -0.2403  0.0073
17859W        W33328  17.643  12.034   4.718 -0.2560  0.1948 -0.4294
17860W        W33329   1.970   2.971   4.509 -0.0888  0.0130  0.1176
17861W        W33330   9.842  13.539  13.719 -0.1926 -0.0455  0.0498
17862W        W33331  10.112   0.705  14.340 -0.0765 -0.1315  0.3400
17863W        W33332  10.793   5.890   5.291  0.1352 -0.0352  0.2237
17864W        W33333  11.198   5.996  15.544  0.0924 -0.0006  0.1721
17865W        W33334   9.274  16.014  15.856  0.1439 -0.1738 -0.1223
17866W        W33335  16.630  10.169   0.810 -0.1924  0.0516  0.2327
17867W        W33336  10.605   9.423   5.489 -0.5107 -0.1824 -0.2512
17868W        W33337   9.061   3.960   1.792 -0.0020  0.0024 -0.1262
17869W        W33338  12.500  12.040   1.490 -0.0503  0.0731 -0.3986
17870W        W33339  13.542   8.310  14.789  0.4700 -0.2779 -0.1129
17871W        W33340   1.267   5.920  13.217 -0.1196 -0.0603 -0.1951
17872W        W33341   9.941   1.475   0.319  0.2392 -0.0630 -0.0573
17873W        W33342   7.406  12.825  11.903 -0.0873 -0.0588  0.1117
17874W        W33343   6.189   3.706  14.977  0.1335 -0.1114 -0.0145
17875W        W33344  14.903  16.867  12.105 -0.0574  0.0646 -0.1439
17876W        W33345   4.308   4.431  10.537  0.2351  0.1671 -0.1617
17877W        W33346   5.261  17.195  12.048 -0.4081  0.0997 -0.1555
17878W        W33347   8.755  14.052  11.378  0.0865  0.0516 -0.1560
17879W        W33348  14.488   1.851  11.369 -0.1923  0.2045 -0.2257
17880W        W33349  10.998  12.650   3.650  0.0686  0.2540  0.2659
17881W        W33350   0.426   9.909   0.358  0.0528 -0.0153 -0.1087
17882W        W33351  16.672   4.546   1.747  0.0482 -0.1914  0.1322
17883W        W33352  14.536  13.621   2.286  0.0812  0.1725 -0.2362
17884W        W33353   7.921  14.792   1.695 -0.2985  0.0723 -0.1668
17885W        W33354   1.750  10.301   0.955  0.0169 -0.0486  0.1532
17886W        W33355  10.535   8.197   1.025  0.2857  0.1272 -0.1996
17887W        W33356  16.941   1.713   4.576  0.2657  0.0349 -0.0074
17888W        W33357   8.264   3.212  16.128 -0.1618  0.0244  0.3716
17889W        W33358   4.237  11.883  13.098 -0.0614 -0.1348  0.0601
17890W        W33359  14.303   7.488   0.593  0.2197  0.1695 -0.0026
17891W        W33360   4.475   0.965   1.676  0.2660 -0.0405  0.0603
17892W        W33361   4.577  13.941  13.494  0.0555  0.0023 -0.0847
17893W        W33362   4.684   9.535  14.628  0.0459  0.0843 -0.0468
17894W        W33363   1.130  12.357  10.916 -0.4198  0.0054 -0.2329
17895W        W33364   8.977   8.961   5.396  0.0677  0.2913 -0.2165
17896W        W33365  14.629   0.798  10.642  0.1473 -0.0540  0.1704
17897W        W33366   2.373   4.199  13.506 -0.0096  0.0967 -0.1961
17898W        W33367   4.161   1.669  14.493 -0.2036  0.0517  0.0045
17899W        W33368   6.156  17.674  11.208 -0.1181 -0.0690 -0.1258
17900W        W33369   4.925  17.264   3.112  0.0282  0.2379 -0.3862
17901W        W33370  17.454   9.698  14.055  0.1840  0.0576  0.0763
17902W        W33371   3.336   5.287   3.289 -0.1917  0.4898  0.0743
17903W        W33372   4.929  11.151  13.089  0.1593  0.2696  0.1445
17904W        W33373   4.021   6.716   2.617  0.0301  0.2121  0.1185
17905W        W33374   4.401   1.357   2.559 -0.1504  0.0798 -0.0117
17906W        W33375  16.555  14.880  13.220  0.0134 -0.1948  0.3020
17907W        W33376   1.506  11.456  10.994  0.1029  0.2436 -0.1531
17908W        W33377  10.712   2.537   6.408 -0.0897 -0.4169 -0.0299
17909W        W33378  11.669   2.837   0.949 -0.3646 -0.1889 -0.0984
17910W        W33379  12.056   2.670   2.768  0.2320 -0.2357 -0.1375
17911W        W33380   5.523  14.804  14.501 -0.0958 -0.2543  0.1001
17912W        W33381   9.990  10.411  15.749  0.1181 -0.0552 -0.0621
17913W        W33382   2.378  15.745   1.501  0.1748 -0.0243  0.2496
17914W        W33383   7.285   4.156  13.276  0.2103 -0.2600  0.0464
17915W        W33384   1.678   1.645  13.371  0.1917 -0.0790 -0.0647
17916W        W33385  13.929  14.691  11.943  0.0448 -0.0907 -0.2206
17917W        W33386   2.378  14.737   4.053 -0.2735  0.1867  0.3030
17918W        W33387   3.255  13.387  15.518 -0.0315 -0.2495 -0.1789
17919W        W33388   7.520  13.623  14.028 -0.2985 -0.1538 -0.2507
17920W        W33389  14.333   2.868   0.322  0.2236 -0.2387 -0.0515
17921W        W33390   5.527   7.735  10.881  0.1629  0.0514  0.1914
17922W        W33391   7.248   2.089  11.907 -0.0942 -0.0917 -0.1110
17923W        W33392   0.133  10.521   5.334 -0.0482  0.0978 -0.1451
17924W        W33393   6.693  15.244   0.783  0.1364 -0.1304 -0.0511
17925W        W33394  15.149  13.784  12.806  0.1410 -0.1759  0.1443
17926W        W33395  18.065  11.385  12.126  0.2059 -0.1551  0.0537
17927W        W33396   1.603   9.461  10.824 -0.2046  0.1975  0.0347
17928W        W33397  15.390  10.603   1.698  0.0021  0.2929  0.3360
17929W        W33398   9.717   7.180   0.479 -0.1807  0.2896 -0.3430
17930W        W33399   9.498  17.811   0.863 -0.2757 -0.0208 -0.1327
17931W        W33400  11.802  16.676   0.779  0.2840  0.3030  0.0614
17932W        W33401  10.486   7.849  14.774 -0.2690 -0.0261 -0.0984
17933W        W33402   2.541  10.896  15.452 -0.0047 -0.1619  0.0449
17934W        W33403  12.083   5.233   2.355  0.2895 -0.1843 -0.0286
17935W        W33404   2.170   1.374  15.949  0.0722  0.0925  0.1747
17936W        W33405  11.877   9.833  14.265  0.0418 -0.0082 -0.0516
17937W        W33406   2.069   5.072   0.494 -0.0592 -0.1303  0.2625
17938W        W33407  11.677   0.508  12.340  0.0539  0.1786  0.0690
17939W        W33408  13.847   2.768  14.162 -0.2739 -0.0693  0.3259
17940W        W33409   0.255   4.223   2.257 -0.0671  0.0482  0.0775
17941W        W33410  12.430  17.111   4.264  0.2081  0.1881 -0.4279
17942W        W33411  17.522  10.131  14.891 -0.1602 -0.0392  0.1208
17943W        W33412  13.713   1.411   2.647  0.0809 -0.0562  0.2096
17944W        W33413  17.589   3.221   4.109 -0.2570 -0.1962  0.0180
17945W        W33414   9.749   2.926   3.209  0.0532  0.0103 -0.0320
17946W        W33415   1.797   0.913   3.503  0.2489  0.0885 -0.1196
17947W        W33416   3.955   2.463  15.991  0.0577 -0.2966 -0.0709
17948W        W33417  15.132  17.072   5.136  0.0641  0.0898  0.1146
17949W        W33418  11.105   2.730  11.446  0.1993  0.1823  0.0534
17950W        W33419   0.153   4.994   3.393  0.3832  0.0243  0.0338
17951W        W33420   0.229   3.860  11.940  0.1893  0.2551 -0.0305
17952W        W33421  17.886  16.979   2.973 -0.1151  0.1559  0.0811
17953W        W33422   7.610  12.572   3.297  0.0173 -0.3220  0.0699
17954W        W33423   8.589   2.478   5.211  0.0991  0.1607  0.0444
17955W        W33424  17.185   1.563   1.743 -0.0168 -0.0575  0.0108
17956W        W33425   2.495  16.039   1.911 -0.4068 -0.0005  0.1027
17957W        W33426  16.635   4.833   5.366 -0.3620 -0.0618  0.0971
17958W        W33427  13.805   6.371   1.734 -0.0383  0.0951 -0.1572
17959W        W33428   2.045  14.119   2.230 -0.2264  0.1666 -0.1000
17960W        W33429   1.093  14.375  14.736 -0.0707  0.0725  0.1284
17961W        W33430  15.317  14.970   3.436  0.0490  0.0466  0.0323
17962W        W33431   8.624  14.797   0.176  0.0286 -0.0181 -0.0335
17963W        W33432  12.996  10.081  10.341  0.3053 -0.0479 -0.2122
17964W        W33433   3.979  13.769  11.162 -0.0393 -0.1204 -0.2015
17965W        W33434  14.063   9.105  15.990 -0.1599  0.2452  0.0792
17966W        W33435  16.399  15.285   4.088 -0.0552  0.2816  0.1133
17967W        W33436  11.877  17.995  11.753 -0.1065 -0.2817  0.1711
17968W        W33437  12.042  11.295   5.431  0.0075  0.2081  0.2300
17969W        W33438  14.364  15.120   1.547  0.0795 -0.2546 -0.2268
17970W        W33439   8.308   8.064  15.898 -0.1666  0.3037  0.1053
17971W        W33440  17.597  15.956   0.856  0.0184  0.0096  0.0623
17972W        W33441   0.503  14.472  12.864 -0.0767  0.4153  0.1372
17973W        W33442   4.448  12.647   3.309  0.2561 -0.2764 -0.0377
17974W        W33443   9.221  13.356   0.093  0.0327 -0.0496 -0.1785
17975W        W33444  12.639   0.452  16.305 -0.1749  0.0317 -0.0491
17976W        W33445   9.822  12.806   4.254 -0.1732 -0.0396 -0.0809
17977W        W33446   8.383   8.932   1.014  0.1828  0.0918 -0.4315
17978W        W33447  10.615   9.841   0.674  0.0432 -0.2511 -0.0804
17979W        W33448  11.839   8.308  15.147  0.4153 -0.0920 -0.0669
17980W        W33449   4.019  12.469   1.992 -0.1141  0.1526 -0.0195
17981W        W33450   0.514   2.181  12.464 -0.0602 -0.2259  0.1613
17982W        W33451   3.750   9.535   4.032 -0.2843  0.0233 -0.3372
17983W        W33452  15.990  12.424  14.098 -0.2590  0.0680  0.1798
17984W        W33453  14.279   8.288  12.926  0.2510 -0.0579 -0.0123
17985W        W33454   9.696   6.429  11.895 -0.1054 -0.2340  0.0597
17986W        W33455   3.398   7.854   1.308  0.0715  0.2508  0.1835
17987W        W33456  17.422   1.566   0.647  0.1683  0.2096 -0.0654
17988W        W33457   6.820  13.558  11.917 -0.1023  0.0217  0.2697
17989W        W33458   1.626   4.271  10.737  0.0698 -0.0760 -0.0423
17990W        W33459   9.898  15.607  15.992 -0.2032 -0.1078  0.0265
17991W        W33460  16.316  10.849   0.521 -0.1594 -0.1904 -0.0783
17992W        W33461   0.240  17.106   0.219  0.1285  0.1046 -0.0381
17993W        W33462   6.806   2.643   3.326  0.2058 -0.1211 -0.0773
17994W        W33463   8.649  10.886  11.010  0.4739 -0.2253  0.1456
17995W        W33464  12.495  11.803   4.561 -0.0115  0.0074  0.1093
17996W        W33465  15.053   1.319  13.643 -0.2516  0.3320  0.2341
17997W        W33466  10.556   7.050  11.965  0.1012 -0.1001 -0.2940
17998W        W33467   2.034  13.934   5.062  0.0900 -0.1151  0.1903
17999W        W33468  12.438   3.742   2.394 -0.2883  0.1415 -0.0557
18000W        W33469   2.183   4.453  16.240 -0.3594 -0.1330  0.0218
18001W        W33470   6.407   7.913   5.271  0.0803 -0.0988  0.2807
18002W        W33471   7.187   3.635  13.657  0.0405 -0.2671  0.2999
18003W        W33472  11.219  13.651  11.668 -0.1118 -0.1221 -0.3252
18004W        W33473   9.273  14.598   0.793  0.1934  0.1287  0.1599
18005W        W33474  15.602   3.965  13.858 -0.0174 -0.3431 -0.1040
18006W        W33475  14.854   5.286   1.556  0.0037 -0.0757  0.0034
18007W        W33476  11.315   0.790  13.738  0.0368 -0.0183 -0.1626
18008W        W33477   7.680   3.094  10.929 -0.0254 -0.1102 -0.0333
18009W        W33478   9.275  14.116   3.619  0.1279 -0.0382 -0.3098
18010W        W33479  15.423   1.032  12.219 -0.0910  0.0539  0.0648
18011W        W33480  17.626  12.598  15.375 -0.0672 -0.1855  0.1681
18012W        W33481  10.043   9.344  11.448  0.1271 -0.0309 -0.0004
18013W        W33482  10.794   2.120   2.965  0.2389 -0.1863 -0.1701
18014W        W33483  15.842  12.361  14.590 -0.0068 -0.1042  0.0323
18015W        W33484   3.191  14.563  13.848 -0.0941 -0.0022  0.1852
18016W        W33485   8.288  11.604   0.937  0.1868  0.2634 -0.0590
18017W        W33486   5.348  17.706   0.629 -0.3642  0.0626 -0.1453
18018W        W33487   1.123  14.072  12.335 -0.1092 -0.2382 -0.1059
18019W        W33488  16.946  10.151   5.377 -0.0095  0.1389  0.1820
18020W        W33489  11.796  15.741   5.413  0.1107  0.2184 -0.0893
18021W        W33490   4.421   2.674   0.731  0.2726 -0.1666 -0.2133
18022W        W33491   4.309   4.129  16.247  0.1737  0.2260 -0.2452
18023W        W33492   1.602   8.741   4.511 -0.3604  0.0471  0.1656
18024W        W33493  11.564  11.637  15.269  0.1659  0.2233 -0.2543
18025W        W33494   0.680   8.961  15.838 -0.1010 -0.0022 -0.0878
18026W        W33495   8.022   2.761   3.224 -0.1898  0.0473  0.0860
18027W        W33496   7.952   3.628   5.054  0.0203  0.0010  0.1297
18028W        W33497   6.557  15.647   6.278  0.0600 -0.3466  0.1308
18029W        W33498   7.805   7.530   3.580 -0.1169  0.1205 -0.0017
18030W        W33499  17.670   4.241   1.800  0.1115 -0.0843 -0.1022
18031W        W33500   1.857   0.282  13.708 -0.0473 -0.2668 -0.0616
18032W        W33501  15.293  10.545   2.516  0.2430 -0.0517 -0.0336
18033W        W33502  16.353   9.218   3.894 -0.0612  0.1642  0.2755
18034W        W33503  16.888   6.265  14.931  0.0967 -0.1139 -0.0118
18035W        W33504  17.271   1.905  13.267  0.0555 -0.0093  0.2065
18036W        W33505  17.854   3.272  13.964  0.1009 -0.4526 -0.0376
18037W        W33506   9.486  13.120  12.261 -0.0289 -0.1138 -0.2883
18038W        W33507   1.481   5.355  11.011  0.0779 -0.1666 -0.1126
18039W        W33508   6.875  14.895  14.427  0.0845  0.0498  0.3543
18040W        W33509   6.202  16.854   3.130  0.3271  0.1408 -0.0319
18041W        W33510  13.487   1.066  12.616  0.1094  0.0757  0.0613
18042W        W33511  10.925  11.126   4.695 -0.0651 -0.1172 -0.0604
18043W        W33512   5.864   0.917   4.318  0.0732 -0.1088  0.1077
18044W        W33513   7.080   2.336  13.142  0.0346 -0.2232  0.0748
18045W        W33514   2.559  12.154   1.231  0.3123  0.0130 -0.1581
18046W        W33515   1.893   5.529   2.129 -0.3139 -0.0187 -0.1692
18047W        W33516  13.414   5.953   4.869 -0.0061  0.2334 -0.1232
18048W        W33517   0.045  13.656  13.353 -0.3514 -0.2945  0.2524
18049W        W33518  15.147  10.339  11.865  0.1306  0.0093 -0.0272
18050W        W33519   1.808  13.269   1.660 -0.3809 -0.0505 -0.0421
18051W        W33520  15.547   8.616  12.565  0.0687  0.1069 -0.0301
18052W        W33521   5.225   2.679  13.446 -0.0941 -0.0464  0.0466
18053W        W33522   4.741  17.151   3.584  0.0295  0.0803  0.0133
18054W        W33523  13.572   9.135   2.412  0.0413 -0.1654 -0.0810
18055W        W33524   8.937   0.822  14.426 -0.1777 -0.4303  0.1370
18056W        W33525   8.144  11.628  13.075 -0.5469 -0.0977 -0.0674
18057W        W33526   6.772   1.552   2.029  0.3918 -0.0853 -0.0361
18058W        W33527   8.073   7.706   5.114  0.3469  0.0423  0.0934
18059W        W33528   0.650  14.699   1.102  0.2537  0.0797 -0.0492
18060W        W33529   2.392  11.533  13.182  0.2218 -0.0683  0.1431
18061W        W33530   9.411   6.508   4.996  0.1925  0.1752 -0.1237
18062W        W33531   6.629   5.916   0.627  0.0746 -0.0181 -0.1477
18063W        W33532  10.313   3.547  13.388 -0.0623 -0.0014 -0.0501
18064W        W33533   9.885   8.754  13.193 -0.2160  0.0046  0.4061
18065W        W33534   3.258  17.824  13.468 -0.0438 -0.1330  0.1750
18066W        W33535   0.262   2.348  15.589 -0.4192  0.0265  0.0965
18067W        W33536  17.029  14.201   5.550 -0.0442  0.0204  0.1673
18068W        W33537  16.609   5.048  10.836  0.2710  0.0973 -0.3908
18069W        W33538  14.057  15.471  15.334  0.0843  0.1279  0.0653
18070W        W33539  15.349  14.224   0.424  0.0650  0.0285 -0.2907
18071W        W33540  14.676  17.118   1.056 -0.2012 -0.1579  0.0756
18072W        W33541   5.273  11.513  16.241  0.2751  0.0557 -0.0480
18073W        W33542   1.483  10.157  10.968  0.1312  0.0227 -0.0963
18074W        W33543  14.571  14.040  14.574  0.1992 -0.0596 -0.0706
18075W        W33544   9.450   7.025   3.487 -0.1843 -0.0910  0.3878
18076W        W33545   3.478  11.629  15.174 -0.0203  0.0167 -0.1502
18077W        W33546  16.513  16.124   3.872  0.2408  0.0433 -0.1319
18078W        W33547  17.809  10.784  15.903 -0.1840 -0.2192  0.1445
18079W        W33548  11.996   8.540  12.232  0.0657  0.1757 -0.0187
18080W        W33549   8.976   5.272  10.362  0.0494 -0.0324 -0.1385
18081W        W33550   8.809  10.547   1.700 -0.2246 -0.2041 -0.0321
18082W        W33551  14.206   0.938   3.877 -0.1934  0.1440  0.1507
18083W        W33552  16.811  13.828   5.088 -0.1535  0.1684  0.0339
18084W        W33553  15.085  10.870  10.939 -0.0859 -0.1021  0.2618
18085W        W33554  17.075  14.145   2.798  0.0127 -0.1888 -0.1988
18086W        W33555   2.867  10.663   4.912  0.1868  0.0601 -0.0821
18087W        W33556  13.605   9.154  11.513 -0.0075 -0.0598 -0.0396
18088W        W33557   6.991   0.355   3.033 -0.1889  0.1385 -0.0056
18089W        W33558  10.659   1.447   3.055  0.1173 -0.0946  0.2999
18090W        W33559  11.562   0.361  14.596  0.2082 -0.0998 -0.1590
18091W        W33560   4.549   3.286   5.390  0.1294  0.3255  0.0814
18092W        W33561  11.325  13.373   2.980  0.2137 -0.0850  0.0801
18093W        W33562   3.588   2.819   1.028 -0.2059  0.1789  0.1874
18094W        W33563  12.473  16.293  14.422  0.0059  0.1991 -0.1395
18095W        W33564  14.542  10.882   5.349 -0.0036 -0.1367 -0.0556
18096W        W33565   9.291   6.684   1.907 -0.0326  0.2468 -0.0844
18097W        W33566   0.508  17.676  15.382 -0.3445 -0.2380 -0.1630
18098W        W33567   2.598   8.837   1.148 -0.0820  0.2615 -0.2219
18099W        W33568   6.921   5.954   4.588  0.0455  0.1608 -0.4565
18100W        W33569   3.007  11.957  15.285 -0.3473 -0.3308 -0.0208
18101W        W33570   5.486  16.890  14.873 -0.1221  0.3043  0.1777
18102W        W33571  10.218  16.405  11.745 -0.0503 -0.0286  0.1631
18103W        W33572  15.181   8.657  15.875  0.1510 -0.0163  0.0987
18104W        W33573   3.115   6.196   1.659 -0.1940 -0.2698 -0.0710
18105W        W33574  11.030   0.282   5.106 -0.0062 -0.0655 -0.2441
18106W        W33575  17.893   4.968   0.088 -0.0822  0.2748  0.0018
18107W        W33576   7.007  17.395   4.386  0.0705  0.1116 -0.0460
18108W        W33577  13.357  13.117  15.553  0.4080 -0.0311 -0.1697
18109W        W33578   4.447   0.193   2.552  0.1526  0.1234  0.1078
18110W        W33579   5.107  12.974   4.444  0.1814 -0.0711 -0.1576
18111W        W33580   2.270  12.366  15.039 -0.2419  0.2705 -0.0970
18112W        W33581  10.950  17.681  11.597 -0.0510  0.4403 -0.1850
18113W        W33582   4.615  10.726   5.403  0.2173 -0.0929 -0.1040
18114W        W33583   3.738   0.008   0.050  0.1252  0.2605 -0.1567
18115W        W33584   8.024   6.184  10.352 -0.0145  0.1933  0.0041
18116W        W33585  15.898   3.513  16.227  0.0716  0.1208 -0.1895
18117W        W33586  11.313   7.063  11.178  0.1846 -0.2004  0.1622
18118W        W33587   8.876   7.652   3.108  0.1642  0.3466  0.0379
18119W        W33588  17.023  13.956  13.028 -0.0100 -0.0614 -0.1952
18120W        W33589   1.302  17.686   1.569  0.0877  0.0731  0.0760
18121W        W33590   9.919  12.179   0.564 -0.3321 -0.2359 -0.4674
18122W        W33591   7.107   7.007  12.684 -0.0190  0.1920  0.4597
18123W        W33592  15.677   0.356  11.334 -0.0934 -0.1090  0.3366
18124W        W33593   6.069  16.149  12.027  0.0986 -0.2147  0.1106
18125W        W33594   4.880   0.450   4.805 -0.1601 -0.0073 -0.0148
18126W        W33595   5.504   3.141  15.641  0.1465 -0.0352 -0.2934
18127W        W33596   6.535  17.743   3.443 -0.1532  0.0179  0.0984
18128W        W33597  17.808   9.013   0.814 -0.0692  0.0972 -0.0943
18129W        W33598   2.527  16.644   2.667 -0.0072 -0.0546  0.1195
18130W        W33599  11.893  10.272   0.964  0.0765  0.4611  0.1180
18131W        W33600  10.307   6.729   4.727  0.4732  0.1226 -0.0456
18132W        W33601   4.456  11.163  15.973  0.1234 -0.2030  0.0071
18133W        W33602  15.226  17.142  11.182 -0.2196 -0.0640 -0.0756
18134W        W33603   5.927   1.606  12.920  0.3033 -0.1403  0.0809
18135W        W33604   1.389   7.497  11.840 -0.0443 -0.1850 -0.0154
18136W        W33605  11.303   5.664   3.429  0.2771 -0.1316  0.0183
18137W        W33606  16.860   3.361   0.879 -0.1812 -0.1067  0.3903
18138W        W33607   3.600   0.899  12.299  0.1419  0.0224  0.2261
18139W        W33608  14.408  15.514   0.015  0.4796 -0.1667 -0.1080
18140W        W33609  13.532  16.339  11.728 -0.2824 -0.0592 -0.0377
18141W        W33610  16.370   8.571   2.472  0.2704 -0.3041 -0.0124
18142W        W33611   0.384   8.798  11.545  0.0200 -0.0104 -0.1168
18143W        W33612   4.067   0.399   2.792 -0.0608  0.0793 -0.1782
18144W        W33613   0.903  12.986   3.106  0.0403  0.1964 -0.0292
18145W        W33614  11.988   8.921   0.977  0.3201 -0.1612 -0.2033
18146W        W33615   9.359   5.211  11.502  0.3998  0.0894 -0.0426
18147W        W33616  13.543   3.089  13.171  0.0407 -0.0008 -0.2892
18148W        W33617   5.116   4.611  13.347 -0.2624  0.0378  0.1770
18149W        W33618   8.428   4.861  14.964  0.0533 -0.2384  0.1490
18150W        W33619  11.405  14.597  15.585  0.2408 -0.0779  0.1896
18151W        W33620   2.791  16.513  15.873  0.2020 -0.0003  0.0632
18152W        W33621   0.056  13.064  14.953  0.2716 -0.0648 -0.0213
18153W        W33622   4.007  12.255   4.650 -0.2918 -0.0158  0.0934
18154W        W33623   4.853   7.161   2.086 -0.0086  0.1934  0.0113
18155W        W33624  10.049   2.788  11.743  0.2396 -0.0905  0.0720
18156W        W33625  12.314   4.729   1.750 -0.1792 -0.1038 -0.0941
18157W        W33626   9.206   4.851  13.411 -0.3246  0.2396  0.0352
18158W        W33627   0.109   1.597  13.045  0.2032  0.1491 -0.1599
18159W        W33628   2.230   0.981   2.078  0.0567  0.0100  0.2156
18160W        W33629   8.583   4.408   3.287 -0.4393 -0.6110 -0.0264
18161W        W33630   7.489   5.017   1.698  0.1266 -0.1093  0.0116
18162W        W33631  17.627  11.681   2.603  0.0774 -0.0801  0.1251
18163W        W33632  11.393   3.609   0.147 -0.0389 -0.0023  0.0183
18164W        W33633  15.350  14.146  14.914 -0.3678  0.0016  0.1841
18165W        W33634   6.965  10.742  12.549 -0.1154 -0.0190  0.1010
18166W        W33635   7.768  17.924  15.362  0.3401  0.0762 -0.0823
18167W        W33636   0.075  11.375  12.645  0.1901 -0.2118 -0.2058
18168W        W33637   6.806   6.782  11.650 -0.3130  0.2515  0.1342
18169W        W33638   0.597  15.636   3.521  0.0085 -0.2153 -0.4537
18170W        W33639  12.206  10.215  13.049  0.0077  0.2648  0.3309
18171W        W33640  14.761   7.645   4.331  0.0492  0.2901 -0.0135
18172W        W33641   8.208   2.484  11.528 -0.1624 -0.1628 -0.0603
18173W        W33642  11.587   8.896   1.789  0.2971  0.0464 -0.0569
18174W        W33643   6.353   3.779  13.168  0.1520 -0.0101  0.0448
18175W        W33644  11.354   0.652  12.718  0.0933 -0.0360  0.0052
18176W        W33645  10.997  16.783   5.498  0.1306  0.0740 -0.0736
18177W        W33646  14.453   3.948   3.246 -0.2145  0.0587  0.1901
18178W        W33647  12.456  16.025  13.070  0.0938 -0.1325  0.1325
18179W        W33648   1.626  10.222  14.351 -0.0894 -0.3802  0.1177
18180W        W33649   1.236   3.148   1.385  0.0829  0.1311 -0.1688
18181W        W33650  10.886   6.910  15.371  0.0549 -0.2611  0.1541
18182W        W33651   2.243  13.093   2.752  0.0872  0.5014  0.2835
18183W        W33652   8.220  14.041  16.259 -0.1361 -0.1253 -0.1136
18184W        W33653   7.707   9.377  15.605 -0.1471 -0.0847 -0.1765
18185W        W33654  13.970  10.595   1.820  0.0514  0.1139  0.0861
18186W        W33655   2.861   9.388   4.555  0.0408  0.1266 -0.1685
18187W        W33656   2.199   6.947   4.669 -0.1657 -0.1025  0.2735
18188W        W33657   6.420  10.628   4.705 -0.1413 -0.3046 -0.0847
18189W        W33658   8.623   8.251   4.984 -0.1642 -0.2278  0.1048
18190W        W33659   4.328   7.321  12.615 -0.0747 -0.0049  0.0258
18191W        W33660   2.836   7.697  15.030 -0.0081 -0.0312  0.0059
18192W        W33661   4.482   5.716   2.698 -0.0030  0.1734 -0.0618
18193W        W33662   0.490   7.828  13.357  0.0597 -0.0304  0.0766
18194W        W33663   0.806   3.066  14.516  0.1844 -0.2124  0.0242
18195W        W33664  14.849  17.333   0.556 -0.0266 -0.0534  0.1441
18196W        W33665  17.020   6.201  12.798 -0.1090  0.0160  0.0317
18197W        W33666   1.737   0.976  11.371 -0.0432 -0.0080  0.1452
18198W        W33667  10.666  10.473  13.727 -0.2128  0.0537  0.3393
18199W        W33668   7.921   6.226  14.285  0.2643  0.0974 -0.3028
18200W        W33669   4.908  13.851   4.206 -0.3122 -0.4720  0.2023
18201W        W33670   7.609   7.059  12.726  0.0964  0.2161 -0.0222
18202W        W33671  10.418  12.937   1.033 -0.0463  0.0933 -0.2653
18203W        W33672   4.294  10.527   2.104  0.2975 -0.0038  0.2208
18204W        W33673  16.614  15.042  14.670 -0.0743  0.1272  0.0289
18205W        W33674   3.329  12.922  12.640  0.1466  0.2326 -0.2152
18206W        W33675  10.140   7.380  11.902  0.0015  0.1376  0.0725
18207W        W33676  14.952   1.579  11.278 -0.1450  0.1393  0.0747
18208W        W33677  12.488   3.699   3.016  0.0160  0.0818 -0.2408
18209W        W33678  17.806   4.830  15.855  0.0800 -0.0131  0.0488
18210W        W33679   1.999  10.046   5.018  0.3146 -0.0967  0.2947
18211W        W33680  15.932   7.931   4.047 -0.2319 -0.2245  0.1863
18212W        W33681   4.227  11.778  15.287 -0.0439 -0.0451  0.2671
18213W        W33682   1.510  11.222   4.488  0.2595  0.0470  0.2085
18214W        W33683   2.194  15.640  14.360 -0.0300  0.1178 -0.1429
18215W        W33684  14.424  11.706   3.461 -0.0183  0.1875 -0.1514
18216W        W33685   0.918   8.787  14.759 -0.0689  0.0432  0.0402
18217W        W33686   2.980  13.814   0.675  0.0268 -0.1193 -0.1500
18218W        W33687  13.283  10.853   3.272  0.0262  0.1686  0.0263
18219W        W33688   0.499  16.399  15.025 -0.1792 -0.2365 -0.0016
18220W        W33689  14.915   2.013   3.877 -0.1646  0.1982  0.0123
18221W        W33690  11.875   8.374   0.314 -0.1570  0.3290 -0.0340
18222W        W33691  15.063   6.986   3.387  0.1588 -0.0951  0.2408
18223W        W33692   8.252   1.983  16.254  0.0612 -0.1613 -0.0466
18224W        W33693   0.188  15.963   1.755  0.0500 -0.0686 -0.0541
18225W        W33694   4.009   5.043   2.591 -0.0921  0.4702 -0.0765
18226W        W33695   8.022  14.987  15.137  0.0751 -0.0957  0.0624
18227W        W33696   9.330  11.059  12.898 -0.2386 -0.0720 -0.1707
18228W        W33697  12.217   3.339   2.089 -0.1297 -0.0459 -0.1037
18229W        W33698  15.348  16.997   2.359 -0.0542  0.2547  0.2610
18230W        W33699   0.832   2.666  13.286  0.2880  0.1689  0.1889
18231W        W33700  10.135   7.027   5.209 -0.0432  0.3581 -0.3412
18232W        W33701   9.458  10.527  12.294  0.0366 -0.1766  0.4214
18233W        W33702  17.518  11.007  14.509  0.0598 -0.0582 -0.0801
18234W        W33703   4.087   0.403   5.421  0.0326  0.0935 -0.1117
18235W        W33704   6.244  15.884   4.541 -0.0970  0.1241 -0.0630
18236W        W33705  17.359  17.065  12.446 -0.1346  0.0419  0.1648
18237W        W33706  17.233   1.701  14.993 -0.2527 -0.0162 -0.2177
18238W        W33707  16.756  13.487   3.536  0.0684 -0.0342  0.3163
18239W        W33708   6.097   1.343  15.030  0.1077  0.0607  0.0624
18240W        W33709   3.114   9.810   0.306 -0.1047  0.0740 -0.0435
18241W        W33710  16.096   5.698  15.981 -0.2435 -0.0222 -0.1019
18242W        W33711   6.172  15.413   4.272 -0.2839  0.4432 -0.1029
18243W        W33712   9.902  14.921  10.331  0.0074 -0.2342 -0.0544
18244W        W33713   6.265  11.145   2.760 -0.0100 -0.1033 -0.0456
18245W        W33714   4.823  15.530  12.077  0.2910 -0.4050  0.0914
18246W        W33715   2.871   2.877   4.113  0.1162 -0.0387 -0.0523
18247W        W33716   1.993  12.399  12.359  0.3463  0.1135 -0.1400
18248W        W33717  11.688   4.608  12.125  0.1085 -0.0487 -0.4119
18249W        W33718   9.689   9.839   0.693  0.2115  0.1678 -0.0377
18250W        W33719   9.099  10.979  13.347  0.0794  0.0329 -0.0283
18251W        W33720  17.224   8.196  13.112  0.2269 -0.1324  0.5264
18252W        W33721   9.337  11.884  11.494 -0.2340  0.0874 -0.0549
18253W        W33722   4.495   7.038   0.696 -0.1244  0.3091 -0.0389
18254W        W33723  14.142   9.174   3.525  0.0943 -0.1148 -0.0323
18255W        W33724   8.211  15.357   2.489 -0.1332 -0.3123 -0.3931
18256W        W33725  15.166   9.234   5.705 -0.1445  0.0306 -0.0410
18257W        W33726  14.241  15.724   2.556 -0.0758 -0.0621 -0.3164
18258W        W33727   5.766   2.745  15.873  0.2407 -0.3618  0.2089
18259W        W33728  11.384  11.674   0.179  0.1660  0.0091  0.1721
18260W        W33729   7.892  10.511   4.620  0.1673 -0.4561  0.0850
18261W        W33730  10.549  17.514  11.881 -0.1804  0.2250  0.1937
18262W        W33731  16.675  11.017  12.259 -0.3152  0.0693  0.1939
18263W        W33732   0.788   1.542   4.522  0.1285 -0.1068 -0.0112
18264W        W33733  13.345   6.609  11.935 -0.4099 -0.1412 -0.0586
18265W        W33734  17.101   6.148   3.644 -0.1969 -0.1417  0.0486
18266W        W33735  17.342   5.049   0.157 -0.1589  0.0071 -0.2057
18267W        W33736   1.033  10.677  15.587  0.1371 -0.0702 -0.0911
18268W        W33737   8.099  16.625  12.476  0.3007  0.0713  0.0549
18269W        W33738  12.108  11.457   4.241  0.2074  0.1174  0.0378
18270W        W33739  12.391   9.318  15.044 -0.1141 -0.0467  0.1927
18271W        W33740  15.830   7.650  11.088  0.0681 -0.1731  0.2512
18272W        W33741  10.795   4.607   4.054 -0.0354 -0.4256 -0.0009
18273W        W33742   6.140   4.395   4.620  0.0499 -0.1644  0.1446
18274W        W33743   0.859  10.632  14.150 -0.0012 -0.2074 -0.2740
18275W        W33744   2.279   9.144  12.313  0.1932  0.2061 -0.2840
18276W        W33745  16.861  17.834  15.865 -0.3254 -0.1830 -0.3768
18277W        W33746   5.189   3.931  12.773  0.0497 -0.2205 -0.0761
18278W        W33747   7.828  15.958  13.755  0.0204  0.0703  0.2304
18279W        W33748   7.894  10.843   5.680  0.0866 -0.0979  0.2512
18280W        W33749   0.951  10.111   2.894  0.0121 -0.1368  0.0861
18281W        W33750   1.164   9.545  13.550  0.0775  0.0969 -0.2854
18282W        W33751  12.865   9.716  14.158 -0.2509 -0.1800  0.1774
18283W        W33752   4.238   4.099   1.468  0.0892 -0.3735  0.4580
18284W        W33753  12.802  10.103  12.884 -0.0187  0.0247  0.2884
18285W        W33754   8.973  12.702   3.796 -0.3037  0.1303  0.1445
18286W        W33755  13.942  17.302  12.960  0.1129  0.2635 -0.4036
18287W        W33756   6.549  10.101   3.847 -0.4118  0.1099 -0.2394
18288W        W33757  13.736   6.101  12.870 -0.1111  0.0407  0.2279
18289W        W33758  14.539  10.675  12.742  0.2524 -0.0694  0.0841
18290W        W33759  12.874   4.866   3.610 -0.1914  0.0023 -0.2866
18291W        W33760   4.710  12.284   0.923  0.1350  0.0958  0.1617
18292W        W33761   1.721   0.044   4.581 -0.2024 -0.1684 -0.3860
18293W        W33762   6.143  12.294  12.890  0.2294 -0.0288  0.3121
18294W        W33763  13.782   9.978  12.790 -0.0786 -0.1511  0.0641
18295W        W33764   0.697   5.665  10.389  0.0866 -0.2060 -0.1226
18296W        W33765  17.412  10.756  11.221  0.2083 -0.2080 -0.1255
18297W        W33766   6.296   3.140   3.444 -0.2355  0.1383 -0.1609
18298W        W33767   8.712   5.615   0.544 -0.0379  0.2965 -0.1281
18299W        W33768  16.268  17.926   4.443 -0.2684 -0.1483  0.1160
18300W        W33769  13.906  15.753   4.997  0.1649 -0.0167  0.2101
18301W        W33770   3.872   6.828  12.037  0.0323  0.0165 -0.0621
18302W        W33771  17.509   3.941   2.188  0.0023 -0.1849  0.3492
18303W        W33772   5.708  13.018  16.061  0.1431  0.1634  0.0674
18304W        W33773  11.712  11.757   1.842  0.0824  0.2231 -0.1293
18305W        W33774  11.405   1.700   1.795 -0.1022 -0.0556  0.3035
18306W        W33775   8.748  17.238   5.338 -0.1037 -0.0468  0.0415
18307W        W33776   2.265   1.155  12.817 -0.3300  0.0613 -0.1593
18308W        W33777   6.161   8.051   2.915  0.3360 -0.1942  0.1229
18309W        W33778   1.059  15.881  14.591  0.0325  0.1878 -0.0844
18310W        W33779  18.072  12.767  14.554  0.1158  0.1279  0.3333
18311W        W33780   5.820   6.758  15.214  0.0167 -0.0305 -0.0815
18312W        W33781   8.770  11.658  15.107  0.1445 -0.4001  0.1142
18313W        W33782  14.028  14.359  10.887 -0.0882  0.0941 -0.1784
18314W        W33783   4.650   4.947   0.297  0.0579  0.1719 -0.1056
18315W        W33784  11.499   1.533   0.492 -0.0817 -0.0538 -0.1490
18316W        W33785   6.109   7.007  16.234 -0.1737  0.3476  0.2424
18317W        W33786  13.896   5.132   4.904  0.0147 -0.3098  0.2491
18318W        W33787  16.584  16.159   5.107 -0.0156 -0.0785 -0.1121
18319W        W33788  15.824  12.064  12.157  0.2847  0.1199 -0.0906
18320W        W33789  15.973  16.805  15.652  0.1190 -0.2352 -0.3344
18321W        W33790   5.868   7.925  12.110 -0.3283 -0.1912  0.0008
18322W        W33791  11.649   3.445  15.825  0.1019 -0.1639  0.1086
18323W        W33792  10.032   5.052   5.165 -0.1765 -0.1234 -0.0004
18324W        W33793  16.912  13.544   2.437 -0.0549 -0.0165  0.2990
18325W        W33794  13.841   4.460   2.344  0.2044  0.2216 -0.3060
18326W        W33795  10.465   5.865   1.189 -0.1000  0.1019  0.0460
18327W        W33796   1.660  13.153   2.158 -0.0632  0.3904  0.0358
18328W        W33797   0.629   9.093  15.347 -0.2525 -0.1893 -0.1122
18329W        W33798   7.924   4.451  14.290  0.0519  0.0209 -0.1988
18330W        W33799   2.743   3.207   2.251  0.1625  0.2024  0.3401
18331W        W33800  15.394   6.957  12.970  0.1336 -0.0506  0.2427
18332W        W33801  15.891  11.348  15.440 -0.0105  0.1031  0.0105
18333W        W33802  14.560  15.417  15.385  0.0220  0.0493 -0.1918
18334W        W33803  17.025  15.955  14.418  0.1339  0.0189  0.2098
18335W        W33804  14.687   0.163  14.026 -0.1784 -0.0427 -0.0035
18336W        W33805   7.194  15.570  15.765 -0.1942 -0.1395 -0.1278
18337W        W33806   8.547  12.949  11.308 -0.1669  0.1638 -0.2904
18338W        W33807   4.059   0.500  11.147  0.1529  0.3409  0.2365
18339W        W33808  13.386   6.625   5.907 -0.2372 -0.2524 -0.1635
18340W        W33809  16.599   1.953  13.923  0.0449 -0.3212 -0.0382
18341W        W33810   8.768   1.993   4.322 -0.0392 -0.1020  0.2032
18342W        W33811   5.847  13.235   0.186  0.0158 -0.2463  0.2176
18343W        W33812  12.894   0.923   1.836 -0.0702  0.0252  0.2528
18344W        W33813   5.800  11.439   1.559  0.0716 -0.1866 -0.0438
18345W        W33814  15.196   7.021   0.653 -0.0371  0.1342  0.0574
18346W        W33815   7.300  15.255  11.836 -0.0046  0.1483 -0.3304
18347W        W33816   8.857   0.098  12.274  0.2389 -0.2714 -0.1163
18348W        W33817   6.953  13.695  15.356 -0.0754  0.3431  0.1359
18349W        W33818   2.402  12.555   3.465  0.0607 -0.1829 -0.0229
18350W        W33819   1.264  11.970  13.634  0.0721 -0.0054 -0.0078
18351W        W33820  16.903   0.009   0.063 -0.0004  0.0013 -0.1707
18352W        W33821  15.993  13.813   1.497  0.3646  0.1985  0.0671
18353W        W33822   7.665  12.657   1.740  0.0757  0.1535 -0.1494
18354W        W33823  12.097  13.094   4.414 -0.0643 -0.0236  0.0158
18355W        W33824   4.339   0.558   2.202  0.0582  0.0935  0.0726
18356W        W33825  10.558   2.909  14.731  0.4766  0.1684  0.1797
18357W        W33826  10.223   7.328   9.940  0.0611 -0.1977 -0.1253
18358W        W33827   8.218   6.424  11.956 -0.1105 -0.1464 -0.2410
18359W        W33828  14.698   5.238   4.409  0.2865  0.2126  0.3949
18360W        W33829   5.775  17.477  14.067 -0.1886  0.1127 -0.0470
18361W        W33830   0.389  11.974  11.675 -0.1101 -0.0183 -0.0720
18362W        W33831   2.048   6.478   2.449  0.0229  0.2360  0.0392
18363W        W33832   3.416  16.446   3.815  0.1260  0.1594  0.3561
18364W        W33833  11.811  16.157  16.101 -0.2591  0.0042  0.1955
18365W        W33834  14.389   8.943   0.946 -0.1537  0.0250 -0.4224
18366W        W33835  14.306   1.946  16.180 -0.2240 -0.0604 -0.1630
18367W        W33836  13.456  11.246   2.178 -0.0653 -0.1310  0.2422
18368W        W33837   5.221  15.258   1.456  0.3237  0.1531  0.0965
18369W        W33838   5.112   9.028  15.311  0.0849  0.0324 -0.0078
18370W        W33839   7.271  13.306  13.640  0.0543 -0.0619 -0.1705
18371W        W33840   7.208   6.241  13.952  0.1094 -0.0508 -0.2292
18372W        W33841  15.877   3.894   1.781  0.0537 -0.0694  0.0249
18373W        W33842   5.371   5.033   1.534  0.0199 -0.2377 -0.2743
18374W        W33843   0.647   5.356  14.214  0.0484  0.2268 -0.0031
18375W        W33844  15.991  11.268  11.303  0.1586 -0.1254 -0.1554
18376W        W33845  13.182   7.643  15.698  0.1706 -0.0721  0.0386
18377W        W33846  16.314  17.566  13.538 -0.3051  0.0293  0.1618
18378W        W33847   5.981   0.806  14.111 -0.1364  0.0693  0.0459
18379W        W33848  13.905   6.930  14.639 -0.0750  0.2099 -0.1415
18380W        W33849  15.028  14.083   5.379  0.1131 -0.3059  0.1750
18381W        W33850   9.328   2.356  15.537 -0.0421 -0.1123 -0.0644
18382W        W33851   3.776   4.976   1.148  0.1090  0.1399  0.2699
18383W        W33852   8.931  16.894  11.759  0.2389  0.0300  0.3557
18384W        W33853   9.459   8.052  11.563 -0.1009  0.2732  0.1483
18385W        W33854  12.995   6.351  14.245  0.1139 -0.0916 -0.1293
18386W        W33855   5.842  14.980   4.262 -0.0965 -0.3375 -0.0471
18387W        W33856  13.638  15.150   1.061 -0.1589  0.2201 -0.0431
18388W        W33857   5.700  17.976  15.813 -0.1635 -0.0542 -0.0507
18389W        W33858  16.123  16.867  13.149 -0.2796 -0.1282  0.2575
18390W        W33859   3.622   9.759   3.489  0.1100  0.1225  0.2834
18391W        W33860   4.038  15.847   0.337 -0.1636  0.0651  0.3786
18392W        W33861   2.622  15.717   4.615  0.4179  0.0209  0.1478
18393W        W33862  13.078  10.139   0.045  0.1528  0.0948 -0.0971
18394W        W33863   7.111  16.985  12.550 -0.1157 -0.1761 -0.0915
18395W        W33864  13.073   5.153   2.650  0.0376 -0.2461 -0.0744
18396W        W33865   3.341  17.542   4.800 -0.2090 -0.3308  0.2547
18397W        W33866  11.763   2.849  15.384 -0.2145  0.1451 -0.3333
18398W        W33867   4.260  17.063   4.361 -0.0143 -0.1071 -0.2089
18399W        W33868   3.032  16.035   0.764 -0.0426 -0.1707  0.0383
18400W        W33869  14.181  11.319   1.312 -0.3326  0.3456  0.0030
18401W        W33870  15.308  13.613  13.376  0.1865 -0.0273  0.1900
18402W        W33871  17.491  13.293   5.601 -0.1780 -0.0281 -0.0321
18403W        W33872   1.751   2.188  12.771 -0.0025 -0.1767  0.1081
18404W        W33873   5.788  14.659   1.714  0.1754 -0.0902  0.0292
18405W        W33874   0.443   4.853  10.986  0.0793 -0.1992  0.1520
18406W        W33875   2.634   6.456   1.516 -0.4594  0.1260  0.2441
18407W        W33876  13.919  17.403   0.068 -0.4981  0.1733 -0.0500
18408W        W33877   1.656   2.215   3.792 -0.0950  0.6155 -0.2047
18409W        W33878   2.274  10.288   1.825 -0.0285 -0.1932 -0.2254
18410W        W33879   8.679  15.932  14.704 -0.1826 -0.3357 -0.1225
18411W        W33880   2.021   3.532   2.516  0.2079 -0.1707  0.2027
18412W        W33881   0.619   1.626   1.064 -0.0188  0.1047  0.0158
18413W        W33882   6.347   1.425   2.796 -0.2853 -0.0594  0.0133
18414W        W33883  13.770   5.221   1.174 -0.0915  0.1755 -0.0629
18415W        W33884  13.225  17.769   3.187  0.0362  0.1567  0.0934
18416W        W33885   4.545  13.227   0.844  0.0259 -0.1868  0.0142
18417W        W33886   5.503   2.343  11.646  0.0760  0.1463  0.2533
18418W        W33887   7.937   8.662  11.727 -0.1115 -0.0928  0.1924
18419W        W33888   0.965  17.433  13.674  0.1428 -0.2249  0.1626
18420W        W33889   4.828  14.318   4.313  0.1894  0.0735  0.3130
18421W        W33890  14.479  13.929   5.303  0.0946 -0.0041  0.1615
18422W        W33891  10.272  11.848  15.766  0.2347  0.0689 -0.0745
18423W        W33892   0.043   6.035   5.080  0.1261 -0.1666 -0.1334
18424W        W33893   3.517   6.750  11.178  0.0384 -0.3027  0.0053
18425W        W33894   1.766  13.838  14.353  0.0348 -0.2351  0.1584
18426W        W33895   7.575  16.511   3.021 -0.0244 -0.0334 -0.0820
18427W        W33896  12.007   9.783  12.998  0.0369 -0.1706 -0.0998
18428W        W33897   3.213   3.494  11.827 -0.1571 -0.2664  0.2188
18429W        W33898   1.790   1.403  15.613 -0.0509 -0.2145 -0.4351
18430W        W33899   8.498  16.228   6.012  0.1679 -0.0012 -0.2539
18431W        W33900  10.295  10.734  12.584  0.2306 -0.0641  0.1902
18432W        W33901   7.223   6.768   5.864  0.1854 -0.2133 -0.0672
18433W        W33902  14.365  12.033   4.572 -0.1587  0.1448 -0.5061
18434W        W33903  13.050   2.494   3.278  0.0358  0.4120  0.1456
18435W        W33904   2.193   7.871   3.313 -0.0453  0.1306 -0.0501
18436W        W33905  11.254   0.625   2.775 -0.4531  0.3955 -0.0421
18437W        W33906   8.106   3.845  15.684 -0.2750 -0.0441 -0.0193
18438W        W33907  15.490  11.535  15.065 -0.1274 -0.2691  0.2578
18439W        W33908   8.053   0.647  15.472 -0.0009 -0.0212 -0.1633
18440W        W33909  10.713   1.669  12.235  0.0436 -0.1176  0.1173
18441W        W33910  10.409   8.216   2.311 -0.1655  0.0855  0.1748
18442W        W33911   7.369   7.751   3.430 -0.3943  0.0400 -0.3809
18443W        W33912  16.629   6.643   2.984 -0.0729  0.0070  0.1121
18444W        W33913   5.024   7.568  13.843  0.2421 -0.1568  0.1444
18445W        W33914  12.190  14.360  12.712  0.1210  0.0424 -0.0040
18446W        W33915  17.769  10.312   1.356 -0.0134  0.0767 -0.0434
18447W        W33916   0.689   6.687  12.490 -0.1417  0.2476 -0.0585
18448W        W33917  12.998  10.075  15.416 -0.0788  0.0030  0.3668
18449W        W33918  11.274   8.203   6.480 -0.1146  0.1263 -0.3145
18450W        W33919   5.503  12.283   5.360 -0.1256  0.0159  0.0027
18451W        W33920   4.336   7.952  11.079 -0.1599 -0.1029  0.4984
18452W        W33921  13.226   5.485   4.767  0.1876 -0.0816  0.0232
18453W        W33922  14.980  14.442   3.292  0.0708  0.0236 -0.0283
18454W        W33923   5.879  17.947  15.075  0.1384  0.1712  0.0058
18455W        W33924   4.891   6.576  11.194  0.0858  0.1062 -0.0908
18456W        W33925   2.167   4.802   3.735  0.2555  0.2811  0.1687
18457W        W33926  18.078   0.040  13.660 -0.0442  0.1793 -0.0543
18458W        W33927   4.341   2.731  13.534  0.2119 -0.2622  0.1676
18459W        W33928  13.301  12.248   2.556 -0.1322  0.0571 -0.5007
18460W        W33929   7.274  16.604  12.877  0.1599  0.2554  0.2653
18461W        W33930  16.484  14.601   4.804  0.2181  0.1800  0.4041
18462W        W33931  13.513  13.285  13.857 -0.0282  0.0907 -0.2421
18463W        W33932  16.738   2.417   0.512  0.1302  0.0505  0.2831
18464W        W33933   5.804  13.900   3.267  0.1019  0.0006  0.0939
18465W        W33934   2.272   2.570  12.095 -0.1682 -0.2686 -0.2273
18466W        W33935  15.116   8.186   2.894 -0.0586  0.0709 -0.0677
18467W        W33936  13.528   1.172   5.037 -0.0318 -0.0268  0.1347
18468W        W33937  14.791   9.817  14.417 -0.3018 -0.0035  0.1633
18469W        W33938   9.504  15.785   1.341 -0.1293  0.0366 -0.1459
18470W        W33939  11.446   2.146  12.602 -0.1674  0.3038  0.1250
18471W        W33940  15.511  11.254   0.604  0.0790  0.0473  0.0366
18472W        W33941  12.582   5.388   5.657 -0.1348 -0.0121 -0.1693
18473W        W33942  10.184   1.271   5.863 -0.0600 -0.0347  0.1935
18474W        W33943  13.806   6.065   5.306 -0.0940  0.0234  0.0013
18475W        W33944   2.497   8.308  13.748  0.1067 -0.2355 -0.0044
18476W        W33945  13.929  15.350   3.235  0.0698  0.0499  0.1985
18477W        W33946   9.348  17.997   5.990  0.0174 -0.1041  0.2802
18478W        W33947   2.829  16.803   3.084  0.0886 -0.0584  0.1991
18479W        W33948  17.248  10.069   1.436  0.2607  0.1084  0.1448
18480W        W33949   2.121  11.456   0.375 -0.0511  0.4684 -0.1939
18481W        W33950   3.315  10.819  11.207 -0.0721  0.3193 -0.1594
18482W        W33951   8.463   5.485   2.441  0.1026  0.1546  0.4063
18483W        W33952   3.818   1.932   1.050 -0.0683 -0.0486  0.1181
18484W        W33953  12.642  10.553  14.607  0.1094 -0.1322  0.2101
18485W        W33954  10.440  10.581   1.220  0.2354 -0.1580  0.3001
18486W        W33955  17.118  17.594  10.471  0.0949 -0.0898  0.0034
18487W        W33956  18.081  16.775  16.152 -0.2020  0.1877  0.2916
18488W        W33957  14.012  13.931   1.464  0.0684 -0.1143 -0.0256
18489W        W33958  13.869   0.511  15.627  0.1092  0.2378 -0.2716
18490W        W33959   0.614   0.602   4.906  0.0895  0.0147  0.0848
18491W        W33960  17.386   6.706  14.114  0.1369  0.0545  0.1359
18492W        W33961   7.214   1.489   2.361 -0.3903  0.0309 -0.2438
18493W        W33962  17.600   1.281   2.627  0.2163 -0.1042 -0.2868
18494W        W33963  13.382  16.874   1.567 -0.0131 -0.2577  0.3412
18495W        W33964  13.783  13.271   2.873 -0.2092  0.3419 -0.2056
18496W        W33965   2.729   8.464  13.269  0.0939 -0.1497  0.1917
18497W        W33966   3.275   4.197  14.386  0.3348  0.0696 -0.1154
18498W        W33967   7.908  14.991  13.634 -0.0834 -0.1234  0.0089
18499W        W33968   9.538   4.709  11.216  0.2510  0.1982  0.1451
18500W        W33969   2.422   1.778  15.784  0.1912  0.0143 -0.0863
18501W        W33970  10.848   9.447   6.062 -0.1694 -0.2882  0.5657
18502W        W33971   3.325   5.769   4.046 -0.3800  0.0816  0.1566
18503W        W33972   3.489   5.671  15.622  0.0321  0.2176 -0.1566
18504W        W33973  10.639   3.749   0.332 -0.2315 -0.1014  0.1780
18505W        W33974   8.746  10.460  11.292 -0.4086  0.3616 -0.3869
18506W        W33975  14.123  16.138   3.424 -0.2538  0.0127  0.2855
18507W        W33976  12.447   2.554  12.650  0.3898 -0.0493  0.0288
18508W        W33977  13.015   2.124  16.129 -0.0179 -0.3001 -0.0523
18509W        W33978   4.817  16.606  14.410  0.0715  0.0601 -0.0544
18510W        W33979   4.936  15.124   1.869  0.0652 -0.0882  0.0068
18511W        W33980   7.884   8.800  13.927 -0.1226  0.0917  0.0789
18512W        W33981   9.429  16.138   2.288  0.0350  0.1228 -0.3873
18513W        W33982  10.046  16.831   1.622  0.0159 -0.0441  0.0228
18514W        W33983   1.147  12.607   2.471  0.1868  0.2410  0.1662
18515W        W33984   9.532  13.312  14.996 -0.0317 -0.1068  0.2138
18516W        W33985   6.553  17.484   5.563  0.2142 -0.0938  0.0002
18517W        W33986   8.237   5.340   3.818 -0.0123 -0.0537 -0.4154
18518W        W33987   6.219   8.564  11.055  0.0213 -0.2239 -0.1614
18519W        W33988  10.363   3.025   4.500  0.1695  0.0095 -0.0259
18520W        W33989  13.950   6.561   0.836  0.1114 -0.2269  0.2277
18521W        W33990  13.280   9.675  10.197  0.0230  0.1747  0.0413
18522W        W33991   6.124   7.246   1.412 -0.1749 -0.3530 -0.2005
18523W        W33992   9.999   5.833   6.116  0.1402 -0.2093  0.2462
18524W        W33993  16.751  14.994   6.175 -0.1504  0.0577  0.0442
18525W        W33994  16.394  11.146   1.782 -0.1068 -0.0409  0.1379
18526W        W33995   5.861   8.766  14.706 -0.2801  0.1124  0.1835
18527W        W33996   3.426   8.401  11.998 -0.1938 -0.0495  0.0317
18528W        W33997   9.027   7.165  10.638  0.0086  0.2294  0.1066
18529W        W33998   5.613  16.331  12.106  0.1548  0.1888  0.2870
18530W        W33999   9.979   2.243   1.447  0.0550  0.2020  0.0926
18531W        W34000   7.337   1.310  13.191  0.0205  0.1145  0.1842
18532W        W34001   5.878  13.589  15.487  0.2927 -0.2897 -0.1148
18533W        W34002   3.956   6.213   0.969  0.3845  0.0799 -0.1084
18534W        W34003   9.890   9.460  12.944 -0.1053 -0.1987  0.3424
18535W        W34004  16.232   9.215  15.491 -0.0631 -0.2592  0.0295
18536W        W34005  13.589   4.779  10.642 -0.3080 -0.3766  0.1084
18537W        W34006  17.362   4.874   5.650 -0.3720  0.2205  0.2288
18538W        W34007   2.527   8.686   0.657  0.1265 -0.0795 -0.0333
18539W        W34008  17.987  12.187  11.568 -0.0865  0.1650 -0.2064
18540W        W34009  13.863   5.369  15.960 -0.1262 -0.0205  0.1302
18541W        W34010   8.729   9.819   5.521  0.0815  0.2855  0.0908
18542W        W34011   3.255  14.944  14.163  0.1240 -0.0769  0.0260
18543W        W34012   8.362   7.718   0.629 -0.0887  0.0003 -0.1504
18544W        W34013  17.323  14.381  13.027 -0.0045  0.0564  0.2499
18545W        W34014   6.355   1.712   0.802  0.0109  0.0659 -0.4693
18546W        W34015   2.362  17.798   5.339  0.2335  0.1553  0.1253
18547W        W34016  10.688   3.521   3.342 -0.0839 -0.1381 -0.1214
18548W        W34017   1.542   5.504  15.201 -0.2047 -0.0482  0.1327
18549W        W34018  14.878   5.429   6.163 -0.2640 -0.3709 -0.1072
18550W        W34019   9.470   6.809   4.316  0.0753 -0.0172 -0.0662
18551W        W34020  14.940  10.659  16.272 -0.1866  0.0844 -0.0736
18552W        W34021  17.616   7.677   5.652  0.0691  0.1861  0.0020
18553W        W34022  15.573   2.632  15.230  0.0405  0.1327 -0.2232
18554W        W34023  17.138  16.632   0.225 -0.0433  0.2143 -0.3194
18555W        W34024  14.399   8.787   1.876  0.0886 -0.1913  0.0256
18556W        W34025   0.611  12.006   1.006 -0.0875  0.0809 -0.2585
18557W        W34026   5.612   8.343  11.796 -0.0046  0.3903 -0.0083
18558W        W34027   2.331   9.523  13.651 -0.1841 -0.0918 -0.1778
18559W        W34028  12.589  12.579  16.139 -0.0534 -0.0885 -0.1788
18560W        W34029  11.602   7.372   4.866  0.2469  0.0174 -0.1593
18561W        W34030  13.720   3.558  15.241 -0.1614 -0.3384 -0.0187
18562W        W34031  15.741   2.170   3.952 -0.0123 -0.2871 -0.2158
18563W        W34032   1.171  15.921  13.952  0.4361  0.1362  0.0719
18564W        W34033   0.937  10.729   5.426  0.0677  0.0876  0.1602
18565W        W34034  10.279  12.867   4.010  0.1292  0.0927  0.1446
18566W        W34035   7.692   4.565   3.039 -0.0938 -0.0178  0.3352
18567W        W34036   8.657   0.595  13.814  0.0336 -0.0009 -0.0373
18568W        W34037   5.548   1.862  12.732 -0.1715  0.0538  0.1880
18569W        W34038  11.125   8.162   5.244 -0.0419 -0.1226  0.0823
18570W        W34039   3.771  11.862   3.868 -0.1671  0.1094 -0.3193
18571W        W34040  12.965   2.890   1.148 -0.0247 -0.0602  0.0231
18572W        W34041  16.594  14.547  11.240  0.0306 -0.2091  0.1158
18573W        W34042   1.197   2.566   9.961  0.1726 -0.4094 -0.0793
18574W        W34043  12.848   2.035  11.387 -0.1537 -0.3179 -0.1304
18575W        W34044  16.024   4.270  15.390  0.0463 -0.2868  0.4641
18576W        W34045   8.641  13.931   4.439 -0.0258 -0.2523  0.2490
18577W        W34046  12.241  17.174   1.482 -0.2657  0.0960  0.4335
18578W        W34047   1.819   9.774  12.918 -0.0261  0.4011  0.1933
18579W        W34048  14.217   5.539  11.528  0.0713 -0.1988 -0.1253
18580W        W34049   1.147  13.917   3.155 -0.0001  0.0950  0.0465
18581W        W34050   9.382  12.433   0.395  0.2654 -0.0319 -0.1774
18582W        W34051   2.390   3.692  15.802  0.2922  0.0980 -0.3061
18583W        W34052  17.963   2.987  14.373  0.0233  0.1567  0.0412
18584W        W34053   1.867  13.216   5.039  0.0344 -0.0707  0.0911
18585W        W34054  14.022  17.112   2.182  0.2188  0.0849  0.0028
18586W        W34055   2.266   4.074   4.775 -0.0005  0.0366  0.1442
18587W        W34056  15.355  17.312   3.079 -0.1472  0.0784  0.1105
18588W        W34057   0.079   6.848   0.011 -0.2060 -0.2720  0.0253
18589W        W34058   1.269   3.769   4.113  0.3457 -0.0127  0.1962
18590W        W34059   2.155   6.958  13.966  0.0012 -0.1982  0.0898
18591W        W34060   5.457   6.533  11.997  0.1452 -0.3186  0.2960
18592W        W34061  15.004  10.184   4.742  0.2594 -0.1026  0.2765
18593W        W34062  15.967   5.747   2.663 -0.0293 -0.0000 -0.2530
18594W        W34063   9.294   2.512   3.828  0.0085  0.5949  0.2058
18595W        W34064  17.431  12.416   1.262 -0.1457  0.2001  0.2236
18596W        W34065  18.052  10.401  10.436 -0.0617  0.5362  0.2984
18597W        W34066  13.571  12.044   1.098 -0.3608  0.0181 -0.1467
18598W        W34067  16.696  10.530  14.465  0.0972 -0.1992 -0.1223
18599W        W34068   9.365   3.172   0.154  0.4509  0.4582 -0.1593
18600W        W34069   2.774  15.839   5.734  0.0016  0.2299 -0.0251
18601W        W34070   9.916   6.776  15.161  0.1427 -0.1837 -0.2297
18602W        W34071  10.916  13.345   1.760 -0.0244  0.0527  0.0091
18603W        W34072  15.953   2.185   1.756  0.0351  0.1232  0.1166
18604W        W34073   6.822   0.677   2.699 -0.2344 -0.1544 -0.0115
18605W        W34074  14.194   1.631   4.966 -0.1260 -0.3575 -0.0277
18606W        W34075   4.831  14.282  13.190  0.1571  0.1775  0.1987
18607W        W34076  11.382  17.066  12.206 -0.0180  0.1807 -0.0476
18608W        W34077   1.466  17.958  12.153  0.0567 -0.1205 -0.0165
18609W        W34078  10.442   0.768  11.167  0.2625 -0.2400  0.0455
18610W        W34079  10.276   4.106   3.022  0.1752  0.1568  0.0255
18611W        W34080  11.464  15.873   4.722 -0.2374  0.1791 -0.0282
18612W        W34081  11.799  11.296   1.650  0.0033  0.1522  0.2631
18613W        W34082   5.031   9.810  15.844 -0.0516 -0.2001  0.1497
18614W        W34083   6.698  16.595  14.553  0.1495 -0.2019 -0.0601
18615W        W34084  17.677  15.017  13.663 -0.2769  0.1832  0.0280
18616W        W34085   4.310   9.617   4.870 -0.5079  0.0803  0.0228
18617W        W34086  13.042  15.345   0.342  0.0709 -0.2334  0.3889
18618W        W34087   3.573  15.129   3.866  0.0974 -0.0802 -0.1429
18619W        W34088   8.046  11.269   1.873 -0.0335  0.0106  0.1170
18620W        W34089   7.378  14.449   2.412  0.1816 -0.0489 -0.0766
18621W        W34090  13.332  17.445   0.454 -0.0814  0.0677 -0.1780
18622W        W34091   8.034   9.302  13.192 -0.0281 -0.1789 -0.0846
18623W        W34092   5.890  16.170   2.355  0.0099  0.2491  0.0923
18624W        W34093   5.291   5.150  11.079  0.0779 -0.3620 -0.0499
18625W        W34094  17.351  15.761  16.115  0.4627  0.1214  0.0736
18626W        W34095   9.133  11.403   0.720 -0.0080 -0.4667  0.0093
18627W        W34096   9.622  10.953   4.253  0.1907 -0.1578 -0.0193
18628W        W34097  11.487  13.417   1.842  0.1132  0.0730 -0.1513
18629W        W34098   6.679   6.894  13.528  0.0144 -0.0990 -0.2089
18630W        W34099  13.311   4.838  14.129  0.1411 -0.0415 -0.0111
18631W        W34100   8.571   1.215  15.023  0.2911 -0.1163 -0.4487
18632W        W34101  15.848   3.564   5.558 -0.2827 -0.2684 -0.0539
18633W        W34102  10.140   9.758   1.425  0.1277  0.1830 -0.0216
18634W        W34103  13.300   6.952  14.998  0.0724  0.0494  0.1237
18635W        W34104   6.031  13.090   3.789  0.0460  0.0515  0.2273
18636W        W34105  17.494   1.266  11.115 -0.1761  0.0161  0.0361
18637W        W34106   6.407  14.119   1.218 -0.0084 -0.2085 -0.0442
18638W        W34107  11.319  12.191  13.472 -0.1870  0.0487 -0.1282
18639W        W34108  13.282   6.582  13.449  0.1272  0.4324 -0.2384
18640W        W34109  15.137   7.933  15.105  0.1660 -0.1426 -0.2502
18641W        W34110   8.934   4.344   4.625 -0.0298 -0.0024 -0.1861
18642W        W34111   0.664   2.726   5.014  0.1916 -0.0725 -0.0653
18643W        W34112   2.156  16.476  12.769 -0.0930  0.0048 -0.0894
18644W        W34113   6.684  12.171   5.151  0.1305  0.1040  0.0681
18645W        W34114   2.254   6.152   1.647  0.0378  0.1532  0.2258
18646W        W34115   9.336   6.844   0.350 -0.1302 -0.2177 -0.1207
18647W        W34116   3.419   5.649  15.094  0.1112  0.1099 -0.1652
18648W        W34117  13.711  15.236   4.216  0.1694  0.0314 -0.1947
18649W        W34118   2.513   0.061  15.257 -0.0955  0.1269 -0.1138
18650W        W34119  10.116   4.079   2.521 -0.1063 -0.1070 -0.0836
18651W        W34120  13.899   4.027   6.003  0.1519  0.3359 -0.0097
18652W        W34121   9.988   0.408  11.254 -0.0746  0.0467 -0.3026
18653W        W34122  11.417  17.857  13.884  0.1741  0.1547  0.2075
18654W        W34123   3.719   1.939   2.247  0.1245 -0.0202  0.1370
18655W        W34124   7.334   4.692  13.007 -0.1740  0.1266 -0.1445
18656W        W34125  13.702   8.372  15.702  0.0290  0.3740  0.1122
18657W        W34126   8.968   5.173   4.357 -0.1394  0.0843 -0.2615
18658W        W34127   3.154  16.559   4.247 -0.1953 -0.0080  0.2144
18659W        W34128   0.148   1.529   2.538  0.0247  0.1748 -0.2020
18660W        W34129  16.606  10.695  11.790  0.1323  0.1250  0.3057
18661W        W34130   2.079   0.601   3.146 -0.3259 -0.0590 -0.0847
18662W        W34131  13.156   2.958   3.715  0.3579  0.0472 -0.1461
18663W        W34132  14.690   3.026   4.173  0.1800  0.3557 -0.0101
18664W        W34133   9.325  16.047   2.763 -0.0752 -0.4026 -0.0622
18665W        W34134   6.136  12.895   5.154 -0.0638  0.1646 -0.0284
18666W        W34135   3.315   4.462   2.238  0.0518 -0.0336 -0.1215
18667W        W34136   5.685  10.240  15.713  0.0022  0.0990  0.1488
18668W        W34137  13.589  12.039  12.897  0.0729 -0.1055 -0.0449
18669W        W34138   6.702   1.479  15.783 -0.0563 -0.0265 -0.1942
18670W        W34139   9.489   6.493  10.058 -0.1026 -0.0716 -0.3508
18671W        W34140   9.303   2.659   3.313  0.1431  0.0721  0.1986
18672W        W34141   6.878   6.246  16.211  0.1907 -0.0310 -0.0925
18673W        W34142   4.463   3.205   2.190  0.2634 -0.1134 -0.0886
18674W        W34143  15.823  12.997   5.546  0.1108 -0.2489 -0.3586
18675W        W34144  15.979   1.011   3.304 -0.0235  0.1173  0.0017
18676W        W34145  15.546   8.836  13.650  0.0215  0.0365  0.1211
18677W        W34146   2.111   5.401  12.759  0.0528 -0.0267  0.1577
18678W        W34147   9.203  12.566   2.642 -0.2291 -0.1051  0.3053
18679W        W34148   1.061   7.284  16.303  0.1182 -0.2686 -0.3105
18680W        W34149   5.866  14.031  15.866 -0.1273  0.0789  0.0172
18681W        W34150   6.818  10.748  11.350 -0.1658 -0.1248  0.1924
18682W        W34151  12.431   1.036   4.851  0.0606  0.0281 -0.2137
18683W        W34152  16.354   1.378   3.348 -0.0263  0.2378 -0.2180
18684W        W34153  10.772   0.295  12.315  0.0401  0.0250 -0.3648
18685W        W34154   1.399  13.018  11.911 -0.3572 -0.1133  0.1166
18686W        W34155  10.420   4.666  15.801  0.3150  0.0650 -0.0930
18687W        W34156  12.865  17.702  10.495  0.1065  0.2191  0.3155
18688W        W34157   7.188  11.448  12.602  0.1147 -0.1361 -0.2921
18689W        W34158  12.671   8.480  12.840  0.0964  0.2051  0.0375
18690W        W34159  10.429   2.421  14.632 -0.1002 -0.1722  0.0051
18691W        W34160  17.408   2.996   2.253  0.0451  0.2097  0.0331
18692W        W34161  12.676   7.221   1.560 -0.0559  0.0887  0.0644
18693W        W34162   0.703  13.071   1.251  0.1266 -0.4426  0.0369
18694W        W34163  16.417  16.010   1.073  0.4175 -0.0514 -0.3197
18695W        W34164   9.086   1.780  15.642 -0.0799  0.0738  0.1410
18696W        W34165  10.261  17.894   2.572 -0.0206 -0.2388  0.1787
18697W        W34166   0.704   3.774   2.147  0.0406 -0.2394  0.1733
18698W        W34167  15.983   2.798   5.569  0.0085 -0.1813  0.2191
18699W        W34168  18.009  10.232  13.957  0.1096  0.2552 -0.0873
18700W        W34169   5.475   5.943   5.111 -0.1902 -0.0554 -0.1695
18701W        W34170   2.896  13.216  14.635 -0.0282 -0.3584 -0.0383
18702W        W34171  12.364  11.553  13.760  0.0492  0.2088 -0.0218
18703W        W34172   8.030   7.550  13.863 -0.0055 -0.2823 -0.2372
18704W        W34173   5.646   3.644   0.773 -0.0091 -0.1036 -0.1577
18705W        W34174   6.212   3.928   6.023  0.2124  0.2165  0.2111
18706W        W34175   2.711   1.181  15.839 -0.0839  0.1410 -0.1913
18707W        W34176   5.518   2.329  12.691  0.0342  0.0125  0.2626
18708W        W34177   7.834   5.198  15.680  0.0287  0.2843 -0.1945
18709W        W34178   1.121  12.401   6.250 -0.3481 -0.0016 -0.0866
18710W        W34179   2.235  11.474   5.198  0.0230  0.1729  0.2412
18711W        W34180   5.759  16.002   4.778  0.2988 -0.0448 -0.0128
18712W        W34181  10.524   6.083   0.746 -0.0050 -0.1597 -0.1040
18713W        W34182   2.330  13.063   1.411  0.0753  0.0346 -0.2316
18714W        W34183  12.337  10.259  14.240 -0.0730  0.1155  0.0710
18715W        W34184   7.315  13.860  13.123 -0.1677 -0.1037 -0.1586
18716W        W34185  12.629  17.166  13.937 -0.1241  0.1379 -0.1700
18717W        W34186   1.643   1.003   2.137  0.0389 -0.1760 -0.1481
18718W        W34187  16.798  11.222  11.279  0.1699  0.2819  0.0449
18719W        W34188   6.924   9.027  10.251  0.1663 -0.1419  0.2551
18720W        W34189   9.989  16.056   0.428 -0.3546  0.0335 -0.2390
18721W        W34190   1.759  15.741  11.836  0.1486 -0.0026  0.1687
18722W        W34191  11.959   6.562   5.450  0.0367 -0.0594  0.0674
18723W        W34192  17.976  10.650  10.823  0.0089 -0.3485  0.1297
18724W        W34193  14.414   7.459   2.540 -0.0710 -0.0865 -0.0601
18725W        W34194   0.300  16.874   2.782 -0.1136  0.1226 -0.0721
18726W        W34195   6.628   9.435  13.868 -0.0237  0.2361  0.0864
18727W        W34196   5.110   5.577  11.308 -0.2338  0.2371  0.1705
18728W        W34197   1.638  12.071  10.172 -0.0467  0.3019  0.1637
18729W        W34198  16.514   0.459  16.209  0.0043  0.1263 -0.1269
18730W        W34199  15.801  16.115   0.219  0.2245  0.0452 -0.5091
18731W        W34200   6.910  13.102  15.188  0.0505 -0.1991  0.2909
18732W        W34201   5.527   7.281  11.168  0.2099 -0.2593 -0.1922
18733W        W34202  12.242  13.000  15.278 -0.0252  0.1936 -0.1648
18734W        W34203  14.884  16.226  11.316 -0.0859 -0.0975 -0.2134
18735W        W34204   9.514   0.671   0.520 -0.2615 -0.0098  0.1232
18736W        W34205  14.456  10.415   5.663 -0.2841 -0.0435 -0.1688
18737W        W34206  15.681  11.661   4.553  0.0539  0.2368  0.2148
18738W        W34207   7.741  15.715   4.641 -0.1594 -0.2142  0.4015
18739W        W34208   3.104   4.141   2.619  0.1565 -0.0969 -0.3427
18740W        W34209  10.035   3.505  15.651  0.3296 -0.0513 -0.2610
18741W        W34210   3.248   7.815   5.215 -0.0897 -0.2075  0.1830
18742W        W34211  17.936   3.562   3.931  0.2095 -0.2177  0.0207
18743W        W34212   0.153  14.018  12.899  0.1627 -0.2625 -0.0899
18744W        W34213  16.306   9.725  13.013 -0.4702  0.1075 -0.3352
18745W        W34214   9.618   6.443  14.933 -0.0715 -0.1472 -0.0057
18746W        W34215  15.777   4.185  10.571  0.0396  0.2864 -0.2250
18747W        W34216  13.539  17.275   0.921  0.0352 -0.2542  0.1246
18748W        W34217   3.350  15.673   0.814  0.0639 -0.1907  0.2389
18749W        W34218  15.144  17.518  11.578 -0.1394  0.1889 -0.1921
18750W        W34219   3.151   6.976  12.756  0.2073 -0.0436  0.0822
18751W        W34220  16.857  17.658   5.091 -0.2753  0.0849 -0.0637
18752W        W34221  10.778  16.032   0.038 -0.2231 -0.0023  0.1345
18753W        W34222  14.850  10.440   0.444  0.2094  0.2980 -0.2445
18754W        W34223   2.611   5.389   4.246 -0.0548 -0.2640  0.0068
18755W        W34224   2.530   6.365  13.820 -0.1102 -0.1341 -0.3650
18756W        W34225   8.410  10.738  11.520 -0.0202  0.1173 -0.3332
18757W        W34226   0.204   2.857   2.777 -0.0396  0.2111  0.0384
18758W        W34227  11.758  15.518   4.963 -0.4365 -0.1298 -0.1507
18759W        W34228   7.646   3.893  15.905  0.3375 -0.1549  0.2118
18760W        W34229   8.432  12.370  12.113  0.0632  0.0083 -0.1646
18761W        W34230  15.510   8.276  13.665  0.0840  0.2911  0.3828
18762W        W34231   8.941  17.723   1.158 -0.1064 -0.1600  0.1013
18763W        W34232   4.294  16.748   2.286 -0.0263  0.1358 -0.3474
18764W        W34233  11.789  11.915   4.039 -0.2455 -0.1081 -0.1498
18765W        W34234   7.725   6.387   4.265 -0.1586  0.2519 -0.1222
18766W        W34235  15.858   4.166   0.503  0.1103  0.0497 -0.3399
18767W        W34236  11.092   2.059  15.108 -0.0173  0.1515  0.0929
18768W        W34237   2.284  15.758   5.033 -0.0410 -0.1154  0.1984
18769W        W34238  16.786  12.861   2.586 -0.2621  0.1120  0.2334
18770W        W34239   2.378  16.886   5.774  0.1108  0.2151 -0.2860
18771W        W34240   7.645  12.989   2.531  0.2262 -0.0186 -0.2284
18772W        W34241  14.402  12.076   0.975 -0.0572 -0.1609  0.0377
18773W        W34242   0.594   6.959   1.286  0.3163  0.3032 -0.0621
18774W        W34243   6.379   5.626  13.396  0.1195  0.2187  0.1574
18775W        W34244  10.692   4.243  15.900 -0.0535 -0.2408  0.0492
18776W        W34245  13.936  17.916   5.115  0.0142 -0.0996 -0.2645
18777W        W34246  10.817   8.432  15.549  0.1623 -0.0511  0.1517
18778W        W34247  12.602   3.707  14.815 -0.1675 -0.2109 -0.0075
18779W        W34248   8.547   8.395  11.689  0.1997  0.1127 -0.0288
18780W        W34249   0.341  11.975  13.926 -0.0106  0.1131 -0.0396
18781W        W34250   6.043   6.843  12.744 -0.0262 -0.1405 -0.0668
18782W        W34251   2.213   6.406  16.246 -0.3172  0.1131  0.1386
18783W        W34252   3.134  13.866   3.800 -0.0507  0.1101 -0.0582
18784W        W34253   5.967   0.191   4.791  0.0319 -0.3199 -0.0968
18785W        W34254   0.748   4.168  13.029 -0.2251  0.0936  0.0669
18786W        W34255   4.457  13.400   4.655  0.2458 -0.0748 -0.1249
18787W        W34256  16.794   6.981  13.321 -0.0602 -0.0796  0.0622
18788W        W34257  17.098   6.607   2.853 -0.0858  0.1498  0.0548
18789W        W34258   9.570   6.086  15.919 -0.1876 -0.1949 -0.2542
18790W        W34259  14.970   4.678  12.263 -0.2471 -0.0337  0.0642
18791W        W34260  10.022   0.961   5.312 -0.1523 -0.0167 -0.2240
18792W        W34261  12.995  16.782  15.163  0.3388  0.0341  0.1894
18793W        W34262  17.360   4.118  13.424 -0.2352 -0.2080  0.1636
18794W        W34263   5.806   0.987   2.788  0.2389  0.1623 -0.1722
18795W        W34264  11.845   8.353  13.151  0.1341  0.0787 -0.0966
18796W        W34265   8.137  13.154   2.718 -0.1590 -0.3107  0.1715
18797W        W34266   3.972  18.051  15.928 -0.2458 -0.3337 -0.3582
18798W        W34267  16.145   2.260  11.560 -0.0333  0.1849 -0.2001
18799W        W34268  11.170  15.411   1.312  0.0580 -0.0564 -0.0041
18800W        W34269   2.545  15.681  15.228  0.0480  0.2458  0.2039
18801W        W34270  11.293   8.109   2.214  0.2405  0.1890  0.1449
18802W        W34271   2.988   6.109  10.970  0.1021  0.1126  0.0718
18803W        W34272  15.898   2.729  13.955  0.1411 -0.1602  0.1869
18804W        W34273   4.079  11.441   3.016  0.1852 -0.2054  0.0480
18805W        W34274  12.979   8.035  12.834  0.0809 -0.3077 -0.2665
18806W        W34275   0.301  10.046  11.762 -0.0440 -0.2511  0.2479
18807W        W34276   2.068   6.100  13.285 -0.1307  0.2419  0.0984
18808W        W34277  15.069  15.343  15.699  0.2741  0.0979 -0.0286
18809W        W34278  12.204   6.447   4.545  0.1561 -0.1515  0.1885
18810W        W34279   8.960   9.394   2.650 -0.0536 -0.2964 -0.0187
18811W        W34280   6.430   9.662   5.051 -0.0072  0.1121  0.0362
18812W        W34281   0.649   7.104  11.676 -0.1468  0.0731 -0.1487
18813W        W34282   6.557  15.427  13.785 -0.0792  0.0590  0.1689
18814W        W34283   6.882   4.631   5.138 -0.4748  0.2048  0.0864
18815W        W34284  17.419   7.697  14.242  0.0651  0.1475 -0.2375
18816W        W34285  13.090  14.672  11.651 -0.1291  0.0940  0.1373
18817W        W34286  11.570  17.249   2.830  0.1724 -0.3867 -0.2174
18818W        W34287   1.223   3.712   6.212 -0.1373  0.0256  0.1167
18819W        W34288   9.610  16.896  13.630 -0.0803  0.0095  0.1651
18820W        W34289  16.681  17.569  11.166 -0.0160 -0.0050  0.1592
18821W        W34290   9.564  11.349  11.863  0.3570 -0.2016 -0.1377
18822W        W34291   7.279  15.070  13.828 -0.3642  0.0132 -0.0121
18823W        W34292   2.689   3.942   2.833  0.0450 -0.0516 -0.1224
18824W        W34293  16.294   9.261  13.218 -0.0802  0.0800  0.0079
18825W        W34294  13.046  13.959  12.213 -0.0039  0.1167 -0.1873
18826W        W34295   1.765   7.928  10.993 -0.0455  0.2388  0.2417
18827W        W34296   5.854  11.681   3.880  0.2761  0.0686 -0.0152
18828W        W34297  12.980  12.956   4.357  0.0992  0.0693 -0.0352
18829W        W34298   6.736   6.266   4.962 -0.1434 -0.1281  0.0619
18830W        W34299   4.927  14.926  15.734 -0.2201 -0.3669 -0.3861
18831W        W34300   8.462  10.304   5.310  0.0279 -0.1491 -0.0204
18832W        W34301  10.072   3.318  12.533  0.2136  0.0820 -0.3008
18833W        W34302   1.155   1.431   2.209  0.2102 -0.0823 -0.1542
18834W        W34303   7.086  13.679  14.292  0.0622 -0.0238 -0.0860
18835W        W34304   9.615   3.037  14.784 -0.0035 -0.1900 -0.2630
18836W        W34305   9.534  16.351   0.412 -0.0731 -0.1624  0.0942
18837W        W34306   1.485   7.747  11.390  0.1147  0.1862  0.1208
18838W        W34307   6.444   6.547  13.773  0.0443  0.0822 -0.2833
18839W        W34308   8.996  12.060  13.187 -0.2063  0.1299 -0.2062
18840W        W34309   8.692   4.117   4.043  0.1712  0.0948 -0.0480
18841W        W34310   1.212  12.227   3.572 -0.0930  0.0239 -0.1884
18842W        W34311   2.145  10.227  14.443  0.1955 -0.0014 -0.2637
18843W        W34312   7.266   5.219  13.596 -0.2038  0.0190  0.1953
18844W        W34313   8.534  11.510   1.568 -0.2613 -0.0532  0.0961
18845W        W34314  12.026   6.336   1.687 -0.2047 -0.1168 -0.0946
18846W        W34315  17.440  11.762  12.446 -0.4120  0.2708  0.0019
18847W        W34316   7.019   4.538   4.200 -0.1415 -0.1624 -0.0601
18848W        W34317   7.198  13.103   2.432 -0.0199 -0.0432 -0.0279
18849W        W34318  10.890   3.577   5.362  0.1672 -0.3791  0.3257
18850W        W34319   4.177   7.620   2.382 -0.1471  0.0320  0.1482
18851W        W34320  12.103   9.468  11.673  0.1907  0.0036  0.3387
18852W        W34321  15.955  17.789  15.078  0.1254  0.1656 -0.0081
18853W        W34322   7.595  12.120   3.085  0.0110 -0.4584 -0.0326
18854W        W34323   9.596   8.675  14.021  0.0841  0.0329  0.1860
18855W        W34324   4.985   2.928   1.661  0.0575  0.0169  0.2563
18856W        W34325   7.220  16.006   2.144 -0.1383  0.2294  0.2062
18857W        W34326  12.099   5.238   0.312  0.3802 -0.0417 -0.0508
18858W        W34327   9.759   9.815   4.488 -0.2300 -0.2117 -0.1302
18859W        W34328  15.941  17.883   2.703  0.1085 -0.1852 -0.2146
18860W        W34329   2.057  11.914   0.027  0.0226  0.0972 -0.0843
18861W        W34330   0.907   0.945  13.726  0.0122 -0.0314  0.0141
18862W        W34331  17.745   4.773  13.834 -0.0604  0.3065 -0.1130
18863W        W34332  14.114  11.583  14.780  0.0432 -0.4800 -0.0772
18864W        W34333   1.370   1.191   3.500 -0.0337  0.1339  0.2006
18865W        W34334  12.581   0.192   3.589 -0.2483 -0.2578 -0.0518
18866W        W34335  11.611  16.854   4.295  0.0651  0.0714  0.2288
18867W        W34336  17.922  13.494  14.738  0.0378  0.1046  0.0650
18868W        W34337   3.605  17.421   3.291  0.0779 -0.0206 -0.3062
18869W        W34338   7.449   3.173  15.333  0.0586 -0.0304  0.0923
18870W        W34339   7.768  18.013  11.656  0.0963  0.0925  0.1535
18871W        W34340   0.884   7.150   3.099 -0.0093  0.0654  0.0475
18872W        W34341   3.895   5.856  12.698 -0.1588  0.1244 -0.1575
18873W        W34342   7.833  11.853   4.350 -0.1196  0.3188 -0.0977
18874W        W34343   3.187  14.732  11.016  0.0089 -0.0404  0.1837
18875W        W34344  16.779   7.286   1.866  0.0640 -0.4358  0.3250
18876W        W34345   0.215   4.743  16.165  0.0572  0.0582 -0.0042
18877W        W34346   5.107   4.748   0.486 -0.0901  0.1759 -0.1077
18878W        W34347   8.517   0.602  11.493  0.0885  0.0007  0.1015
18879W        W34348   8.696  10.197  14.472  0.2308  0.4423 -0.2900
18880W        W34349   5.126  12.075  11.945  0.1035 -0.0886 -0.2479
18881W        W34350   3.893   5.515   4.584 -0.1019  0.1022  0.1348
18882W        W34351   9.737  12.004   2.200  0.1570  0.1134  0.0340
18883W        W34352   7.693   6.714   2.907 -0.0347  0.0615  0.1706
18884W        W34353   8.027   1.578   3.803  0.2524 -0.0658  0.0705
18885W        W34354   0.686  12.172   4.364  0.1782  0.0066 -0.1277
18886W        W34355  11.079   6.367   3.059 -0.3982  0.1519  0.4701
18887W        W34356  11.382  10.940  15.681  0.3078 -0.2494 -0.0074
18888W        W34357   2.757   8.103   4.578  0.0286 -0.2271 -0.1789
18889W        W34358  11.080   1.136  13.457 -0.1873  0.0049 -0.1322
18890W        W34359   5.096   9.847  13.389  0.1264 -0.2513 -0.0960
18891W        W34360  12.745  14.639  14.043 -0.1709 -0.1865  0.1283
18892W        W34361  13.957  15.043  14.201  0.0872 -0.0143 -0.1274
18893W        W34362  16.281  11.977  14.909  0.0470  0.0781 -0.1204
18894W        W34363   0.203  15.102   1.911  0.0336  0.0851  0.0682
18895W        W34364  10.791  16.806   5.011  0.0788 -0.0032  0.0967
18896W        W34365   3.249   0.484   3.660 -0.0211  0.1446 -0.0114
18897W        W34366   2.344   9.187   5.485 -0.2541  0.1705 -0.2635
18898W        W34367   4.799   1.208  15.895  0.1348 -0.3333 -0.0232
18899W        W34368   7.500  12.234   2.044 -0.0617  0.0662  0.4024
18900W        W34369   0.911  16.290  15.470  0.0705 -0.2224 -0.0938
18901W        W34370   1.161   4.171   5.123  0.1544 -0.1361  0.1516
18902W        W34371  15.646  10.034   5.246 -0.1614  0.0578  0.2064
18903W        W34372  17.061  14.578   0.616 -0.0654  0.1041 -0.1734
18904W        W34373  13.692  12.129  12.200 -0.1054 -0.2905  0.2855
18905W        W34374   8.763   9.364  12.081 -0.1132  0.0866  0.1643
18906W        W34375   8.696  15.938  11.082 -0.0761  0.1078 -0.1061
18907W        W34376  13.405  13.090   0.142  0.1478 -0.0808 -0.0271
18908W        W34377   8.202   6.917   2.817 -0.0422  0.2905 -0.1762
18909W        W34378  17.674   6.588   4.194 -0.3382  0.0492 -0.1253
18910W        W34379   4.384   0.558   4.689  0.0502  0.0529 -0.2041
18911W        W34380  13.648   6.863   1.753  0.1563 -0.0343 -0.2800
18912W        W34381   1.259   8.605  13.146  0.2222 -0.0475  0.0498
18913W        W34382   7.335  17.210  13.424 -0.2060 -0.2726 -0.1919
18914W        W34383   5.177   8.922   0.578  0.1053  0.0110  0.0326
18915W        W34384   1.160  14.882  16.134 -0.0989 -0.0967 -0.1779
18916W        W34385  14.395  11.895  14.398 -0.1646  0.1549  0.1777
18917W        W34386   5.889  16.752  12.258 -0.0580 -0.0350  0.4548
18918W        W34387  11.968   4.154  10.825 -0.4392  0.1196 -0.4995
18919W        W34388  11.775  13.046  14.944 -0.1247 -0.1147 -0.0042
18920W        W34389  13.979   5.926   1.866 -0.1042 -0.0494  0.1566
18921W        W34390   4.736  10.803   2.474  0.1532 -0.1050 -0.1969
18922W        W34391   7.889  13.270  13.824 -0.0255 -0.0950 -0.2200
18923W        W34392  17.441   5.681   5.497 -0.1310  0.1483 -0.0391
18924W        W34393   4.681   3.773  11.683 -0.0931  0.1104 -0.0034
18925W        W34394  15.298  12.611  12.691 -0.0522  0.0236  0.0688
18926W        W34395  10.684   2.338  12.729 -0.1672 -0.0255  0.1220
18927W        W34396   1.586   4.913   3.689 -0.1440  0.2324 -0.1960
18928W        W34397  11.037  10.210  13.103 -0.1560 -0.0630  0.0153
18929W        W34398   6.475   8.999  13.281 -0.0684 -0.1083 -0.0023
18930W        W34399   7.362   2.426  14.467  0.0597  0.0857  0.2107
18931W        W34400   7.672  11.547   3.121  0.2828 -0.0454  0.0227
18932W        W34401   5.015   9.278   2.466 -0.0848  0.2143  0.1496
18933W        W34402  16.280   3.962  13.117  0.2122 -0.1831  0.3358
18934W        W34403  15.622  16.389  15.448 -0.2064  0.0042  0.0318
18935W        W34404  15.306  14.793  13.680  0.0601 -0.0399 -0.0407
18936W        W34405   9.083  11.348  15.352  0.0206  0.1198  0.3331
18937W        W34406  11.052  11.682   4.888 -0.1448  0.1559  0.1700
18938W        W34407   4.059  16.602  11.593 -0.1530  0.0614  0.1473
18939W        W34408  13.339   5.061  12.922 -0.0592 -0.1886 -0.0975
18940W        W34409   6.510   8.209   2.514  0.0291 -0.2529 -0.0066
18941W        W34410   4.015  15.774  16.091  0.1947 -0.0283 -0.0262
18942W        W34411  13.367   5.377  12.096  0.0807  0.3080 -0.0511
18943W        W34412  10.182   8.221   4.829 -0.0719 -0.0713 -0.0206
18944W        W34413  14.656   6.524   2.422  0.0990  0.2248  0.0574
18945W        W34414   6.727   6.980   5.809  0.4555 -0.0363 -0.1454
18946W        W34415   8.592  16.276   2.712 -0.2821  0.1889 -0.0117
18947W        W34416   6.256  15.927   5.026 -0.0121  0.1034 -0.0303
18948W        W34417   8.551  13.166   2.166 -0.1621  0.0982 -0.1185
18949W        W34418   7.017  10.349   0.896  0.0292  0.1334  0.1397
18950W        W34419  18.045   2.146   1.987 -0.0325 -0.3672  0.0789
18951W        W34420   0.898   0.934   1.477  0.0712 -0.0430  0.3589
18952W        W34421  15.959   8.812   2.254  0.0234 -0.0698  0.0160
18953W        W34422  15.778  10.771   0.337  0.0392 -0.1440 -0.2341
18954W        W34423  11.525   2.963   5.404  0.1411 -0.2574 -0.0610
18955W        W34424   1.553  13.618   3.881  0.1042 -0.1175 -0.1574
18956W        W34425  10.687   8.123   0.516  0.0146  0.2242 -0.2133
18957W        W34426   7.265   9.089  13.418 -0.0947  0.1401 -0.3363
18958W        W34427   8.924   9.003  14.857 -0.2860  0.0505  0.2005
18959W        W34428   7.954   1.208  13.397  0.1255 -0.1466 -0.1749
18960W        W34429  11.795   9.109  11.520  0.2239 -0.0885  0.1270
18961W        W34430  11.711   5.320  11.548  0.0414  0.1823 -0.0489
18962W        W34431   6.664  18.064   0.261 -0.1234 -0.0225  0.0153
18963W        W34432   7.331   9.927   1.264 -0.0015 -0.1971 -0.0707
18964W        W34433   4.411  14.555  13.638  0.1169  0.0339  0.1795
18965W        W34434  14.586   5.907   1.096 -0.1122  0.1089  0.1828
18966W        W34435   3.617   7.234  11.069  0.1206 -0.1463  0.0839
18967W        W34436  11.442   1.089   0.212  0.0882 -0.0205 -0.4013
18968W        W34437  17.896  17.617   5.153 -0.0039 -0.1749  0.2109
18969W        W34438  17.668   9.440  16.009 -0.0569  0.0263  0.0046
18970W        W34439  16.052   1.593   4.969 -0.0991 -0.2438  0.1805
18971W        W34440   9.307   4.858   2.151 -0.2846  0.1049  0.0923
18972W        W34441   8.369  11.243  13.877 -0.1502  0.0503  0.0170
18973W        W34442  17.042  12.544  13.288  0.1749 -0.0081 -0.0513
18974W        W34443  17.448   2.604   1.941  0.1210  0.0955  0.2937
18975W        W34444   2.306  17.014  11.843  0.1987  0.1671  0.2566
18976W        W34445  11.872  10.974  14.817 -0.1189  0.0727 -0.1804
18977W        W34446  10.764  17.536   0.564 -0.0307 -0.2069 -0.1779
18978W        W34447   1.482  10.013   1.282  0.0617 -0.0157  0.0487
18979W        W34448  16.202   6.229  13.088  0.0247 -0.0415  0.0525
18980W        W34449  15.834  17.715   4.818 -0.2501 -0.1522 -0.3058
18981W        W34450   6.817  17.696   3.920 -0.0271  0.2774  0.1138
18982W        W34451   3.786   1.377  12.566  0.0454 -0.0002  0.1522
18983W        W34452  13.196   8.505   4.609  0.1042  0.3246  0.1171
18984W        W34453   1.134   3.915  10.387 -0.1741 -0.0480 -0.2610
18985W        W34454   2.494  17.837   1.714 -0.2575 -0.1124  0.2608
18986W        W34455   2.660   8.352  12.752  0.0378  0.1663  0.2829
18987W        W34456  14.173  12.736  13.592 -0.0798 -0.0172 -0.0897
18988W        W34457   6.791  13.454   2.819 -0.0382 -0.0380 -0.1909
18989W        W34458   6.363   8.613   4.597 -0.0668 -0.2827  0.3913
18990W        W34459   7.016  13.131   1.952  0.0411 -0.0638 -0.1396
18991W        W34460   4.627  12.096  15.054 -0.1820  0.1809 -0.1412
18992W        W34461   4.025  10.922  12.837 -0.2387  0.0982 -0.0646
18993W        W34462  13.063   8.773   1.760 -0.1249  0.0331 -0.1236
18994W        W34463   0.640   0.837  15.121  0.2037  0.0151  0.1126
18995W        W34464  12.979  11.822  10.409 -0.0374 -0.1182 -0.2630
18996W        W34465  10.979  11.987   0.732 -0.4374 -0.0060 -0.1049
18997W        W34466  11.100   2.035  13.547  0.3910  0.1758 -0.5847
18998W        W34467  10.386   8.055   3.355  0.1130 -0.1607  0.0628
18999W        W34468  12.933  11.250   1.175 -0.0954  0.2208  0.1004
19000W        W34469  16.393  11.509  11.202  0.0017  0.1285  0.0920
19001W        W34470  17.455  13.851  13.240 -0.1164 -0.2361  0.0353
19002W        W34471  13.519  14.707   2.399  0.2210  0.0990 -0.1818
19003W        W34472   0.692  15.844  14.211  0.2578 -0.0913  0.1623
19004W        W34473   8.300  10.731  13.581 -0.2521 -0.3491 -0.2837
19005W        W34474  11.525  18.029   1.333  0.0071  0.1889  0.1313
19006W        W34475   9.574   3.623   5.543 -0.1455  0.0879  0.0508
19007W        W34476  14.616  11.691   1.264 -0.2502  0.1953 -0.0843
19008W        W34477   7.098  11.474   2.790 -0.0256  0.1714  0.0058
19009W        W34478  11.771  11.501   2.931  0.1832 -0.2245  0.0493
19010W        W34479  12.788  12.169   4.707  0.0578  0.0616 -0.0002
19011W        W34480   8.486   8.823  16.169  0.1935 -0.1028 -0.0707
19012W        W34481   0.337   8.126  15.093 -0.0015 -0.0172  0.2131
19013W        W34482   3.850   5.426   0.883 -0.0921 -0.1231 -0.0768
19014W        W34483   3.958  15.048   0.823 -0.1436  0.1289 -0.1881
19015W        W34484  10.672  10.709   3.894  0.0498 -0.1221 -0.3250
19016W        W34485  10.065  17.223  15.795 -0.0703 -0.0395  0.1078
19017W        W34486  11.913  14.549  10.272  0.1780 -0.1829  0.0487
19018W        W34487   6.999  17.383  12.233 -0.0084 -0.0336  0.0616
19019W        W34488   2.541   2.498  12.578 -0.0047 -0.1034  0.0052
19020W        W34489   4.309  17.760  12.315 -0.4213  0.0847  0.3965
19021W        W34490   9.895   9.580   3.657  0.3353  0.0517 -0.3704
19022W        W34491  12.363   0.950   1.416  0.2929 -0.0794 -0.0499
19023W        W34492   1.511  14.018  13.215  0.0971 -0.0988 -0.1138
19024W        W34493  16.855  11.660   5.189 -0.2382 -0.2222  0.2208
19025W        W34494  16.277  10.375  14.773 -0.2353 -0.0803  0.1237
19026W        W34495   5.831   6.768   0.653  0.2359 -0.1257  0.3314
19027W        W34496   5.382  13.470   0.480 -0.2673 -0.0118 -0.0234
19028W        W34497   7.861   6.216  16.273 -0.1113  0.0870 -0.3584
19029W        W34498   8.339   6.125  13.839  0.0365  0.0508 -0.0843
19030W        W34499   2.572  12.138   3.151 -0.2015  0.2127 -0.0332
19031W        W34500   1.529   8.899   2.725  0.0989 -0.1462  0.3723
19032W        W34501   3.039   8.013  12.576 -0.0376  0.1135  0.0842
19033W        W34502  14.379  12.584   3.156  0.1719 -0.0004  0.0430
19034W        W34503   6.751   1.288   4.733  0.1972 -0.3989  0.2528
19035W        W34504  13.401   9.909   4.260  0.0377  0.1686  0.0608
19036W        W34505  15.761  17.438  13.613  0.1702 -0.0767  0.1839
19037W        W34506   8.741  17.370  11.118  0.2062 -0.1080  0.0163
19038W        W34507   4.214  12.671   4.853  0.1054 -0.1480 -0.1400
19039W        W34508   8.652  14.971  11.189  0.0930 -0.1090  0.1162
19040W        W34509   7.748   9.306   0.145  0.2116 -0.1859  0.0208
19041W        W34510   1.051   4.821   0.283 -0.0944  0.0092 -0.1270
19042W        W34511  12.261  15.859   1.468 -0.0277 -0.1334  0.1363
19043W        W34512   0.865   4.702   3.985  0.4605 -0.0274  0.1177
19044W        W34513   9.051   4.538   3.110  0.0789 -0.3242  0.0274
19045W        W34514  12.999   7.423   3.776 -0.2737 -0.0028  0.0426
19046W        W34515   9.067  13.337  12.154  0.0745 -0.0687  0.1254
19047W        W34516   7.760   2.749  14.641 -0.0783 -0.2080 -0.2026
19048W        W34517  16.114   9.582   4.399  0.3918 -0.0082  0.1423
19049W        W34518  15.750   1.821   2.427  0.1596 -0.2136 -0.0272
19050W        W34519   5.254  14.773   0.723  0.0661  0.1808 -0.0000
19051W        W34520  16.333  10.353   0.019 -0.0265 -0.2139 -0.0469
19052W        W34521   6.795  12.484   2.694 -0.2118 -0.1395 -0.0545
19053W        W34522  17.466   8.599   0.931  0.1513  0.1203 -0.0186
19054W        W34523  15.281   2.335   3.719 -0.1934  0.0082  0.1304
19055W        W34524   6.699   8.038  13.644  0.2253 -0.0395  0.2071
19056W        W34525  11.778   0.575   6.484 -0.0390  0.0850 -0.2705
19057W        W34526   5.958   7.706   1.689 -0.0778 -0.0986  0.3122
19058W        W34527   4.251   2.237   3.186  0.0433 -0.2949 -0.1468
19059W        W34528   9.037  11.415   1.827  0.4187  0.3235 -0.0287
19060W        W34529   7.639  10.024  14.720 -0.1223  0.0333  0.0399
19061W        W34530  14.982   5.830   3.110 -0.1804 -0.0634 -0.0769
19062W        W34531   4.529   4.622   1.659  0.0972 -0.1255 -0.1280
19063W        W34532   0.701  14.600  14.978  0.0053  0.1341  0.2379
19064W        W34533   2.615  13.637  12.665 -0.1308 -0.2599  0.0690
19065W        W34534  15.683   9.216  11.529  0.2571  0.0096 -0.1619
19066W        W34535  10.389  15.330   2.568 -0.1619 -0.3421 -0.0476
19067W        W34536  14.227   2.515   1.252  0.1297 -0.1766 -0.0536
19068W        W34537   3.421  13.766  12.880 -0.2050 -0.2420  0.0742
19069W        W34538   4.860  13.254   1.723 -0.0066 -0.0230  0.1275
19070W        W34539   3.223   9.320  11.835 -0.1435 -0.1515 -0.2031
19071W        W34540   0.411  13.780   0.971  0.1633 -0.1937  0.1878
19072W        W34541   1.301   9.879   5.690 -0.0472  0.0277  0.1801
19073W        W34542  11.905  17.284   0.211 -0.1336 -0.2108 -0.0446
19074W        W34543  11.497  17.700  14.344 -0.0038 -0.0439  0.2334
19075W        W34544   9.713   3.100   1.602  0.0304 -0.1108 -0.0447
19076W        W34545  15.433  14.522  12.840 -0.0206 -0.0504  0.3333
19077W        W34546   8.978   9.203  11.597  0.0578  0.1389  0.1189
19078W        W34547   6.146   8.124  10.306  0.0035  0.3160  0.1248
19079W        W34548   5.636  15.125   0.623 -0.0539 -0.2631 -0.2341
19080W        W34549   4.706   2.219  14.006 -0.0191  0.2213  0.1659
19081W        W34550   7.163  12.324   0.710  0.0394 -0.2584 -0.0899
19082W        W34551   0.505   8.327  11.229 -0.0682  0.2151 -0.0531
19083W        W34552  17.538  17.531  12.110 -0.1489  0.2457 -0.4104
19084W        W34553  15.371   2.855  13.918  0.3179 -0.0658 -0.0300
19085W        W34554  17.451   2.516   2.950 -0.0845 -0.3506  0.2433
19086W        W34555  16.624  18.050  14.320 -0.2033  0.1714 -0.3409
19087W        W34556  13.889  16.458   4.688 -0.0517  0.2676 -0.4589
19088W        W34557   3.393   2.081   5.391  0.2225  0.0512  0.2005
19089W        W34558   0.078   0.112  14.221  0.2288  0.1556 -0.0172
19090W        W34559  13.451  13.700   5.149  0.1481 -0.2103 -0.0233
19091W        W34560   5.564   7.229   5.261 -0.0975 -0.2086 -0.2401
19092W        W34561   7.129   4.596   1.860 -0.0500  0.1485  0.0592
19093W        W34562  12.725   7.448  15.997  0.0116  0.2348  0.0071
19094W        W34563   4.056   1.744  15.287  0.0489  0.1345 -0.0536
19095W        W34564   4.669   5.953  10.414  0.1714 -0.1223 -0.0013
19096W        W34565  13.441   0.875   2.552  0.3762  0.0789 -0.0500
19097W        W34566  10.749  17.621   1.070 -0.1597 -0.0713  0.1701
19098W        W34567   3.194   3.468   2.145 -0.1467 -0.0564 -0.2392
19099W        W34568  14.685   1.228   5.539 -0.0029 -0.1843  0.2233
19100W        W34569   9.907  11.343  11.457  0.1528  0.2201  0.0016
19101W        W34570   2.152   2.261  11.526  0.1196  0.1918  0.1028
19102W        W34571   3.687  13.564  15.289 -0.0334 -0.0618  0.1695
19103W        W34572  13.771   2.934   0.081  0.0940  0.4184  0.1108
19104W        W34573  15.000   0.257   0.352 -0.0112 -0.2261 -0.0734
19105W        W34574   9.418  15.717  11.408 -0.1659  0.0740 -0.2473
19106W        W34575   0.286  11.280   2.982  0.1979  0.1714  0.3910
19107W        W34576  14.020   5.638   5.625  0.0875 -0.1451  0.0382
19108W        W34577   3.713   9.170   3.613  0.1660 -0.1004  0.0297
19109W        W34578   1.893  15.438   2.882 -0.0349 -0.1498  0.2178
19110W        W34579  15.414  13.856  13.843  0.2475 -0.0179 -0.1660
19111W        W34580  17.948  14.178   3.837 -0.0449 -0.1769  0.0076
19112W        W34581  11.411  11.365   3.248  0.1169  0.1301 -0.2055
19113W        W34582  12.097   0.393   4.372 -0.0055  0.0455  0.0624
19114W        W34583  15.716   4.320   3.166  0.1089  0.0214 -0.0891
19115W        W34584  11.663  13.384   2.307  0.0064  0.1018  0.3869
19116W        W34585  10.009  16.687  14.595 -0.0214  0.1576  0.3003
19117W        W34586   9.670  15.335   1.253  0.2225 -0.0762  0.0478
19118W        W34587   1.692   8.200  15.685  0.0071 -0.1470 -0.1027
19119W        W34588  10.863  11.484   3.207 -0.0523 -0.0157  0.2181
19120W        W34589  16.113  13.963  12.383 -0.0796 -0.0758  0.0349
19121W        W34590  13.911   5.565   3.062  0.2581  0.1199  0.2358
19122W        W34591   7.811   9.298  14.129 -0.1470  0.0985  0.0360
19123W        W34592   0.697  11.790   1.462  0.0844  0.0687 -0.1263
19124W        W34593   9.238   5.864  16.230  0.0642 -0.2087 -0.1097
19125W        W34594   7.931  10.802  12.278  0.1470  0.1115  0.1279
19126W        W34595   6.440   9.050  11.092 -0.2443  0.0629 -0.3059
19127W        W34596   4.101   5.894   1.995 -0.1741  0.2157 -0.0464
19128W        W34597  10.632   9.205  10.820 -0.0717 -0.1986 -0.1308
19129W        W34598  10.614   9.267   4.025 -0.1340 -0.1010 -0.2008
19130W        W34599   4.194  10.301   4.419 -0.2531 -0.3699  0.0038
19131W        W34600  17.264   1.255   1.027  0.1060 -0.1749  0.1093
19132W        W34601  16.907  11.332   2.742 -0.0871 -0.0158  0.1370
19133W        W34602  16.673   9.133   0.055 -0.0428 -0.1397  0.2957
19134W        W34603  13.306   9.198  15.886 -0.0682 -0.2270 -0.1273
19135W        W34604  10.084   7.922   4.320  0.1497 -0.1009  0.0358
19136W        W34605   9.206   6.984   2.253  0.0641  0.5270  0.3137
19137W        W34606   7.959   2.316   0.254 -0.0889  0.1082  0.1922
19138W        W34607   7.898  13.180  13.195 -0.1194 -0.1084  0.1769
19139W        W34608   0.580  10.861   1.667 -0.1605  0.1208 -0.0860
19140W        W34609  15.921  10.528   5.182 -0.0182 -0.2311  0.0200
19141W        W34610   6.693   0.040  14.684 -0.1220  0.0863  0.2178
19142W        W34611   6.405   9.632  16.089 -0.0048 -0.1113  0.1588
19143W        W34612  10.195  11.068   9.803 -0.3779 -0.1712  0.1934
19144W        W34613  11.049  11.476  11.348 -0.1961 -0.0696  0.0503
19145W        W34614   4.360  14.535   2.996 -0.1993  0.2969 -0.1749
19146W        W34615  11.699  10.974   2.966 -0.2687  0.1818 -0.0879
19147W        W34616  13.213  15.433  12.030 -0.0197 -0.4083  0.0936
19148W        W34617   0.525   7.409   2.869  0.2011  0.1647 -0.1347
19149W        W34618   8.415  16.362  10.348  0.0235  0.0482  0.0950
19150W        W34619  10.712   9.836   4.091  0.2864 -0.0610 -0.1981
19151W        W34620  11.059   8.453  15.138  0.0508 -0.1851 -0.0621
19152W        W34621  15.923   6.579   1.657  0.2314  0.0946 -0.0795
19153W        W34622   9.583  10.353   4.134  0.1522 -0.1105  0.1832
19154W        W34623   7.245   3.730   1.985  0.3238  0.0242  0.0133
19155W        W34624   3.674  16.893  15.718 -0.1003 -0.1619  0.1285
19156W        W34625  14.237   1.573   5.464 -0.0740  0.3427  0.1264
19157W        W34626  15.913  17.973  12.394  0.1561 -0.1026  0.1303
19158W        W34627  17.562   9.146  14.813  0.2761 -0.1499 -0.0833
19159W        W34628  14.826   6.160  15.657  0.1644 -0.2348  0.0980
19160W        W34629  12.453   2.990   5.677  0.2209  0.0061  0.0478
19161W        W34630   2.061   5.852  11.359 -0.4035  0.0608  0.1700
19162W        W34631   9.403   6.548  11.244  0.3611  0.3564  0.1811
19163W        W34632   8.320   5.212  15.394  0.0781 -0.1705 -0.0110
19164W        W34633   3.956  11.109  11.759  0.0480 -0.1949  0.2225
19165W        W34634  14.300  11.621   0.749 -0.1863 -0.1947  0.0717
19166W        W34635  14.513   9.583  11.623  0.0851  0.3639  0.0580
19167W        W34636   9.897   4.221   4.816  0.0256  0.0182 -0.0705
19168W        W34637   2.571   9.679   4.924  0.1050 -0.3504  0.1333
19169W        W34638   8.581  11.639  16.011  0.1283 -0.1169  0.2871
19170W        W34639  14.688   3.325  14.589  0.0474 -0.1020  0.0182
19171W        W34640  11.014   4.550  13.164  0.0065  0.1240 -0.1551
19172W        W34641  15.983  16.608  10.519 -0.0487 -0.0688  0.1604
19173W        W34642   3.335  15.193  12.426  0.1219  0.2509  0.2020
19174W        W34643   5.708  18.090  12.792  0.2945  0.1192  0.0372
19175W        W34644   4.845  10.797  11.450  0.0003  0.0798  0.2095
19176W        W34645   7.688  12.354   3.996 -0.0452 -0.0010  0.1406
19177W        W34646   3.478  12.073  11.500  0.0162  0.2781 -0.0188
19178W        W34647   7.576  10.409   4.190  0.1926 -0.0324 -0.0319
19179W        W34648  10.908   7.017  13.962  0.4243 -0.1289  0.0278
19180W        W34649  14.338   3.149   3.217 -0.1028 -0.0145  0.0490
19181W        W34650   2.110   0.959  15.626 -0.0246 -0.2264  0.0054
19182W        W34651   4.260  14.305  13.186 -0.1860  0.0767 -0.1626
19183W        W34652   3.815  15.590   3.687  0.3606  0.0849 -0.1925
19184W        W34653   2.948  13.754  11.185 -0.2666 -0.0057  0.1073
19185W        W34654  16.685  12.427   1.709 -0.0058  0.1838 -0.1781
19186W        W34655   8.791  11.650   1.049 -0.1123 -0.1676  0.0790
19187W        W34656   0.969   2.204   0.301 -0.4144  0.0887 -0.0007
19188W        W34657   4.473  13.971  12.894 -0.0873 -0.1646  0.0859
19189W        W34658  11.173  12.908  13.055 -0.0490  0.1751  0.3341
19190W        W34659   8.872  12.605  15.210  0.1244 -0.0352  0.2128
19191W        W34660  11.855   6.014  15.580 -0.0973 -0.0329  0.0668
19192W        W34661  16.533   2.170   1.446 -0.3611 -0.0119  0.1603
19193W        W34662   5.950   9.037   2.560  0.1015 -0.1127 -0.2861
19194W        W34663   8.058   6.096   4.561 -0.0132 -0.0297  0.0514
19195W        W34664   1.753  11.351   2.719 -0.2579 -0.1088 -0.0182
19196W        W34665   0.102  18.021   5.409  0.1515  0.0687  0.0813
19197W        W34666  14.998   3.775  13.746 -0.1797 -0.0936  0.1626
19198W        W34667   6.920   6.280  14.407  0.0202  0.4287 -0.3074
19199W        W34668  16.697   4.041   4.090  0.1366 -0.1557 -0.2337
19200W        W34669   4.139  12.682  11.611 -0.0109 -0.1931  0.0335
19201W        W34670   5.995  11.733  15.400  0.0127  0.0528  0.0435
19202W        W34671  14.148  12.717  10.627  0.1571  0.2181 -0.2310
19203W        W34672   3.785   8.240   0.821  0.1716 -0.1969  0.0049
19204W        W34673   5.638  17.998   4.691 -0.0934  0.0134  0.0620
19205W        W34674  17.622   0.904   2.293 -0.3945 -0.0452 -0.0190
19206W        W34675  12.806  11.730  12.301  0.0828 -0.1789  0.2409
19207W        W34676   2.554   2.549  13.958  0.3988  0.1260  0.1421
19208W        W34677   9.550   5.795   1.731 -0.0271  0.4496  0.0205
19209W        W34678   2.053   4.943  12.910  0.1073 -0.0069 -0.1160
19210W        W34679   4.046  10.759   5.385  0.0523  0.3243 -0.1889
19211W        W34680   2.837   9.181  14.375 -0.0619  0.1905 -0.0814
19212W        W34681  16.339  17.649   1.905 -0.1179 -0.0864  0.0871
19213W        W34682  15.412   0.088  12.726 -0.2264  0.0918  0.3969
19214W        W34683  17.699   8.464  14.072 -0.0788  0.0143 -0.2184
19215W        W34684   0.225  11.326  10.786 -0.0503  0.1933 -0.0731
19216W        W34685  12.475  17.333  12.468  0.0695 -0.1394 -0.1879
19217W        W34686  14.316   6.934   2.473 -0.2349 -0.0872 -0.1191
19218W        W34687   0.077  12.003   0.984 -0.1403  0.2060 -0.2445
19219W        W34688  15.113  16.420   3.380  0.1354  0.0672 -0.1312
19220W        W34689   5.569   8.460   0.571 -0.0377 -0.1699  0.1328
19221W        W34690   2.824  12.396   2.787 -0.1742  0.1922 -0.0285
19222W        W34691  10.425  12.895   3.103 -0.0479 -0.1308  0.3996
19223W        W34692  14.346   1.208   2.190 -0.0393 -0.2671 -0.0478
19224W        W34693   1.874   5.027  10.708  0.1362  0.1860  0.0596
19225W        W34694   5.891   7.445  12.633 -0.2873  0.1620 -0.0424
19226W        W34695  17.921   8.244   1.329  0.2194 -0.0513  0.1809
19227W        W34696   2.826  12.918   5.366  0.0905  0.2876 -0.3573
19228W        W34697  10.556   3.468  15.602  0.3382  0.0309  0.1822
19229W        W34698   6.113   1.149  15.532 -0.0386  0.1880 -0.0608
19230W        W34699   0.737  15.734  11.387  0.3260 -0.0955  0.0905
19231W        W34700  10.025  11.077   1.048 -0.2221  0.0506 -0.0668
19232W        W34701   0.486   5.325  11.118  0.0825  0.2758 -0.0691
19233W        W34702   2.658  10.801  16.072 -0.0283 -0.0008 -0.1782
19234W        W34703  15.534   9.427   3.284  0.0203 -0.1557 -0.1840
19235W        W34704  12.605   8.169   5.525  0.0126  0.1814 -0.1434
19236W        W34705  15.569  18.013  11.008  0.0209  0.2473 -0.1540
19237W        W34706   5.720  17.764  11.389  0.3056 -0.1560  0.0049
19238W        W34707   9.825  12.409   4.570 -0.1973  0.2942  0.1101
19239W        W34708   2.082   5.520  15.025  0.0884 -0.0593 -0.0642
19240W        W34709   0.656  12.047  15.887 -0.1244 -0.2052 -0.0318
19241W        W34710  11.187   3.485  13.430  0.1959 -0.5390  0.2277
19242W        W34711  11.451  10.556   2.658  0.1664 -0.4165  0.0170
19243W        W34712   0.831   6.455   1.065  0.1993 -0.0612 -0.2623
19244W        W34713  15.802   5.251  10.792 -0.0515  0.0423 -0.1649
19245W        W34714   5.654   3.277  14.082 -0.0496  0.0972 -0.1260
19246W        W34715   4.778   0.986  13.533 -0.0522  0.3063  0.1875
19247W        W34716  11.364  11.012  16.187  0.2764 -0.1631  0.0097
19248W        W34717  12.900  12.376   0.728 -0.3179 -0.0047 -0.1368
19249W        W34718  14.407  17.430   1.994 -0.0568 -0.2662 -0.3183
19250W        W34719   6.821  16.900   2.625 -0.0720  0.2127  0.1587
19251W        W34720   9.417   8.669  16.315  0.0226 -0.1477 -0.4530
19252W        W34721   1.655  13.093  16.119  0.2219 -0.0952 -0.0286
19253W        W34722  17.736  15.497   0.028 -0.0774  0.2239 -0.3126
19254W        W34723  16.082  12.744  11.456  0.1823 -0.0791 -0.0372
19255W        W34724   4.814   9.469  13.192  0.1578  0.2738  0.1473
19256W        W34725  13.442  11.645  15.607 -0.1679  0.0400 -0.0101
19257W        W34726  12.877  17.493  13.576 -0.0667  0.3382  0.0925
19258W        W34727   6.298  14.950   4.461 -0.2201 -0.0583  0.1072
19259W        W34728   7.101  17.685   2.128  0.0067  0.0685 -0.2938
19260W        W34729   8.728  11.026   0.193 -0.0053 -0.0762  0.3800
19261W        W34730  14.118  10.320   5.332  0.2770 -0.0077  0.0122
19262W        W34731  10.871   0.495   6.369  0.4530  0.3056  0.0181
19263W        W34732   4.320  11.834   1.596  0.0106  0.2493 -0.1597
19264W        W34733   4.233   9.382   5.362 -0.1806  0.1098  0.2946
19265W        W34734   3.523  14.116  11.042  0.2362 -0.0153  0.0442
19266W        W34735   9.979   8.298   0.306 -0.2035  0.3900 -0.0431
19267W        W34736  15.043  18.091   0.825 -0.0593  0.1868  0.0312
19268W        W34737  10.604  11.187  11.545 -0.2152 -0.3019 -0.1036
19269W        W34738   3.663   7.110  11.560  0.3317  0.3002  0.1344
19270W        W34739   9.171   4.912   2.762  0.0142 -0.1194  0.1190
19271W        W34740   6.492   8.790   5.494 -0.0514 -0.1474 -0.0467
19272W        W34741   9.403  14.117   0.898  0.0588 -0.0689  0.1356
19273W        W34742   4.170   4.793   6.104 -0.1294 -0.2909 -0.1221
19274W        W34743   4.719  15.391  10.733 -0.1737  0.2839 -0.1252
19275W        W34744  10.827   2.807  12.846 -0.0158 -0.1415 -0.1599
19276W        W34745  12.089   5.637   1.936 -0.0904 -0.1033  0.2983
19277W        W34746   2.347   4.282  14.025  0.0196  0.0525  0.1395
19278W        W34747  15.301  15.316   0.297  0.0155  0.1914  0.1193
19279W        W34748  10.991  12.194  15.367  0.1454  0.3999 -0.3243
19280W        W34749  16.320  11.749   5.135 -0.0128  0.4458  0.1507
19281W        W34750   5.169   6.121   3.865  0.1655  0.1766  0.2449
19282W        W34751   0.415   1.378  12.671 -0.1240  0.0285  0.0185
19283W        W34752  10.652  13.984  15.336 -0.2633  0.0820  0.1700
19284W        W34753   7.341   4.569   1.376 -0.0080 -0.1961 -0.0858
19285W        W34754  14.384   6.015  15.812 -0.1088 -0.2144 -0.0456
19286W        W34755  11.679  14.514   4.737  0.3175  0.0920 -0.2670
19287W        W34756   3.828   9.159   5.218  0.0780  0.1217 -0.0523
19288W        W34757  11.127  14.920  12.538 -0.1849  0.0123  0.2053
19289W        W34758   0.256   5.673  14.482  0.0003  0.0025  0.0160
19290W        W34759  12.602  11.288  12.114 -0.0001  0.2566  0.0134
19291W        W34760   3.159   9.087  14.842  0.2251  0.0072 -0.2056
19292W        W34761  16.836   1.958  12.996  0.0707  0.0139 -0.4080
19293W        W34762   8.539  15.084   3.156 -0.2057 -0.0366 -0.0365
19294W        W34763   2.418  17.332   0.518  0.0087 -0.1889  0.1254
19295W        W34764   0.328   6.233  10.163 -0.2077 -0.0669 -0.2843
19296W        W34765   9.501  14.571  15.180  0.0217  0.0582 -0.2282
19297W        W34766   5.303   1.930   3.066  0.1292 -0.0495 -0.0202
19298W        W34767   3.352  10.592  15.163  0.0348 -0.2460 -0.1171
19299W        W34768   5.100  12.871   1.998  0.2827  0.0676  0.2475
19300W        W34769  10.133  12.942  16.313 -0.0229  0.1656  0.1317
19301W        W34770  14.521  12.106   3.965 -0.0450 -0.2842  0.0318
19302W        W34771  16.137   8.899   4.518 -0.1096 -0.1205 -0.3147
19303W        W34772   7.662   1.505  15.281  0.1332  0.1632  0.2830
19304W        W34773   8.247  12.732  16.210  0.1584  0.3504 -0.1164
19305W        W34774   9.691   8.022   1.094  0.1484  0.1854  0.0061
19306W        W34775   9.570   6.306   2.946 -0.0428  0.2908  0.0840
19307W        W34776  10.152  12.865   4.658 -0.3275 -0.0562  0.0096
19308W        W34777  14.793   7.599  12.412 -0.0344  0.3155 -0.1766
19309W        W34778  10.079   1.490   5.369  0.0265 -0.1849 -0.1724
19310W        W34779   2.645  15.497  11.734  0.0734  0.0478 -0.1694
19311W        W34780   0.345   7.793   3.998 -0.0463  0.0058 -0.0988
19312W        W34781   8.004  17.693   0.879  0.0660 -0.3673 -0.2729
19313W        W34782   2.276   6.161  15.751 -0.1314 -0.1302  0.3267
19314W        W34783  10.377   0.278  16.277 -0.1151  0.0415 -0.0537
19315W        W34784   9.893   4.530  15.919 -0.0333  0.1802 -0.0151
19316W        W34785   4.591   6.215  13.340  0.0829  0.0353 -0.1459
19317W        W34786   9.990   8.357   3.358  0.0707 -0.2617 -0.0545
19318W        W34787   3.883  15.579  11.843  0.0085 -0.0016  0.0629
19319W        W34788   1.701   2.955   0.540 -0.1885 -0.2385 -0.0240
19320W        W34789   1.541   3.552   3.150  0.0615 -0.2300 -0.1329
19321W        W34790  14.144   3.512   5.831 -0.1262  0.1593  0.1038
19322W        W34791   7.767  15.144  14.081  0.1452 -0.1911  0.1097
19323W        W34792  12.997  16.250   5.841 -0.1592  0.2416 -0.3737
19324W        W34793  16.271   8.301   5.567 -0.0229 -0.1737 -0.1457
19325W        W34794   2.042   7.988   5.641  0.0466  0.1000  0.1068
19326W        W34795   0.486  17.612  13.452 -0.0257  0.2062 -0.2281
19327W        W34796  13.456  15.598   2.067  0.0824  0.1103 -0.0143
19328W        W34797  14.685   9.371   5.818 -0.2567  0.4003  0.1109
19329W        W34798   8.913   0.301  12.721  0.1782  0.2929  0.0340
19330W        W34799   8.198   6.837  13.396 -0.0831  0.0117  0.3667
19331W        W34800   1.799   3.978   2.428 -0.1139  0.1821 -0.0784
19332W        W34801   7.228   1.753   3.283 -0.0567 -0.0564 -0.0126
19333W        W34802   5.353   0.040   2.902 -0.3480  0.0561  0.2406
19334W        W34803  14.615   2.743   3.063 -0.0663 -0.1895 -0.0946
19335W        W34804  17.637   8.911  14.289  0.0152  0.5066 -0.0065
19336W        W34805  11.875  11.735  12.541 -0.0731 -0.0397  0.1987
19337W        W34806  12.097  11.819   3.170 -0.4981 -0.1004 -0.1323
19338W        W34807  10.072   0.817  11.535  0.1264 -0.1943  0.2483
19339W        W34808   9.257   2.491  11.807  0.1468 -0.2168 -0.1269
19340W        W34809   4.874  14.209   0.780  0.1105 -0.4547  0.1756
19341W        W34810  10.222   7.998  12.936 -0.0935  0.1653 -0.0344
19342W        W34811  17.558  17.510   0.343 -0.0200  0.2856 -0.1970
19343W        W34812  14.780   8.900  16.008 -0.1723 -0.2849 -0.0861
19344W        W34813   0.241  13.721   2.376 -0.0457 -0.1541  0.2311
19345W        W34814  10.587  10.704   2.580 -0.2734 -0.1510 -0.2449
19346W        W34815   6.666  15.659   3.657  0.1310  0.1778  0.0984
19347W        W34816   0.159  12.419  14.152  0.1645 -0.0233 -0.0666
19348W        W34817  17.697   8.948  12.060 -0.1414 -0.0796  0.1674
19349W        W34818   2.029   3.856   1.972 -0.2219  0.0919  0.3640
19350W        W34819   6.822   7.308  10.937  0.2342 -0.0651  0.2961
19351W        W34820  10.319  12.780  14.805 -0.0719  0.2709  0.1463
19352W        W34821   2.549   8.130  15.743  0.1341  0.1619 -0.0164
19353W        W34822   5.002  12.972   5.794 -0.2306 -0.0565 -0.1214
19354W        W34823  11.370   1.735   5.122 -0.3664  0.1746  0.1524
19355W        W34824   0.471   1.458  15.717  0.0704 -0.1668 -0.1069
19356W        W34825   6.898  14.015  12.053  0.0003 -0.0166  0.0167
19357W        W34826   0.178  12.944   4.405 -0.2060 -0.1944 -0.0265
19358W        W34827   7.885  14.368   0.110  0.3150  0.0937  0.0206
19359W        W34828  10.481   9.155  13.882 -0.0988  0.0396 -0.0748
19360W        W34829   0.600   4.426   3.025  0.0247  0.0049 -0.2092
19361W        W34830   1.616   7.418   4.206  0.0224 -0.1752  0.1024
19362W        W34831   3.966   7.794  15.647 -0.0355 -0.0531 -0.0139
19363W        W34832   7.378  10.861   2.360 -0.1386 -0.1528  0.1549
19364W        W34833  13.954   7.401   5.582  0.0293 -0.2048  0.1047
19365W        W34834  11.789  10.163   2.124 -0.1000  0.1403 -0.0916
19366W        W34835   0.712  15.053   3.556  0.1130 -0.0271 -0.1445
19367W        W34836  14.576  10.014  13.419  0.0341  0.1225 -0.1322
19368W        W34837  17.489   6.018   3.343  0.0195 -0.1281  0.0387
19369W        W34838  12.657   7.678   2.867 -0.0323 -0.1122  0.0678
19370W        W34839  13.044  14.720  12.279  0.0071  0.1687  0.0748
19371W        W34840  16.671   7.761   2.877  0.2132  0.0736 -0.3814
19372W        W34841  13.897   1.746  14.957 -0.1935 -0.1163 -0.1067
19373W        W34842  16.745   2.231   5.347  0.3241  0.1325  0.1442
19374W        W34843  16.548   9.548  11.742 -0.2399  0.1704 -0.1009
19375W        W34844   3.248   2.658  12.137  0.0126 -0.2394 -0.0090
19376W        W34845   8.558  14.247   3.701 -0.0132  0.1688  0.3882
19377W        W34846  13.407   3.238  14.979 -0.2082  0.3117 -0.1765
19378W        W34847   2.690   1.268   3.458 -0.1805 -0.4093  0.0812
19379W        W34848  12.872   8.618  12.378  0.0618 -0.1576 -0.0476
19380W        W34849  13.801  11.245  13.629  0.0878  0.0184 -0.3155
19381W        W34850  10.134  14.979   2.319 -0.2870 -0.0105 -0.0391
19382W        W34851   1.449  16.654  12.748  0.1078  0.1276  0.2456
19383W        W34852  13.850  10.160   4.107 -0.0871 -0.0150  0.0652
19384W        W34853   7.224   6.805   3.687  0.0057 -0.2761 -0.0223
19385W        W34854  16.901   2.748   4.634 -0.0440 -0.0639 -0.2264
19386W        W34855   4.769  12.402   1.441  0.1811  0.2586 -0.2491
19387W        W34856   6.349   8.033  11.998 -0.1616  0.1716  0.0008
19388W        W34857  11.522  11.222   2.020 -0.1052  0.1469  0.1974
19389W        W34858   4.049  12.772  14.861 -0.0719  0.1790  0.2479
19390W        W34859   7.973   0.437  12.166  0.1661 -0.0218  0.1120
19391W        W34860   1.909   6.082  11.740 -0.1924 -0.3348  0.1012
19392W        W34861  14.073  17.535   3.816  0.0161 -0.1249  0.1978
19393W        W34862   4.223  10.523  15.227 -0.0964  0.0671  0.1366
19394W        W34863  11.068   3.442   1.068  0.0716 -0.0454  0.4205
19395W        W34864   3.172   3.681  15.207 -0.2143 -0.0494 -0.0027
19396W        W34865  10.661  15.294   0.645 -0.2552  0.0279 -0.0301
19397W        W34866   9.038  11.884   0.500 -0.1146 -0.0885  0.0234
19398W        W34867  15.750  10.956  14.158  0.3058  0.0603 -0.0576
19399W        W34868  16.563   4.625  11.196 -0.1349  0.0264 -0.1361
19400W        W34869   3.728   7.403   0.540 -0.0731  0.0460 -0.1587
19401W        W34870  12.282   7.912  14.772 -0.0942 -0.0377  0.2027
19402W        W34871   3.718  13.068  15.376 -0.3778  0.0074  0.0385
19403W        W34872   4.385  13.079  14.546  0.0187 -0.1230  0.2048
19404W        W34873  16.786   0.133   2.352  0.0501 -0.3436 -0.0787
19405W        W34874   3.583  10.686   3.298 -0.1791  0.0025  0.1123
19406W        W34875   8.644   3.307   1.363  0.1457  0.0846  0.0250
19407W        W34876   4.828   3.822   4.081  0.0328 -0.2852 -0.0867
19408W        W34877   4.949   6.671   3.930  0.2291 -0.3027 -0.1011
19409W        W34878   2.400   5.393  13.950  0.4441  0.0171 -0.3299
19410W        W34879   5.513   0.432   5.509 -0.0782 -0.2284  0.2247
19411W        W34880   8.664   2.330   2.508  0.1973 -0.2221  0.0428
19412W        W34881  11.650   4.920   2.237 -0.1290 -0.0207 -0.0919
19413W        W34882   2.102   4.867  15.891  0.0169  0.1010 -0.2928
19414W        W34883   5.409   5.678   4.638 -0.1313  0.0998 -0.2155
19415W        W34884   6.037   9.695  10.266 -0.0292  0.0458  0.1282
19416W        W34885   1.289   5.742   5.342  0.0046 -0.3556  0.2872
19417W        W34886  13.766   4.337   1.181 -0.0785  0.0549  0.1778
19418W        W34887  16.223   5.357   5.456 -0.0758  0.2615 -0.0053
19419W        W34888   2.665  14.441   1.388 -0.2579 -0.1408  0.1669
19420W        W34889   5.807   5.427  11.169 -0.2146 -0.0164  0.0219
19421W        W34890  15.484   3.178   4.033 -0.4155  0.1596 -0.2690
19422W        W34891  12.191   4.286  11.613  0.0257  0.0390  0.3760
19423W        W34892  14.381   4.704  15.015  0.0916 -0.0654 -0.0663
19424W        W34893  12.303   3.758  15.246  0.1607  0.0088  0.0409
19425W        W34894   1.332   6.214  11.378  0.1722 -0.2035  0.2035
19426W        W34895  17.924   1.472  11.281 -0.0036 -0.0361  0.1617
19427W        W34896   5.908   2.185  12.413 -0.0739  0.2246 -0.1823
19428W        W34897  10.440  12.776   3.585  0.0729  0.0643  0.1617
19429W        W34898  10.066  17.268  12.766  0.1439  0.1799  0.2128
19430W        W34899  13.959   0.930   0.601  0.0389 -0.0915 -0.1806
19431W        W34900   0.143   8.592  13.171 -0.2151 -0.0701  0.0268
19432W        W34901  13.447  13.582  15.806 -0.0268 -0.1133 -0.3849
19433W        W34902   5.562   2.335   5.025 -0.3895 -0.2168 -0.0003
19434W        W34903  17.941  17.074  14.849  0.1016 -0.0746 -0.0948
19435W        W34904  14.637   2.508   1.605 -0.0385  0.1379  0.0008
19436W        W34905   4.752  15.731  12.957  0.0745  0.2404  0.0393
19437W        W34906   2.253   8.245  12.980 -0.3935  0.1637 -0.2373
19438W        W34907   0.463   9.433  16.050 -0.1482  0.2671  0.0220
19439W        W34908   4.270  13.479   3.192  0.1048 -0.1864  0.0259
19440W        W34909   1.325   2.855   0.922  0.1488  0.0599  0.2963
19441W        W34910  11.364   6.650  15.985 -0.4968 -0.0477 -0.0423
19442W        W34911   1.392   1.978  11.252  0.2197  0.2259 -0.1465
19443W        W34912   5.484   4.009  13.670 -0.0521  0.2277  0.0661
19444W        W34913  14.811   8.262   5.775 -0.0352 -0.1078 -0.4435
19445W        W34914  13.008  15.918   4.151 -0.1404 -0.0718  0.0307
19446W        W34915  18.086   8.260   2.019  0.3146  0.1075  0.1014
19447W        W34916   5.677  14.589  11.913 -0.0579  0.2397 -0.1521
19448W        W34917  13.022  10.671   1.266 -0.3449 -0.0821  0.1199
19449W        W34918   3.369   0.155  10.843  0.1854  0.0898 -0.3855
19450W        W34919  16.681   3.449   3.599  0.1661 -0.1248 -0.2564
19451W        W34920   0.513   2.891   4.073  0.0593 -0.2015  0.0713
19452W        W34921  10.131   6.251   2.348  0.0476  0.2310  0.4701
19453W        W34922   0.224   3.338   3.052  0.1459 -0.0857 -0.0644
19454W        W34923  15.692  17.569  14.169  0.1106 -0.1508  0.2682
19455W        W34924   8.041  11.931  14.565  0.0601  0.2390  0.0379
19456W        W34925   5.383   8.036   2.232  0.0111 -0.3014  0.3788
19457W        W34926   2.501   0.611   4.207  0.0887 -0.2361  0.1282
19458W        W34927   0.166  14.306  13.806  0.1671 -0.0042  0.3366
19459W        W34928   9.544  10.966  11.364 -0.2607  0.0360  0.0413
19460W        W34929  11.595  13.073   5.116 -0.0573  0.0163 -0.0713
19461W        W34930   4.010  12.994   4.554 -0.2248 -0.3996  0.1740
19462W        W34931   1.865   7.946  13.973  0.1965 -0.1796 -0.3428
19463W        W34932   3.580   3.275   1.245  0.0056 -0.1567 -0.0751
19464W        W34933   3.869   6.378   3.767  0.0676 -0.4180 -0.0293
19465W        W34934   5.228   5.313   6.062  0.2496  0.0573 -0.0514
19466W        W34935   6.372  12.367   2.917  0.0138  0.0159 -0.1458
19467W        W34936   0.435   3.474  14.426  0.2694  0.0634 -0.0596
19468W        W34937   5.580  15.565   2.918  0.0642  0.1835 -0.1695
19469W        W34938   9.055   7.272  15.077  0.2773  0.2796  0.1335
19470W        W34939  15.210   8.231   5.300 -0.0965  0.1044 -0.0481
19471W        W34940   4.358  10.955   5.025 -0.0123 -0.2129  0.4089
19472W        W34941  12.605  12.692  13.390  0.1175  0.1674 -0.0168
19473W        W34942   0.418  15.329  15.631 -0.1368 -0.1324  0.4136
19474W        W34943  13.758   0.526   1.182  0.1956 -0.1038 -0.1464
19475W        W34944   9.930   0.481   0.275  0.0109 -0.1322  0.1822
19476W        W34945  16.611  13.539   4.046  0.0197 -0.1692 -0.0649
19477W        W34946  11.999   1.977   6.275 -0.2028 -0.0200 -0.0939
19478W        W34947   5.460   6.478  15.049  0.0764  0.1991  0.0914
19479W        W34948  17.127  13.321  15.728  0.0813  0.1121  0.0778
19480W        W34949   0.071  14.377   4.513 -0.0267 -0.0270  0.3588
19481W        W34950   7.182   4.982  11.010 -0.1638  0.1524  0.0771
19482W        W34951   6.474   7.042  15.044 -0.2780 -0.0524 -0.0573
19483W        W34952  11.350  13.711   4.032 -0.2108 -0.0046  0.0647
19484W        W34953   2.971  12.239  12.364 -0.1372 -0.0828 -0.1096
19485W        W34954   8.124  15.937  12.448  0.3474 -0.0013  0.1102
19486W        W34955   1.615  13.651   4.361  0.0413  0.1473 -0.0757
19487W        W34956  12.571   2.077   5.741 -0.0002 -0.0213 -0.0802
19488W        W34957   9.672  12.214  11.987  0.0201 -0.0802 -0.2015
19489W        W34958  17.338  11.266   4.378 -0.1143  0.1110  0.2091
19490W        W34959   2.173  10.002   0.705 -0.1145  0.2117 -0.0464
19491W        W34960   3.040   3.621   2.668 -0.3943 -0.0498  0.0785
19492W        W34961   2.290   9.879  10.230  0.0839 -0.0524 -0.5348
19493W        W34962  13.596  17.944  16.211 -0.0059  0.1872 -0.1723
19494W        W34963  11.406  14.810  14.475  0.0461  0.0599  0.0228
19495W        W34964   5.326   5.171   4.049  0.3058 -0.2860 -0.1616
19496W        W34965  14.682  11.396   3.830 -0.0833  0.2100  0.0236
19497W        W34966  11.494  11.174  15.100 -0.1349  0.1035  0.2075
19498W        W34967  14.281  12.625  14.092  0.0647  0.2891  0.0195
19499W        W34968  17.448   7.941  11.772 -0.1922 -0.0694  0.1624
19500W        W34969  14.230  13.041  14.338  0.0298 -0.0488 -0.1953
19501W        W34970  17.415  17.591  14.219  0.1698 -0.0644 -0.2035
19502W        W34971   2.898  14.667   0.986  0.0008  0.1065  0.1954
19503W        W34972  11.728   8.445   1.609 -0.1847  0.2721  0.0914
19504W        W34973   6.801  17.188   0.462  0.3154 -0.0355 -0.1682
19505W        W34974   4.594   0.702   2.687 -0.1739  0.0468 -0.1965
19506W        W34975   4.494  12.944  11.794 -0.1207  0.0632 -0.1569
19507W        W34976   3.387   5.754   1.580  0.3705  0.0092  0.1707
19508W        W34977   1.877  12.865  15.189 -0.0345  0.0237  0.0992
19509W        W34978  14.463  13.377   0.788 -0.0646  0.1792 -0.1205
19510W        W34979  10.270  14.789   5.296  0.1653  0.0993  0.0449
19511W        W34980  13.313   5.960  11.124  0.0575 -0.0053 -0.0226
19512W        W34981   4.747   3.720   2.620  0.0032 -0.2686 -0.3760
19513W        W34982   9.796   7.687  15.821  0.0182 -0.1807  0.1680
19514W        W34983  13.842   5.838  14.761 -0.0626  0.1684 -0.2178
19515W        W34984   5.576  10.628  10.638  0.0183 -0.0872 -0.4570
19516W        W34985  13.313   4.558  14.633  0.2429 -0.2269 -0.0409
19517W        W34986   4.501  16.221   4.797 -0.2449 -0.0526  0.0008
19518W        W34987   9.827   7.901  13.648  0.0036  0.0558 -0.4782
19519W        W34988  12.872  12.868  11.658 -0.3488 -0.1259  0.2270
19520W        W34989  16.137   9.290   2.030  0.3033  0.1673 -0.0436
19521W        W34990   1.880  15.719   1.141  0.0439  0.1658  0.2363
19522W        W34991   2.915   3.203  15.126  0.1543 -0.0799 -0.2797
19523W        W34992   5.180  11.754  11.511  0.3072 -0.1121 -0.2997
19524W        W34993   9.358   0.148  10.631  0.3893  0.1260  0.1416
19525W        W34994  11.611   8.058   4.128  0.1353  0.2183 -0.2509
19526W        W34995  16.369   6.433  13.728 -0.1097  0.0798  0.1336
19527W        W34996   2.749   9.599   0.673 -0.0227  0.0140 -0.4260
19528W        W34997   4.816   7.167   5.655 -0.1205  0.0697 -0.0731
19529W        W34998  12.576  10.431  12.309 -0.0147 -0.0790 -0.0205
19530W        W34999  12.465  13.563  16.116 -0.3407 -0.3045 -0.1441
19531W        W35000   4.086  17.923  13.234  0.0295 -0.0174 -0.1202
19532W        W35001  17.356   1.725   2.645 -0.0905  0.3243  0.0341
19533W        W35002   7.648   5.889   5.275  0.2295 -0.1334 -0.2689
19534W        W35003   2.704   8.432  10.824  0.1852 -0.1756  0.1065
19535W        W35004  14.248   6.130  14.873  0.0598  0.3130  0.2925
19536W        W35005   9.942  13.169  14.758  0.0540  0.1615 -0.0845
19537W        W35006   3.780  16.702   3.170  0.1584 -0.2355  0.1117
19538W        W35007   2.709   7.540   0.723  0.0241  0.0622  0.5197
19539W        W35008   8.402   8.597   1.366  0.2872 -0.0123  0.0944
19540W        W35009  15.504   8.669  16.261 -0.1389  0.0387  0.1022
19541W        W35010  11.154  11.120   5.150 -0.2126  0.0342 -0.0060
19542W        W35011   0.243  13.236  14.549 -0.3104  0.1115  0.1035
19543W        W35012  10.647   0.360   5.899  0.0724 -0.1207  0.0357
19544W        W35013  15.485   5.659  13.377 -0.3192 -0.1289 -0.0930
19545W        W35014   9.039   3.128  10.661  0.0086 -0.0416 -0.1863
19546W        W35015  16.134  17.352  14.020 -0.3221 -0.1865  0.0532
19547W        W35016  17.570   3.331   1.395 -0.0640  0.2685 -0.2691
19548W        W35017  16.778  16.021  16.287 -0.2054  0.2310 -0.0133
19549W        W35018  11.543   1.254   1.589 -0.2316  0.0435  0.1498
19550W        W35019  17.508   8.191  14.452 -0.0427  0.2061  0.2340
19551W        W35020  15.627  12.632  11.263 -0.0184  0.4414  0.1603
19552W        W35021  13.101   7.970   6.320  0.1486  0.3284 -0.1052
19553W        W35022  13.768  17.772   0.348 -0.1117  0.0595  0.0401
19554W        W35023  11.445   4.110  14.783 -0.0769 -0.1594 -0.3121
19555W        W35024  11.265   9.769  11.582 -0.2619 -0.2735  0.2253
19556W        W35025   6.088  12.189  11.588 -0.0578  0.0239  0.1098
19557W        W35026   2.501   4.903  14.685  0.3225 -0.0619 -0.1711
19558W        W35027   8.612   9.036   3.677 -0.1694 -0.2944  0.1313
19559W        W35028   4.531  10.146   4.054 -0.2850  0.2056 -0.1646
19560W        W35029  14.606   4.603   5.089  0.1415 -0.0538  0.0732
19561W        W35030   5.804   4.590  15.934 -0.0889  0.0756 -0.0062
19562W        W35031  13.866  15.763  14.952 -0.3272  0.1833 -0.0778
19563W        W35032   3.079   5.392  15.834 -0.0296 -0.0548 -0.0274
19564W        W35033   1.185   6.723   2.029  0.1257  0.0734 -0.0887
19565W        W35034   5.162   3.680   3.445  0.2722 -0.0763  0.0320
19566W        W35035  11.272  12.237   5.040  0.2472  0.0575  0.3669
19567W        W35036  16.110   6.520   2.216 -0.0121 -0.2534 -0.0009
19568W        W35037   6.905  14.202   0.352 -0.3163 -0.1422  0.4287
19569W        W35038  12.108   1.213  11.842 -0.2176  0.1724 -0.2175
19570W        W35039   3.358  14.651  14.820 -0.0433  0.0326 -0.0727
19571W        W35040   7.118   5.057   0.942 -0.1399 -0.1770 -0.2038
19572W        W35041   5.566   2.493   1.277  0.1106  0.0375 -0.0266
19573W        W35042   6.708  12.656   3.273  0.2379 -0.1152  0.0257
19574W        W35043  11.706   4.538  13.770 -0.2303 -0.1223 -0.1751
19575W        W35044   3.291   1.710   0.772  0.1195 -0.1551 -0.1026
19576W        W35045   0.936   8.392  13.896 -0.3570  0.1273 -0.1697
19577W        W35046   1.714   1.096   4.326 -0.0262 -0.0207 -0.0732
19578W        W35047  12.550  12.491   2.104  0.3170  0.2081  0.3120
19579W        W35048   6.539  16.442   3.180  0.0315 -0.0008  0.0374
19580W        W35049   4.506   4.482   3.705 -0.1369 -0.0956 -0.2045
19581W        W35050  17.448   2.234   4.119  0.2705  0.0319 -0.0717
19582W        W35051   1.767   1.496  15.135  0.0494 -0.0552 -0.1963
19583W        W35052   5.957   6.501   3.651  0.1131  0.1945 -0.2101
19584W        W35053   3.963   3.654   0.104 -0.1905 -0.1475  0.0549
19585W        W35054   9.220   2.881  13.420 -0.4734 -0.0180 -0.1095
19586W        W35055  17.259  15.788  14.805 -0.0095  0.0282  0.1884
19587W        W35056  13.145   9.484   4.864 -0.0326  0.0382 -0.0183
19588W        W35057   5.775  17.112  15.349  0.2429  0.1617  0.0049
19589W        W35058  14.690  11.143   1.058  0.1291  0.0391 -0.1792
19590W        W35059   4.613  11.117  14.053  0.2185  0.0098  0.1227
19591W        W35060  15.028   5.677   1.186 -0.1194  0.0343 -0.0643
19592W        W35061   1.522  12.164   1.001  0.1186  0.0626 -0.0241
19593W        W35062   3.801   2.946  14.539  0.3663 -0.2115 -0.1215
19594W        W35063  15.046  11.729  14.093  0.2104  0.1833  0.0104
19595W        W35064   6.845   2.549   0.864  0.3333  0.0208 -0.2748
19596W        W35065  13.867   9.667   4.112  0.2308  0.1252 -0.4903
19597W        W35066  13.277  14.563  14.467 -0.1467 -0.0324 -0.0532
19598W        W35067  13.976  13.445   4.992 -0.1617  0.3397  0.3585
19599W        W35068   0.583   6.761   2.955 -0.2798  0.1263 -0.1823
19600W        W35069  14.554   4.988  12.641 -0.3072  0.2550 -0.0300
19601W        W35070   5.845  12.120   4.975 -0.0411  0.1246  0.1482
19602W        W35071   9.307   7.991   2.060  0.0248  0.2722 -0.2889
19603W        W35072   5.356   0.312   5.038  0.3039 -0.0798  0.2088
19604W        W35073   4.286   8.782   0.618 -0.0026  0.1034  0.0931
19605W        W35074   5.674   0.515  15.078 -0.0736 -0.0444 -0.0693
19606W        W35075  14.567   7.893   0.453 -0.2546 -0.1568  0.0391
19607W        W35076   9.644  14.202   4.946 -0.0810  0.2596 -0.1141
19608W        W35077   6.998   8.627   3.257  0.1010  0.2217 -0.1809
19609W        W35078  11.025   5.994  14.141 -0.1437  0.0197  0.0522
19610W        W35079   4.767   3.690  14.824 -0.0442  0.0989 -0.2802
19611W        W35080   9.108   5.115   1.137 -0.1205  0.0828 -0.1958
19612W        W35081   4.398  14.896  11.015 -0.2143  0.0982  0.0782
19613W        W35082  10.521  11.813  12.355 -0.1474 -0.1818  0.3181
19614W        W35083  11.534   3.926  15.636  0.1221  0.0474  0.1689
19615W        W35084   6.994   5.519  13.298 -0.0441 -0.2869  0.2252
19616W        W35085   4.743  11.809   0.640 -0.0502 -0.2854  0.1354
19617W        W35086   9.200  17.870  11.739  0.0231  0.2476 -0.1249
19618W        W35087   0.397  12.806   3.185 -0.3627  0.1533 -0.0944
19619W        W35088   9.148  15.931   3.367 -0.1252  0.3056 -0.0275
19620W        W35089   8.161  17.640  12.654 -0.1125  0.1266 -0.0648
19621W        W35090   6.451  13.087   4.137  0.0559  0.0762  0.0715
19622W        W35091   1.732  11.379   4.880  0.1772 -0.3318 -0.0747
19623W        W35092  11.776   3.700  13.100  0.0079 -0.2193 -0.2953
19624W        W35093  14.666   2.271  12.107  0.0908 -0.2896 -0.1510
19625W        W35094   7.991  17.794  15.916  0.0477 -0.2471 -0.1905
19626W        W35095   8.393   9.889  14.195 -0.0322 -0.0003  0.0687
19627W        W35096   5.266  13.670   3.850 -0.0782  0.2561 -0.0916
19628W        W35097   7.355  14.338  12.093 -0.0628 -0.1282 -0.1225
19629W        W35098   8.888  10.497   4.797  0.0997 -0.0128  0.1682
19630W        W35099   8.029   2.670  13.122  0.0743 -0.1080  0.0746
19631W        W35100   1.596   0.047  13.281 -0.1336  0.0304 -0.4702
19632W        W35101  15.651   5.950  15.152 -0.0369  0.0586 -0.0554
19633W        W35102   9.158   5.991  15.560  0.0415  0.1462  0.2662
19634W        W35103   0.749   9.692   0.011  0.0137  0.1033 -0.0087
19635W        W35104   4.897   3.870   0.241 -0.2900  0.0622 -0.1260
19636W        W35105   4.219   4.249  14.301  0.1769  0.0495 -0.0009
19637W        W35106  18.013   3.461   1.711  0.0718  0.1526  0.0180
19638W        W35107  14.147   3.980   5.550  0.1145  0.2117  0.0839
19639W        W35108  12.701  14.020  15.637 -0.3173 -0.0522  0.2397
19640W        W35109  14.508  14.146  16.112  0.1780  0.1562  0.0954
19641W        W35110   9.246   4.866  11.925 -0.0193  0.0559  0.2205
19642W        W35111  15.014   6.443  11.738  0.0991 -0.3030 -0.0807
19643W        W35112  15.512   7.431  15.547  0.1731 -0.2302 -0.0714
19644W        W35113  13.936   4.184  15.689 -0.1700 -0.0934 -0.0931
19645W        W35114   2.634   4.698   3.523 -0.0130  0.1304 -0.2782
19646W        W35115  10.536  17.132  14.060 -0.0776 -0.0261  0.0559
19647W        W35116   7.281   9.654  13.443  0.0340  0.4340 -0.1825
19648W        W35117   4.493   5.749   5.231 -0.1965 -0.0723  0.1761
19649W        W35118  16.915  12.442   4.638 -0.0121 -0.1216  0.1464
19650W        W35119   0.118  11.145   4.605  0.1417  0.1874  0.0995
19651W        W35120   8.048   7.820  14.368 -0.1793  0.0426  0.3372
19652W        W35121  12.201   7.411   2.954  0.1577 -0.1384  0.1691
19653W        W35122  10.046  15.363  12.771  0.3600  0.1899  0.0593
19654W        W35123   0.253   0.945   1.356  0.0322 -0.1618 -0.0908
19655W        W35124  16.599   7.231  15.817  0.1669  0.1470 -0.0544
19656W        W35125  11.214   1.731  15.815 -0.1982  0.1080  0.0234
19657W        W35126  16.756   9.290   1.150 -0.0221 -0.3638 -0.2656
19658W        W35127   3.926   7.743  13.826 -0.2775  0.1725  0.0849
19659W        W35128  10.513   1.861   4.180 -0.1053 -0.1606 -0.1678
19660W        W35129   8.616  13.098  15.290  0.1145  0.1481  0.0843
19661W        W35130  12.522   7.522   1.959 -0.0928 -0.1317 -0.1621
19662W        W35131   1.328   1.421  13.027  0.2193  0.2579  0.0998
19663W        W35132  14.058  16.668  13.748  0.2314  0.1609  0.1000
19664W        W35133   3.662  12.614  13.063  0.2477 -0.0832 -0.0461
19665W        W35134   8.553   4.360   4.991 -0.0346 -0.0947 -0.1007
19666W        W35135   6.574   7.728   0.816  0.0934  0.2399 -0.1327
19667W        W35136  13.865   9.109   6.247 -0.2490  0.0889  0.0532
19668W        W35137   6.898   9.508  12.470  0.0932 -0.0029 -0.0258
19669W        W35138   9.066  11.562  14.454 -0.2584  0.0623  0.2329
19670W        W35139   0.473   4.354  14.425 -0.0634  0.2193 -0.0382
19671W        W35140   4.941   7.807  11.781 -0.0776  0.3013  0.1337
19672W        W35141  17.477   0.713   1.856  0.1223  0.0837 -0.1348
19673W        W35142  17.889   4.281   4.932  0.2029  0.0056  0.2612
19674W        W35143   3.287   7.457  15.051 -0.1136 -0.0088  0.2679
19675W        W35144  16.333  15.349  14.358  0.0723 -0.1801 -0.0980
19676W        W35145  10.869   6.678  11.937  0.1405 -0.0772  0.3348
19677W        W35146  14.820   6.712  13.006  0.3265  0.0163  0.0414
19678W        W35147  15.482   7.124  13.592 -0.0209  0.0046  0.0635
19679W        W35148  11.471   3.176   3.718  0.1047  0.2231 -0.0601
19680W        W35149   4.395  15.442  15.131 -0.0794  0.1860  0.0490
19681W        W35150   4.266  17.104   1.900 -0.0205 -0.1729  0.0948
19682W        W35151   6.858  11.152  10.981  0.1034 -0.1631  0.0484
19683W        W35152   5.537   6.614   1.406  0.1783 -0.0833  0.1776
19684W        W35153  10.326   4.193  10.940 -0.1752 -0.1459 -0.3742
19685W        W35154  14.959  17.043  14.184  0.0168  0.1725  0.1010
19686W        W35155  12.622   2.008   2.634 -0.3001 -0.0090  0.2448
19687W        W35156   6.256  16.662  12.673  0.0856  0.0888  0.0507
19688W        W35157   7.434  13.292  11.558  0.0920  0.0194  0.0721
19689W        W35158   1.775  11.898  10.946  0.1015  0.1682  0.0663
19690W        W35159  12.790   6.981   3.644  0.0676 -0.0392 -0.1791
19691W        W35160  14.513  16.311   2.155 -0.1567 -0.1453  0.0053
19692W        W35161   7.510  12.299  13.073  0.1431 -0.0634 -0.2397
19693W        W35162   0.519  12.910  16.307 -0.2325  0.0144 -0.2357
19694W        W35163   3.597   8.828  15.043  0.0126  0.0124 -0.0852
19695W        W35164   9.598   7.671   4.079 -0.0813  0.0139 -0.1736
19696W        W35165  14.905   1.574   3.603  0.0415  0.1580  0.1444
19697W        W35166   3.413   4.600  13.615 -0.2513  0.3281 -0.1734
19698W        W35167  16.172  10.229   3.117 -0.0521 -0.1369 -0.1174
19699W        W35168   1.625   0.257  11.858 -0.0431 -0.0873  0.2076
19700W        W35169   5.914   4.125   1.449 -0.3283 -0.2271  0.3468
19701W        W35170   8.839   0.934  11.656 -0.0431 -0.0382  0.0594
19702W        W35171  17.798   9.801   4.786 -0.1621 -0.0215 -0.0939
19703W        W35172  12.541   7.636  11.578 -0.0635 -0.1163  0.2283
19704W        W35173   6.291   8.847  12.420  0.0495  0.0285 -0.0899
19705W        W35174   7.641   1.008  12.983 -0.0340 -0.1178  0.2981
19706W        W35175   3.472   8.035  13.533 -0.1529  0.0857 -0.3149
19707W        W35176   5.637   6.953   0.014  0.4178  0.0051  0.3412
19708W        W35177  12.335  15.495   4.280  0.3736 -0.0833 -0.1336
19709W        W35178  11.486   6.177  12.542  0.2403 -0.0786  0.1660
19710W        W35179   4.669   9.922  13.003 -0.2056 -0.1190  0.0950
19711W        W35180   1.154   9.212   2.932 -0.0911  0.2619  0.1154
19712W        W35181  12.436  11.568   5.551 -0.0272 -0.1520 -0.1693
19713W        W35182  11.897  12.064   2.806  0.0456 -0.1744  0.1990
19714W        W35183  17.797  13.237   0.602  0.2356  0.0113  0.2829
19715W        W35184   6.670  12.662  12.923 -0.0927 -0.0250 -0.0846
19716W        W35185   4.849  15.160  11.188  0.0121 -0.2387  0.0081
19717W        W35186   9.719   3.152  15.281  0.0340  0.0061  0.4920
19718W        W35187   9.965   4.838  15.464  0.0196  0.3700 -0.0623
19719W        W35188  17.561   7.289   4.464 -0.1098  0.0452 -0.0678
19720W        W35189   6.944   4.435   2.862  0.0426  0.1562 -0.0216
19721W        W35190   5.643  16.033   0.072 -0.2849 -0.0656 -0.0783
19722W        W35191   7.167  14.638  15.325  0.1820  0.3228 -0.1554
19723W        W35192   6.240   7.775   1.198  0.0849  0.1664  0.2239
19724W        W35193   8.381   7.045   3.470 -0.2135  0.0971 -0.0337
19725W        W35194  10.306   9.536  15.163 -0.2303  0.0086  0.0071
19726W        W35195   5.956  15.574   2.359 -0.0125 -0.1240  0.1188
19727W        W35196   8.619   3.268  15.031 -0.0136  0.0309  0.1923
19728W        W35197   2.155  12.620   0.501  0.0268 -0.0900  0.3103
19729W        W35198  12.172   3.102  14.450  0.1149 -0.0906  0.2014
19730W        W35199   8.372  12.133   1.705  0.1492 -0.2552  0.0469
19731W        W35200  17.790  14.113   1.801 -0.0124 -0.2044 -0.2183
19732W        W35201   0.837  12.752   6.090  0.3498  0.0766 -0.0547
19733W        W35202   7.449   3.718   1.410 -0.0325  0.0166  0.1152
19734W        W35203  16.594  12.049  10.876 -0.0332 -0.0772  0.0086
19735W        W35204   0.618  13.965  11.641 -0.0630 -0.1622  0.0902
19736W        W35205   5.530  12.812  10.867  0.2568 -0.3050  0.0446
19737W        W35206   4.557  16.839  15.209 -0.0131 -0.3613 -0.2429
19738W        W35207   3.307   2.359  12.668 -0.0068  0.1894  0.1399
19739W        W35208  12.589   0.982  13.054 -0.2482 -0.0493  0.0560
19740W        W35209   4.633  15.794  14.831  0.2118 -0.0054 -0.0651
19741W        W35210   7.414  14.706  11.710  0.0359  0.3347 -0.0500
19742W        W35211  11.674  12.421   1.893 -0.3534 -0.3478  0.1453
19743W        W35212  16.888  17.047   1.974 -0.1557 -0.0491 -0.1846
19744W        W35213   9.687  12.903   2.530 -0.0230 -0.2298  0.2078
19745W        W35214  10.090  13.232   1.805  0.1774 -0.0072  0.0889
19746W        W35215   1.051  14.107  15.558 -0.2086 -0.0431  0.1402
19747W        W35216   3.008  11.752  12.368 -0.0114 -0.0755 -0.1107
19748W        W35217   2.998   4.806  16.105  0.2814 -0.3024 -0.0843
19749W        W35218   4.976  16.007   5.483 -0.2467  0.0234  0.0899
19750W        W35219   6.494  17.275  10.843  0.2096  0.0284  0.1178
19751W        W35220  15.899  12.255   0.656  0.1580 -0.1414  0.0839
19752W        W35221   9.572  11.556   4.383  0.1705 -0.2882 -0.1682
19753W        W35222   6.007   7.094   4.677  0.2950  0.1055  0.0967
19754W        W35223  13.321   5.189  14.688 -0.0022 -0.0474  0.1120
19755W        W35224   0.817   2.406  13.712  0.3051  0.0957 -0.0030
19756W        W35225  17.668   5.870   4.887  0.1574  0.0861 -0.1739
19757W        W35226  13.442   3.566  12.018  0.1527  0.2177 -0.0766
19758W        W35227  10.915  14.007  12.066 -0.0573  0.0029  0.0146
19759W        W35228   6.503   0.243  15.132 -0.0150 -0.0755 -0.3266
19760W        W35229  16.400  11.967  12.387 -0.2150  0.1230  0.2051
19761W        W35230  12.966  15.169  12.425 -0.0265 -0.0681 -0.2487
19762W        W35231   6.808   6.386   1.313 -0.1042  0.1759  0.0272
19763W        W35232   4.769   7.845   4.921 -0.1483 -0.0054 -0.1040
19764W        W35233   2.359   8.280   4.853  0.1634  0.2060  0.2607
19765W        W35234   4.099   9.464  11.361  0.1129 -0.1574  0.3371
19766W        W35235   7.880  12.390  12.346  0.0545  0.1576 -0.0251
19767W        W35236  11.095  15.014  15.880  0.0793 -0.2050 -0.1427
19768W        W35237  14.077  10.098  13.204 -0.2118  0.1661 -0.0739
19769W        W35238   1.332   8.630  12.591 -0.0257  0.1776 -0.2715
19770W        W35239   8.157  12.189   2.706 -0.0485  0.2977  0.0804
19771W        W35240   0.918  17.155  14.916  0.0102  0.1376 -0.2035
19772W        W35241   0.305  17.203  14.566 -0.0034 -0.2907 -0.2190
19773W        W35242  13.134   3.212   1.855  0.0263 -0.0794  0.0818
19774W        W35243  11.479  14.765  16.048  0.0401  0.2383  0.0107
19775W        W35244  10.621  15.721   1.189 -0.0655 -0.4119  0.2466
19776W        W35245   6.891   5.594   3.481 -0.1874  0.0177 -0.1137
19777W        W35246  14.609  13.697  15.859 -0.2283  0.2210 -0.0050
19778W        W35247   2.208   3.504  14.672  0.2481 -0.3706 -0.0496
19779W        W35248  11.473  10.563   0.765 -0.3605  0.1157 -0.0902
19780W        W35249   4.904  17.485   0.768 -0.1356  0.3483 -0.0300
19781W        W35250   2.810   1.131   2.920 -0.6040 -0.1532 -0.0223
19782W        W35251  12.693   9.583  14.684  0.0805  0.1502 -0.1880
19783W        W35252  14.821  15.952  16.215  0.0467  0.1362  0.0350
19784W        W35253   5.756  16.604   5.016  0.1002 -0.2509 -0.1080
19785W        W35254   0.658  11.041  15.868 -0.0301 -0.0816  0.1870
19786W        W35255   8.218  16.708   0.144  0.2605 -0.1246  0.1535
19787W        W35256   7.863   7.229  13.510 -0.1435 -0.0654 -0.0370
19788W        W35257  13.489   7.151   2.111 -0.2370 -0.1013  0.0440
19789W        W35258  13.239   9.253  13.106  0.0563  0.1744  0.2296
19790W        W35259   7.179   3.786  14.159  0.1435 -0.0898 -0.3255
19791W        W35260  10.706  17.826  12.261  0.3627  0.1641 -0.0592
19792W        W35261  11.968   2.152  14.025  0.1878 -0.1467  0.4439
19793W        W35262   1.989   5.336   1.499 -0.2314 -0.1029 -0.3721
19794W        W35263  18.093  12.314   3.849  0.0491  0.0626 -0.1173
19795W        W35264  14.441  17.257   0.025 -0.0238 -0.0135 -0.0073
19796W        W35265   4.916  16.085  15.774  0.1594 -0.1137  0.0558
19797W        W35266   2.419  17.280  15.463  0.0625 -0.1072  0.2092
19798W        W35267   8.006   4.807   6.269  0.1432  0.0400  0.1139
19799W        W35268  16.932  15.467  13.189 -0.2313 -0.2555 -0.1884
19800W        W35269  16.685   8.420   0.908  0.1639  0.0601 -0.2942
19801W        W35270   4.753   7.587  13.414 -0.0949 -0.0293 -0.1617
19802W        W35271  11.837   0.653   2.166 -0.1432  0.1500 -0.0372
19803W        W35272   0.958   1.808   4.989 -0.2266 -0.2691 -0.0786
19804W        W35273   1.188  16.508   4.537  0.0786 -0.0625 -0.1154
19805W        W35274  14.039   2.740  11.931 -0.1154  0.3817 -0.1257
19806W        W35275   0.848  10.496   4.409 -0.1128 -0.1382 -0.1772
19807W        W35276  13.783  14.657  14.504  0.0454 -0.0360  0.1651
19808W        W35277   1.954   3.562  12.083 -0.1048 -0.2286  0.2302
19809W        W35278   5.213  16.534  14.054 -0.2378  0.1955  0.1299
19810W        W35279  10.201   9.973  14.285  0.0268 -0.2380 -0.6094
19811W        W35280   2.736   2.207  11.275  0.0764  0.4958 -0.2718
19812W        W35281   2.450   9.839   3.230 -0.1009 -0.1781 -0.1177
19813W        W35282  13.320   5.459  13.770  0.0096  0.3892  0.3069
19814W        W35283  15.730  12.630   3.625 -0.0151  0.0750  0.0974
19815W        W35284   4.532  16.867   0.208 -0.1209  0.1490  0.1031
19816W        W35285  13.775  12.506   2.417 -0.1150  0.1004 -0.0439
19817W        W35286  12.902  16.793  11.928 -0.1088  0.0206  0.0331
19818W        W35287  16.309   5.439   0.428  0.1501  0.1512 -0.2036
19819W        W35288   2.672  12.053  15.652 -0.3464 -0.1094  0.3062
19820W        W35289  16.842  17.491  13.460 -0.0066 -0.0092  0.0590
19821W        W35290  14.040   6.289   0.360 -0.2702 -0.2754  0.0804
19822W        W35291  12.870   0.419  12.785  0.3569  0.0973 -0.1275
19823W        W35292   9.631   4.055   2.771 -0.3366 -0.1688  0.0876
19824W        W35293  17.451  16.959   2.621  0.1628  0.1195  0.1490
19825W        W35294   7.838   2.384   4.467 -0.0452 -0.0607 -0.1463
19826W        W35295   3.559  11.256   1.848 -0.3531 -0.2227 -0.1212
19827W        W35296  16.014  16.815   0.812 -0.0737 -0.0809 -0.0365
19828W        W35297   2.883   1.359   2.240 -0.0596 -0.1376 -0.1844
19829W        W35298   0.656   9.175  11.709 -0.0303  0.1582  0.0864
19830W        W35299   3.460  16.235  13.553 -0.0019 -0.0430 -0.3256
19831W        W35300   0.974  15.418   3.140  0.1596  0.3667  0.2353
19832W        W35301   0.506  10.735  16.269 -0.0453  0.0079 -0.1002
19833W        W35302  15.886   7.018  13.216  0.0250  0.0303 -0.0054
19834W        W35303  12.930  12.928  14.936  0.2223 -0.2227 -0.1177
19835W        W35304  16.386  10.256  13.611 -0.0669 -0.2880 -0.1328
19836W        W35305   0.425   8.022   2.259 -0.1577  0.0344 -0.0239
19837W        W35306  14.771   2.986   3.523 -0.0123  0.1811 -0.2053
19838W        W35307  15.024   0.342   5.874 -0.1378 -0.1002 -0.1329
19839W        W35308   7.759  14.159  11.828 -0.0143  0.0407 -0.2582
19840W        W35309  14.928   8.915   4.267  0.1516 -0.2919 -0.2612
19841W        W35310   0.025   3.416   5.393  0.1699  0.2529 -0.1406
19842W        W35311   6.573  14.025  11.658 -0.0921  0.0446  0.2276
19843W        W35312  13.015   2.233   0.605 -0.1457  0.1060  0.1267
19844W        W35313   4.246   6.556  12.338  0.0772  0.1635 -0.0929
19845W        W35314  12.392   4.928   5.372  0.1773  0.2125 -0.0776
19846W        W35315  11.393  10.011   5.985 -0.4300 -0.0407  0.2918
19847W        W35316  17.681  17.303  13.937  0.2150  0.0310  0.0723
19848W        W35317   2.918   8.839   2.638 -0.0389  0.0118 -0.4154
19849W        W35318  12.817  14.594   3.542 -0.1554 -0.2299 -0.2408
19850W        W35319   6.609   8.644  15.337  0.0612 -0.0105  0.2483
19851W        W35320  13.188   0.922   5.328  0.2782  0.1081 -0.1548
19852W        W35321  16.049  13.269  14.154  0.1433 -0.2100 -0.0866
19853W        W35322  16.951   5.364  14.469 -0.1537  0.1516  0.0612
19854W        W35323  13.449  11.302  12.753  0.2403  0.2342  0.1380
19855W        W35324  14.679  11.834  10.926  0.0350 -0.0791 -0.0978
19856W        W35325   4.472   0.648  12.362  0.1885 -0.0163 -0.2926
19857W        W35326  15.057  10.350  10.807 -0.1587 -0.1785  0.0132
19858W        W35327   8.125   9.662  14.832  0.1016  0.0649 -0.0301
19859W        W35328   1.008  13.242  12.300 -0.1295 -0.0478  0.0317
19860W        W35329  12.052  12.415   4.073  0.1271 -0.3529  0.1079
19861W        W35330   7.649   1.306   2.225  0.4805 -0.1630  0.3211
19862W        W35331  17.962  12.691   3.480 -0.0334 -0.0661  0.0270
19863W        W35332   4.762   8.407  15.220  0.4184 -0.0962 -0.0284
19864W        W35333  12.868  15.071  11.330 -0.0189  0.0715 -0.1691
19865W        W35334   6.152   0.680   1.578 -0.1134  0.0343 -0.2785
19866W        W35335  14.857   7.332   5.455 -0.0983  0.2932 -0.5082
19867W        W35336   8.014   2.300   2.984  0.1247 -0.1128  0.2431
19868W        W35337  11.503  12.961   9.984  0.1637 -0.0677 -0.1335
19869W        W35338   6.358   0.848   2.704 -0.0136  0.0673 -0.0802
19870W        W35339   3.584   4.832   3.484  0.1617  0.1910 -0.0747
19871W        W35340   0.060   7.808  11.797  0.1348  0.0481  0.1541
19872W        W35341  11.850   0.458  13.306  0.2600 -0.1861  0.2934
19873W        W35342   1.255   7.147   4.401 -0.2309 -0.0033  0.0183
19874W        W35343   5.443   8.859   6.277 -0.0505  0.0220 -0.1478
19875W        W35344   5.691  16.889   2.967  0.0152 -0.0257 -0.1445
19876W        W35345   8.028  16.899  11.231 -0.2981 -0.0240  0.2965
19877W        W35346   1.212   9.104  13.296  0.1171  0.1705  0.1005
19878W        W35347   2.318  13.799  10.316  0.1032 -0.0541  0.4352
19879W        W35348  12.980   8.354  14.168  0.0062 -0.0321 -0.2957
19880W        W35349   3.610   4.903  14.487 -0.0271  0.1470 -0.2147
19881W        W35350   5.800   6.806   5.063  0.4395  0.1376 -0.0062
19882W        W35351   4.207  11.621  13.947 -0.1578 -0.4829 -0.0342
19883W        W35352   6.936   0.688   3.447 -0.1807  0.1729 -0.1652
19884W        W35353   2.682  16.009   2.495  0.2160  0.1192  0.2360
19885W        W35354  13.071   1.388  14.453 -0.1907 -0.0832 -0.0651
19886W        W35355   0.419   5.022  15.165 -0.0758  0.1932  0.1887
19887W        W35356  15.852   3.221  13.775 -0.0864  0.4015 -0.1299
19888W        W35357   4.727  12.236  15.604  0.1823 -0.0706 -0.0765
19889W        W35358  16.368  16.056   0.300 -0.0609 -0.1203  0.0603
19890W        W35359  10.939  13.517   3.250  0.1024 -0.0096 -0.4359
19891W        W35360  11.740  12.218  13.101  0.0934 -0.1271  0.2658
19892W        W35361  11.579  14.027   3.525 -0.1192 -0.3178 -0.0452
19893W        W35362   0.067   5.402  15.319  0.3141  0.0146  0.3713
19894W        W35363  16.938   2.264  12.607  0.2737 -0.2989  0.0068
19895W        W35364  13.638   3.994   0.817 -0.0582  0.1075  0.1721
19896W        W35365  14.347   8.478   1.401  0.2053  0.0363 -0.0686
19897W        W35366  13.196  16.905  13.052 -0.0504  0.0765  0.0110
19898W        W35367  14.655  13.620  11.208  0.0905 -0.2895 -0.4475
19899W        W35368   1.610   6.871  14.771  0.0049 -0.0638 -0.0845
19900W        W35369   5.365  11.735   5.113  0.2953 -0.1302  0.1753
19901W        W35370   7.755   8.626  16.258  0.2634 -0.0657 -0.1057
19902W        W35371   4.917   7.007  15.637 -0.1765  0.2327 -0.2082
19903W        W35372   7.981  14.712  14.374 -0.0136 -0.0206  0.0719
19904W        W35373   5.463  10.591  13.152  0.1097  0.2571 -0.1920
19905W        W35374   3.076  16.199   2.138  0.0786 -0.2710 -0.2786
19906W        W35375   1.302  13.992  16.228  0.0743 -0.1098  0.0338
19907W        W35376   5.959   7.199  11.434  0.0867 -0.0198  0.0775
19908W        W35377  10.795  16.134  14.762 -0.0468  0.0453 -0.2299
19909W        W35378   0.509   1.744   3.419  0.0104 -0.3756  0.1808
19910W        W35379  14.551  13.122  10.973 -0.1150  0.0196  0.1562
19911W        W35380   9.347  10.980   2.619  0.4795  0.1299 -0.0961
19912W        W35381  10.931  10.757   5.856  0.1091 -0.0060  0.1110
19913W        W35382   5.368  13.765  13.727  0.0219 -0.1377  0.0381
19914W        W35383   0.412  16.901   1.904 -0.0533 -0.2499  0.0876
19915W        W35384   2.181  17.047  13.260  0.0323 -0.0903 -0.0326
19916W        W35385   1.875   8.361   0.183  0.0794  0.1864  0.2300
19917W        W35386  17.317   8.799  15.139  0.0961 -0.1180  0.4257
19918W        W35387   5.553   2.032  15.375  0.0994 -0.1347  0.0914
19919W        W35388   3.349   0.041  10.336  0.0434 -0.0082 -0.3067
19920W        W35389   1.904  11.407  16.238 -0.0009 -0.1856 -0.0985
19921W        W35390   9.066  11.502  13.173 -0.0029 -0.1371  0.0756
19922W        W35391  17.065  17.665   4.037 -0.1542 -0.2682  0.1533
19923W        W35392  18.028   1.371   1.704  0.2703 -0.1328  0.0343
19924W        W35393   9.534  13.403  11.196 -0.2048  0.2926  0.0243
19925W        W35394  12.245   8.642   4.682  0.1218 -0.0063 -0.0732
19926W        W35395  11.209   2.714   6.171 -0.1211  0.0905  0.1124
19927W        W35396  17.715  14.538  13.971  0.1458  0.1372 -0.0986
19928W        W35397   5.644   1.287  12.063 -0.0854 -0.2877  0.1005
19929W        W35398  18.090  12.432  15.588 -0.1118  0.1399  0.0934
19930W        W35399   3.456  10.984  11.754 -0.0215 -0.0621 -0.1224
19931W        W35400   2.515   7.858   0.323  0.0726  0.2896  0.0294
19932W        W35401   3.438  11.507  13.501  0.0460  0.1346 -0.0483
19933W        W35402  11.719   7.942   0.416 -0.0283  0.0074  0.0140
19934W        W35403   2.160   3.129  12.907 -0.1106 -0.1250 -0.1642
19935W        W35404   8.431   8.734   4.077 -0.0625  0.0827 -0.0398
19936W        W35405   8.856  11.393  11.041 -0.1020 -0.0063  0.1447
19937W        W35406  10.198   6.396  14.777 -0.0231 -0.0627  0.0900
19938W        W35407  15.906   2.897   3.915  0.2050 -0.2111 -0.1103
19939W        W35408   4.620   2.603   6.392  0.0022  0.0587 -0.0554
19940W        W35409   1.632  10.412  12.416  0.0020  0.0008  0.2136
19941W        W35410  12.298   1.704   1.317 -0.1301  0.2361 -0.3241
19942W        W35411   2.599   9.110   4.992  0.0781  0.1785  0.0682
19943W        W35412  18.012  16.847  11.141 -0.0485  0.1211  0.2893
19944W        W35413  14.233  16.167  13.759  0.1095 -0.1192  0.2287
19945W        W35414   2.226   7.778  11.892  0.0503  0.0957  0.1642
19946W        W35415  10.179   4.468   1.456  0.0895 -0.4777 -0.1680
19947W        W35416   4.183   0.973  14.189  0.0039  0.0113  0.0470
19948W        W35417   7.142   9.907   1.775  0.0855  0.0473 -0.3718
19949W        W35418   9.438   7.290  15.911  0.2008 -0.2761 -0.1957
19950W        W35419   5.522   6.565   5.851  0.4070  0.2440  0.1363
19951W        W35420  16.308   7.874   3.693  0.1689  0.0612  0.2112
19952W        W35421   1.452  18.051   2.734 -0.2868 -0.3499  0.0697
19953W        W35422  17.898  12.173   1.370  0.3725  0.1385  0.0528
19954W        W35423   5.717   7.441   4.703  0.1018 -0.4984  0.0433
19955W        W35424   0.294   6.369  13.843  0.0724  0.0012  0.0298
19956W        W35425   6.700  13.637  10.475 -0.1011 -0.0575  0.2027
19957W        W35426   7.667  15.955   0.669 -0.2192 -0.3296  0.2086
19958W        W35427   3.278  12.224   0.555  0.3135  0.2177  0.0707
19959W        W35428  10.847   6.291   2.571 -0.2831  0.1937 -0.0591
19960W        W35429   6.862   9.896   1.000  0.1442  0.0935  0.4052
19961W        W35430  15.874  10.813  11.500  0.1056 -0.2404 -0.3625
19962W        W35431   2.129   2.034  13.354 -0.0495 -0.0686  0.4324
19963W        W35432   4.615   9.058  13.840  0.0617  0.0049  0.0238
19964W        W35433   2.861   5.591   3.873  0.0429  0.3810  0.1980
19965W        W35434   8.461  15.108  10.110 -0.1251  0.1624  0.2306
19966W        W35435  11.661  14.328   3.115  0.1766 -0.0970  0.0396
19967W        W35436   8.450   4.004   1.942  0.0388  0.1587 -0.0578
19968W        W35437   9.696   9.689  13.990 -0.1124  0.1414 -0.0330
19969W        W35438   1.500  15.589   4.649 -0.2958  0.1638 -0.0301
19970W        W35439   8.670   5.331  15.062  0.4008 -0.0303 -0.1185
19971W        W35440  10.032   5.815   1.469  0.0168  0.0502 -0.3337
19972W        W35441   9.299  10.582  13.673 -0.2632  0.0800 -0.0910
19973W        W35442   2.418   1.159   4.357 -0.0926  0.0488 -0.0000
19974W        W35443  14.106   9.202  14.238  0.3236  0.5951  0.1240
19975W        W35444   0.446   6.859   4.127 -0.2160  0.2648 -0.0631
19976W        W35445   4.759   9.656  13.716 -0.1648  0.2181  0.0914
19977W        W35446  15.843   1.843   5.869  0.0434  0.1890  0.1373
19978W        W35447   7.927  14.137   1.642 -0.1331 -0.1519 -0.0821
19979W        W35448   4.532   3.352   4.859  0.3357  0.3008 -0.0369
19980W        W35449   2.926   0.257  16.107  0.2241 -0.0290  0.6378
19981W        W35450  16.815   2.089  12.132 -0.3180 -0.0351  0.0333
19982W        W35451  13.607   8.003   3.808 -0.4035 -0.0647 -0.0790
19983W        W35452  13.074  14.505   4.769  0.0647  0.2252  0.1521
19984W        W35453  10.035   3.228   4.072 -0.1743 -0.0325  0.0007
19985W        W35454   7.055   3.641   3.915 -0.2328  0.1820 -0.0110
19986W        W35455  12.524  10.371   5.117 -0.0407  0.2959  0.0286
19987W        W35456   1.354   5.472  15.746 -0.1635 -0.1315  0.0094
19988W        W35457   4.790  12.593  11.286 -0.0635 -0.2140 -0.0788
19989W        W35458   3.663  10.646   4.513 -0.0220 -0.1880  0.0669
19990W        W35459   2.476  10.962   5.203 -0.2025  0.1102 -0.2665
19991W        W35460  13.667   0.997   5.490 -0.1778  0.0716  0.2054
19992W        W35461   5.167  14.401   0.398 -0.1693 -0.0992  0.1859
19993W        W35462   7.399  13.373  13.181  0.0980  0.0755 -0.0531
19994W        W35463  16.761  12.693  13.675 -0.2042  0.1303 -0.1401
19995W        W35464  13.254   2.032  12.490 -0.0021  0.1682 -0.1627
19996W        W35465   7.515   5.472  15.995  0.1485  0.0473 -0.0348
19997W        W35466  10.411  10.506  16.191  0.2153 -0.1050 -0.0599
19998W        W35467   9.436   0.013  12.784 -0.3083  0.2128 -0.0106
19999W        W35468   7.994  17.503  12.253 -0.0043 -0.0683  0.0000
20000W        W35469   7.627   5.809   4.300  0.2600  0.0625  0.0494
20001W        W35470   5.593  17.350   3.224  0.4138  0.1521  0.0671
20002W        W35471   2.844  16.991   4.970 -0.3523  0.1223  0.1497
20003W        W35472  11.571   5.125  13.860 -0.0901 -0.0949  0.2458
20004W        W35473   9.536   4.492  12.999 -0.1176 -0.2036 -0.3012
20005W        W35474   8.293  12.670   2.440 -0.0046 -0.0946  0.1165
20006W        W35475   8.572  13.945   0.480  0.0697 -0.0030  0.3641
20007W        W35476  17.186   9.423   3.455 -0.0790  0.0854 -0.3590
20008W        W35477  12.959  16.823   3.558  0.0437 -0.1919  0.2659
20009W        W35478   9.241  11.740  11.044 -0.0059  0.0457 -0.1737
20010W        W35479   5.169   8.685   5.385  0.1276  0.0624 -0.1835
20011W        W35480  16.210  13.058   4.953  0.0557 -0.0054  0.0721
20012W        W35481  17.156   8.815   2.796  0.1669  0.2945 -0.1742
20013W        W35482  11.609   8.650   6.065 -0.1576  0.0836 -0.0481
20014W        W35483  16.860   5.544   1.913  0.1554  0.1439  0.0508
20015W        W35484   6.613  12.897   0.613  0.0327  0.0018 -0.0025
20016W        W35485  15.148   6.293  14.496  0.1418  0.3383  0.0374
20017W        W35486   1.518  12.579   3.845 -0.1656 -0.1496 -0.3718
20018W        W35487  10.404   9.053  14.914 -0.3860 -0.1815  0.1396
20019W        W35488   4.374   8.197  16.290 -0.2198 -0.1105  0.2038
20020W        W35489  16.700  17.462   3.666  0.2648 -0.1013  0.0236
20021W        W35490   0.709   0.938  12.708  0.0452  0.0064 -0.1289
20022W        W35491  14.512  14.868   3.992 -0.0728  0.1920  0.0463
20023W        W35492  10.807  11.840   1.867  0.1005  0.3450  0.1597
20024W        W35493  15.091  10.254   6.376  0.0802 -0.0781  0.1607
20025W        W35494  12.141   6.848   4.241  0.1274  0.0483 -0.0552
20026W        W35495   7.467   3.836   4.153  0.0202  0.3188 -0.0092
20027W        W35496  11.729   6.219  14.716  0.0227  0.1605  0.1681
20028W        W35497  10.508   5.052  15.413 -0.2541 -0.1920 -0.0690
20029W        W35498  11.140   1.156   1.996 -0.0314  0.0817 -0.0218
20030W        W35499   4.762  15.156   2.554 -0.0390 -0.3542  0.2455
20031W        W35500   4.270   0.437   3.641  0.0825 -0.0630 -0.0375
20032W        W35501  14.020  12.299  11.325 -0.0229  0.0346 -0.0979
20033W        W35502  13.357  16.747   4.223  0.0960  0.0278  0.0281
20034W        W35503  11.863   0.588  12.815  0.0239  0.1316 -0.0082
20035W        W35504   8.496   1.940  12.291 -0.1675  0.2186 -0.1346
20036W        W35505   3.729  12.079  12.725  0.6108  0.1252 -0.2589
20037W        W35506   3.671  13.623  16.268 -0.1240  0.1831  0.0940
20038W        W35507   2.986   8.134  13.709  0.0646 -0.1634  0.1786
20039W        W35508  11.975   1.605   3.808  0.2190 -0.1103 -0.1627
20040W        W35509   5.602   6.879  10.909  0.1763  0.0730  0.2341
20041W        W35510   2.414  13.680   6.244  0.1072  0.0029  0.1179
20042W        W35511  13.970   2.236  15.898 -0.2452  0.2253 -0.2369
20043W        W35512  15.022   4.892   5.312  0.0727  0.2073 -0.0481
20044W        W35513   3.547   3.349   5.249 -0.0068  0.3714  0.0940
20045W        W35514  17.102  16.455   0.811 -0.1160 -0.3967  0.0711
20046W        W35515   4.066  14.679   4.000 -0.0369  0.1876  0.3830
20047W        W35516   3.749  14.291   0.674 -0.2204  0.2751 -0.1669
20048W        W35517  15.433   9.416  12.832  0.0492 -0.1240 -0.2723
20049W        W35518   9.712   8.964  15.272  0.3014 -0.1644  0.1626
20050W        W35519  13.071  11.300   6.285  0.2039  0.1932  0.1257
20051W        W35520  15.966  13.285  11.540  0.2631 -0.2330 -0.1070
20052W        W35521  15.260   2.151   4.933  0.0493 -0.0775 -0.1954
20053W        W35522  14.135  11.847   2.116  0.1559  0.1604 -0.0347
20054W        W35523  13.061   2.877   5.065  0.2418 -0.2493  0.3036
20055W        W35524   4.332   6.385   1.217  0.0177 -0.0053 -0.2169
20056W        W35525  13.563  10.399   3.378  0.2193 -0.0683  0.0695
20057W        W35526   6.763  11.780  11.582  0.0895  0.0017 -0.0896
20058W        W35527   9.726   5.734  16.228 -0.0422  0.0792 -0.0799
20059W        W35528   7.439  11.954   3.996 -0.1600  0.0626 -0.0325
20060W        W35529  13.842  14.972  12.421 -0.3522  0.4705 -0.0488
20061W        W35530   2.585  10.719   1.894 -0.1084 -0.1308 -0.1158
20062W        W35531  16.140  16.595  11.945  0.3279  0.2308 -0.2711
20063W        W35532  16.485   2.519   2.118 -0.1130 -0.1290  0.0686
20064W        W35533   1.803  13.339   0.209 -0.0247 -0.2269 -0.0485
20065W        W35534   6.182   7.003   4.253  0.2267  0.1832 -0.0600
20066W        W35535   0.378   4.624   3.706 -0.2456 -0.2846 -0.0845
20067W        W35536   2.730   6.709   5.343 -0.3216  0.4309 -0.3048
20068W        W35537   7.152   3.377   1.642 -0.0964 -0.2116 -0.0184
20069W        W35538  10.795   8.025  13.802  0.0964  0.2442  0.1990
20070W        W35539   3.645   0.694   0.919  0.2425  0.1685  0.0992
20071W        W35540  13.108   9.817  11.892  0.0287  0.4235 -0.2120
20072W        W35541   1.402   3.684  14.126 -0.0478 -0.2272  0.1921
20073W        W35542  12.712  15.440   3.959  0.0591 -0.1576 -0.0019
20074W        W35543  15.404   0.895  11.754 -0.0473  0.0677 -0.0122
20075W        W35544  13.608   9.619   5.211  0.3333 -0.0426  0.2486
20076W        W35545   8.496  13.335  10.886  0.1824 -0.1077 -0.0132
20077W        W35546  16.716   2.638   2.601 -0.0028 -0.2002  0.2147
20078W        W35547  10.761   0.999  15.925  0.0972  0.0952  0.1375
20079W        W35548   0.916  13.320  11.816  0.0323 -0.1802 -0.0787
20080W        W35549   7.502   6.206  10.313  0.0102  0.2153 -0.1631
20081W        W35550   3.949  13.414  14.647 -0.2691 -0.0374 -0.2071
20082W        W35551   6.340   2.594  11.639 -0.3486  0.1321 -0.1349
20083W        W35552  14.984   7.084  13.348 -0.0229 -0.1126  0.1904
20084W        W35553  10.747  15.747  12.114 -0.3054 -0.1141 -0.0616
20085W        W35554   7.461   7.011   5.433 -0.3007  0.3656 -0.2773
20086W        W35555   5.334   7.862   4.186  0.3900 -0.2618  0.2403
20087W        W35556   5.116   8.874  13.916 -0.3786 -0.0731 -0.1077
20088W        W35557  14.812   8.867   0.585  0.4168 -0.1307 -0.3004
20089W        W35558  15.340   6.152   3.873  0.1120 -0.0913  0.0044
20090W        W35559  15.439  17.175  15.358 -0.1450 -0.0440  0.2570
20091W        W35560   1.393   8.089  13.437 -0.0296  0.1450  0.0041
20092W        W35561   9.932  17.955  14.861 -0.1722 -0.0803  0.0362
20093W        W35562   1.347   9.636   3.168 -0.0899  0.0409  0.1604
20094W        W35563   9.077   8.165   2.971 -0.0009 -0.1091 -0.1310
20095W        W35564  13.521  13.292   1.915 -0.2034  0.2785 -0.0102
20096W        W35565  16.646   8.329   0.385 -0.2313 -0.1938 -0.0959
20097W        W35566  17.493   6.823   2.371 -0.3610 -0.1967  0.3321
20098W        W35567   5.622   0.938  15.408 -0.1205 -0.3876  0.0200
20099W        W35568  14.959   6.132  12.198 -0.3140 -0.1904 -0.0759
20100W        W35569  16.529   1.817   4.959 -0.0768 -0.1702  0.0040
20101W        W35570   9.426   9.788   2.322 -0.0711  0.2241 -0.2688
20102W        W35571  13.580   6.993   0.755 -0.1887 -0.3593  0.0073
20103W        W35572   7.514   0.167  12.410 -0.1159  0.2079 -0.0717
20104W        W35573  15.377  15.931   4.825  0.1583 -0.2095  0.1277
20105W        W35574   3.856   8.280  16.257  0.1659 -0.2031  0.0052
20106W        W35575  15.361   1.803   1.308  0.2488 -0.3287  0.0532
20107W        W35576   3.075   4.878   2.337  0.0990 -0.1755 -0.1733
20108W        W35577  13.172   3.315  14.358 -0.2432 -0.0705 -0.3035
20109W        W35578   0.809   3.825   5.938  0.1328  0.0090  0.0361
20110W        W35579  15.590  15.959  14.059 -0.0577 -0.0584  0.1120
20111W        W35580   2.689   6.048   3.084 -0.0374 -0.0023  0.4570
20112W        W35581   5.005   7.015   4.460  0.2964 -0.0672  0.1142
20113W        W35582  12.625  16.595   3.075  0.0082  0.0486  0.0560
20114W        W35583  14.351  17.319  11.487 -0.2600  0.0840  0.3028
20115W        W35584  11.030  10.486  12.158 -0.3641 -0.0089  0.1708
20116W        W35585   7.085  17.204  11.360  0.1044  0.0711  0.1052
20117W        W35586   6.096  12.959   0.517 -0.0047 -0.3799  0.1013
20118W        W35587   2.150   7.132  14.920  0.0297 -0.0550 -0.2438
20119W        W35588   5.357  12.123   2.000  0.0044  0.1502 -0.0250
20120W        W35589   3.524   3.466   0.252 -0.2783  0.1169  0.0478
20121W        W35590  13.980   3.687   1.916  0.0946  0.1470 -0.0409
20122W        W35591   3.502  14.902   0.144  0.2488 -0.2233  0.2401
20123W        W35592   3.574  16.226  12.533 -0.0705 -0.2100 -0.3298
20124W        W35593   8.988   5.669   5.498  0.1314 -0.0104 -0.1184
20125W        W35594   0.807  16.708   4.816 -0.0890  0.0985  0.0277
20126W        W35595  11.040   7.321   2.193  0.1173 -0.0000 -0.0197
20127W        W35596   7.666  13.990  12.711  0.1209  0.0934 -0.0441
20128W        W35597   1.006   8.935  12.835  0.3701 -0.1575 -0.0548
20129W        W35598   9.205   7.012  12.435 -0.3356 -0.3469 -0.2141
20130W        W35599  11.845   8.365  11.357 -0.1378  0.1215 -0.1497
20131W        W35600   6.098   7.446  11.866  0.0891  0.0133  0.1099
20132W        W35601  16.063  12.595   1.012 -0.1227  0.1480 -0.2025
20133W        W35602  17.313  17.368   1.780  0.1562  0.0439 -0.1667
20134W        W35603   2.731   2.942   1.338  0.2462 -0.1883  0.0930
20135W        W35604  10.327   7.311   4.899 -0.2795 -0.2003 -0.0754
20136W        W35605  14.456  10.219  14.237 -0.3373 -0.0984  0.0499
20137W        W35606   2.078   7.471  15.323 -0.2766 -0.0445  0.0980
20138W        W35607  13.192   0.652   0.852 -0.1700  0.0437  0.1686
20139W        W35608  10.728  15.673   4.021  0.0905  0.2139  0.0290
20140W        W35609   0.597  16.694   2.421  0.1753 -0.1274  0.0130
20141W        W35610  16.555  12.919  11.296  0.0871 -0.0671 -0.0941
20142W        W35611  11.315   9.698  11.102 -0.3398  0.2393  0.1610
20143W        W35612  10.279   1.494  13.539  0.1638 -0.0596  0.2595
20144W        W35613  12.073  17.622  12.180  0.0384  0.2653 -0.0885
20145W        W35614   0.570  13.976  13.192  0.2876 -0.0252  0.1144
20146W        W35615   9.969  10.374   0.425  0.0024 -0.0574  0.0791
20147W        W35616  13.488   2.422  13.936 -0.0841 -0.0661  0.0941
20148W        W35617   7.053   1.475  15.373 -0.0464  0.1115  0.0268
20149W        W35618   8.759   7.772   5.693 -0.1557  0.0401  0.0629
20150W        W35619   1.896   6.414  14.649  0.1575  0.4282 -0.0676
20151W        W35620  16.719  11.926   0.569 -0.2103  0.1178 -0.1281
20152W        W35621  11.679  10.119   5.136 -0.2852  0.0305  0.2111
20153W        W35622  12.452  14.520   5.423 -0.1013 -0.2531 -0.2525
20154W        W35623  13.885  14.815  12.879  0.2666 -0.2456  0.1282
20155W        W35624  17.685  17.376   2.828 -0.0776 -0.4004 -0.0608
20156W        W35625  12.342  15.081  14.740  0.1369  0.1660 -0.2384
20157W        W35626  10.397   0.693   5.577 -0.2297  0.0995  0.2513
20158W        W35627   4.483   2.544  11.550  0.0345  0.1217 -0.2443
20159W        W35628   5.369   1.456   2.093  0.2190 -0.0411 -0.0122
20160W        W35629  16.636  14.865   0.917 -0.2518 -0.1089 -0.0039
20161W        W35630  17.704   0.658  12.990 -0.1609  0.0638 -0.0401
20162W        W35631   9.589  12.631  14.212 -0.0144 -0.1046 -0.1025
20163W        W35632  13.742   4.146  15.227  0.2977  0.1869 -0.0039
20164W        W35633   9.143  16.544  10.885  0.0346  0.0689 -0.0329
20165W        W35634  15.867  14.304   1.279 -0.2139 -0.0638 -0.0339
20166W        W35635  12.947  15.136  15.127 -0.1911 -0.1358  0.1044
20167W        W35636  17.650  14.017  14.665  0.1779 -0.1954  0.2316
20168W        W35637  13.266   3.597  13.893  0.0181 -0.2586 -0.0711
20169W        W35638   7.439   6.312  14.412 -0.2396  0.0055  0.1510
20170W        W35639  12.615  10.059   5.483 -0.3517  0.1022  0.3913
20171W        W35640   2.395  15.329   2.963 -0.1441  0.1433 -0.0983
20172W        W35641   6.104   9.097   1.455  0.1266  0.0886 -0.0317
20173W        W35642   7.027   6.093   0.841  0.0646 -0.0489 -0.0912
20174W        W35643   8.975  16.311   6.194 -0.0812 -0.3630  0.3881
20175W        W35644   3.024  13.854  11.761  0.0697 -0.3068 -0.0886
20176W        W35645  14.945   7.429   2.650 -0.0459  0.1720 -0.3593
20177W        W35646   4.394  15.207   4.077  0.2320  0.0427  0.0180
20178W        W35647  12.813  11.314   3.504  0.1355  0.4001  0.2220
20179W        W35648   0.126  11.015   5.493 -0.4566  0.1007  0.2749
20180W        W35649  13.090  13.344  15.105 -0.1532  0.2778 -0.0847
20181W        W35650  11.714   2.590  13.961 -0.3151  0.2096  0.1795
20182W        W35651   7.348   9.428   2.679 -0.0806 -0.0490  0.3540
20183W        W35652  17.104  17.943  14.418  0.0179  0.0970  0.0497
20184W        W35653   1.498   0.437  14.188  0.0504  0.1170  0.2915
20185W        W35654  16.798   8.972   3.659  0.1320  0.0071 -0.2621
20186W        W35655   6.441  10.864  12.533  0.0407 -0.2070  0.0258
20187W        W35656   3.294  13.549   4.725  0.0496  0.3199  0.1676
20188W        W35657   9.391  12.757  15.899 -0.1214  0.1996 -0.0617
20189W        W35658  16.233   4.556   2.154 -0.1701  0.1284  0.0958
20190W        W35659   9.768   6.011   2.556  0.1361  0.1758  0.0715
20191W        W35660   1.306   3.372  13.695  0.2351 -0.0973 -0.3258
20192W        W35661  16.270   1.773   1.479  0.1285  0.2059 -0.1492
20193W        W35662  12.732  15.129  13.968 -0.2065 -0.0494  0.0102
20194W        W35663  17.960   3.707   2.182  0.0600 -0.0060 -0.0012
20195W        W35664   9.608   9.364   4.766  0.1162  0.1634  0.2146
20196W        W35665   8.709   3.935   0.475  0.0113 -0.1168  0.3527
20197W        W35666   3.718  14.238  14.726  0.3197 -0.1131 -0.1517
20198W        W35667   8.969   4.226   5.990  0.0420  0.2571 -0.0695
20199W        W35668  10.688   2.724  14.272  0.1651 -0.1731  0.0380
20200W        W35669   4.181  11.496   0.024  0.0564 -0.4105  0.0267
20201W        W35670   6.276   9.265  15.750 -0.2685 -0.0510 -0.3225
20202W        W35671   2.093  17.776  15.401 -0.2305  0.1200  0.1361
20203W        W35672   5.859   0.868   5.904  0.1236 -0.0613  0.0224
20204W        W35673  12.431  13.893  14.399  0.2621  0.4324  0.1058
20205W        W35674   1.015  16.135  13.317 -0.2648 -0.1079  0.1163
20206W        W35675  11.412   9.538  16.059  0.1247  0.0340 -0.1568
20207W        W35676   1.578  13.986   1.392 -0.1033  0.0535 -0.2082
20208W        W35677   2.903   1.360  12.274  0.1390 -0.0191  0.4317
20209W        W35678   6.227  12.453   0.423  0.2943  0.1647  0.0622
20210W        W35679  12.225  16.657  12.678  0.0215  0.3085 -0.1433
20211W        W35680  11.771  13.807   3.100  0.3549 -0.0618  0.0260
20212W        W35681   9.359  17.790  13.823  0.1981 -0.0242 -0.2027
20213W        W35682  10.805  17.061   4.549  0.0181 -0.1312 -0.0529
20214W        W35683  12.119   1.106   4.003 -0.0512  0.0257 -0.4209
20215W        W35684   0.746  12.184   5.447  0.0623  0.0198 -0.0430
20216W        W35685  13.790   2.734  15.904  0.2536  0.3681  0.0518
20217W        W35686   2.834   6.877   5.866 -0.1969 -0.2902  0.2436
20218W        W35687   4.352   0.721  14.801 -0.2550  0.3523  0.3722
20219W        W35688  10.605  17.102  15.544 -0.0653  0.0211 -0.3195
20220W        W35689  11.124   2.866   1.759 -0.0845  0.1269 -0.0787
20221W        W35690  13.607   5.557   5.157  0.2000 -0.0696 -0.2202
20222W        W35691  12.456   5.209   1.627  0.0304 -0.1180 -0.0987
20223W        W35692  14.401  14.477  12.047  0.0931 -0.0194  0.1651
20224W        W35693   8.630   1.638  11.688 -0.1112  0.0765  0.2082
20225W        W35694   9.104   0.605   2.231 -0.0177 -0.1717  0.1528
20226W        W35695  15.648   5.369   4.985 -0.1058 -0.0050  0.0719
20227W        W35696  13.273   2.635  13.115  0.0631 -0.0157 -0.2303
20228W        W35697  11.303   5.007  11.227  0.2432 -0.0060  0.1699
20229W        W35698   8.089   2.562  14.926  0.2355  0.2985 -0.2673
20230W        W35699   8.119  15.194   2.940  0.3030  0.1272 -0.1681
20231W        W35700   8.255   9.735   4.480 -0.3319 -0.1841  0.2609
20232W        W35701   0.107   7.734  14.816  0.0203  0.1045 -0.0257
20233W        W35702  17.121  15.212  14.855 -0.0634  0.0186  0.4192
20234W        W35703   6.172   0.627   3.517 -0.0315  0.0379 -0.5089
20235W        W35704   7.093   8.085   1.398 -0.0523  0.0596 -0.1527
20236W        W35705  13.257  11.559  11.893 -0.0293  0.0558 -0.0452
20237W        W35706   2.866  10.748  13.107 -0.0031  0.0857  0.0070
20238W        W35707   0.550   3.952  14.131  0.0800  0.1221 -0.3231
20239W        W35708   7.359   9.132   3.161 -0.1964  0.4440 -0.0752
20240W        W35709   4.553   5.153  12.095 -0.1190  0.0050 -0.1038
20241W        W35710  13.421  15.604   4.357  0.1255 -0.0627  0.1639
20242W        W35711  15.772  13.009  12.373  0.0409 -0.0057 -0.1419
20243W        W35712  13.119   7.920  11.264 -0.0692 -0.1886  0.0069
20244W        W35713  13.799   8.529  12.416 -0.2196 -0.1764 -0.0602
20245W        W35714   1.103   1.637  11.032  0.0152  0.0115  0.2080
20246W        W35715  12.870  12.428  11.823 -0.1636  0.4137 -0.1896
20247W        W35716  13.942  14.582   2.218 -0.2188 -0.2375  0.3009
20248W        W35717   7.176   7.224   4.179  0.3958  0.2650 -0.2660
20249W        W35718  14.937   1.932   4.384  0.0316 -0.0747 -0.0228
20250W        W35719  13.516  15.138  14.410  0.2023  0.2217 -0.1604
20251W        W35720  16.744  10.741  11.245 -0.0776  0.1190 -0.0769
20252W        W35721   1.259   3.358  15.425  0.2087 -0.0199 -0.1303
20253W        W35722   6.415  13.396  11.758 -0.1611 -0.1743  0.2991
20254W        W35723  12.992   7.329   5.678 -0.1813 -0.2263 -0.1899
20255W        W35724   8.848  12.411   0.601 -0.1123  0.2867 -0.1554
20256W        W35725   7.515   8.519  14.288  0.2574 -0.1547  0.2602
20257W        W35726  12.225   0.075  14.119  0.1484 -0.1447 -0.2252
20258W        W35727  14.877  11.334   0.617 -0.0834 -0.0763  0.1392
20259W        W35728  10.936  17.081  14.471  0.0710 -0.0244 -0.2506
20260W        W35729  10.457  10.741  15.713 -0.1428 -0.0422  0.0760
20261W        W35730   9.517   8.935   4.506 -0.1769  0.3230  0.0563
20262W        W35731   6.551  14.618   1.208  0.2575 -0.4197 -0.0951
20263W        W35732  10.031  16.391   4.755 -0.1779 -0.1085 -0.1303
20264W        W35733  11.943  11.232  13.859 -0.1520  0.0029  0.0462
20265W        W35734   9.162   6.228   3.282 -0.0311 -0.1455  0.4448
20266W        W35735   7.772  11.933  10.764 -0.2240 -0.0258  0.0324
20267W        W35736   3.858   0.075  11.772 -0.0954  0.0615  0.0815
20268W        W35737   8.726  17.036  12.850  0.1683  0.0810 -0.0421
20269W        W35738  11.656   8.508   3.977 -0.0707  0.0599  0.3121
20270W        W35739   4.940  14.587  12.253  0.0723  0.0609  0.1110
20271W        W35740  13.742   6.419   2.747  0.3419 -0.2058 -0.0628
20272W        W35741   8.917   0.280  14.444 -0.1482 -0.0923 -0.0058
20273W        W35742   7.290  16.431  12.428  0.0269 -0.1620  0.0843
20274W        W35743   1.756  17.272   5.462 -0.1918  0.0039 -0.0980
20275W        W35744   4.633  11.484   2.285 -0.1830 -0.1280 -0.2827
20276W        W35745   7.193  12.754   9.905  0.2402 -0.2326 -0.1769
20277W        W35746  14.235  16.368  11.917 -0.0524 -0.2684 -0.2127
20278W        W35747   3.034   8.050   1.017 -0.1011  0.2670  0.0081
20279W        W35748  13.245   7.557   0.868  0.1090 -0.1438  0.0088
20280W        W35749   6.380  16.123  12.453  0.1387 -0.0815  0.1500
20281W        W35750   2.948   7.530   0.265  0.1334 -0.4335 -0.0621
20282W        W35751  11.952   9.001   4.975  0.1994  0.0085 -0.2100
20283W        W35752   7.696   3.446  12.881  0.2186  0.0126 -0.2950
20284W        W35753  10.433   7.017  13.748  0.1895 -0.0381  0.1288
20285W        W35754   1.176  16.347   3.624 -0.0522  0.0557 -0.0593
20286W        W35755   6.821  15.345  15.403  0.3890  0.2065  0.3501
20287W        W35756   7.521   9.803   5.865  0.0799  0.4350  0.1753
20288W        W35757  13.670  15.659   1.029  0.1572  0.0118 -0.1032
20289W        W35758  15.702  15.763  15.052  0.0305 -0.2050  0.2066
20290W        W35759   4.840  11.228  15.153  0.2150  0.3249  0.0736
20291W        W35760  10.139   8.731   6.063  0.3797  0.1268  0.0653
20292W        W35761   5.572   6.560   2.513 -0.0796 -0.0132 -0.2342
20293W        W35762   5.737   9.665  14.161 -0.0338  0.0670 -0.0375
20294W        W35763  15.483   3.253  14.188 -0.0997  0.0315  0.2252
20295W        W35764  11.816   7.177   0.201 -0.1503  0.1686 -0.0534
20296W        W35765   8.956   4.438   5.420  0.0729  0.4109  0.5106
20297W        W35766  12.550   0.303  13.797  0.1927  0.1344 -0.0429
20298W        W35767  11.548  16.644   2.667  0.0284 -0.2116  0.0637
20299W        W35768  15.266  14.985  15.345  0.1359 -0.1808  0.1765
20300W        W35769   4.598   9.650  11.305  0.2438  0.0333  0.0365
20301W        W35770   5.057   3.692  16.063 -0.1891  0.1348  0.0848
20302W        W35771  11.152   7.908  12.913 -0.2405  0.2219 -0.0447
20303W        W35772   4.555   0.243  11.054 -0.3647  0.2523 -0.0903
20304W        W35773  17.331  10.800  15.580 -0.1181 -0.0501 -0.2767
20305W        W35774   7.372   5.808   1.813  0.1054  0.4520 -0.1262
20306W        W35775   6.434   2.598   0.283 -0.4559 -0.1214  0.2427
20307W        W35776   5.520  15.505  15.227  0.1078  0.1353  0.1343
20308W        W35777   9.847   1.574   0.890 -0.0338  0.1442 -0.2407
20309W        W35778  12.779   5.744  13.362 -0.1067 -0.2969 -0.1834
20310W        W35779   9.096   7.121  13.822  0.2364 -0.1110 -0.0347
20311W        W35780  11.534   7.114   3.430  0.1028 -0.0876 -0.2076
20312W        W35781  18.030   5.630  14.839  0.1503  0.0275  0.0940
20313W        W35782  10.337   1.252  16.032 -0.1103 -0.0726 -0.2218
20314W        W35783  10.222   2.368  12.669  0.0949  0.3885 -0.0433
20315W        W35784   1.232   8.918   0.026  0.0368  0.4189 -0.1471
20316W        W35785  14.167  18.017   5.550  0.0227 -0.3363  0.1622
20317W        W35786   4.280   0.822   3.025 -0.1867 -0.3638  0.1535
20318W        W35787   2.610  10.825   0.992 -0.3327  0.2332  0.1464
20319W        W35788   9.232   8.004   4.440 -0.0436 -0.1438 -0.2343
20320W        W35789   7.887   5.194  12.198 -0.0925  0.2547  0.2132
20321W        W35790   6.272  12.129  13.763 -0.2034 -0.0921  0.0541
20322W        W35791   5.244  14.009   2.039 -0.3419  0.1066  0.1130
20323W        W35792   3.072  11.426  15.449 -0.1623 -0.2739 -0.1261
20324W        W35793   2.859   7.959  11.266  0.2567  0.1764 -0.3803
20325W        W35794  14.942   7.331  14.302 -0.4543  0.0613 -0.0015
20326W        W35795   2.940  14.848  12.262 -0.0862 -0.1248 -0.2732
20327W        W35796  12.655  12.354   5.678  0.2857 -0.1837  0.3972
20328W        W35797  10.162   1.925   3.734  0.0161  0.0416 -0.3385
20329W        W35798   2.915  11.901   2.785  0.1537 -0.4230  0.1641
20330W        W35799  17.617   3.333  10.893  0.3197  0.1815 -0.1836
20331W        W35800   4.439  14.393  12.267 -0.0134  0.0700  0.0846
20332W        W35801   6.785   0.677  14.835 -0.2303  0.1787 -0.0658
20333W        W35802   2.515  16.196   5.009  0.0532 -0.0661  0.2377
20334W        W35803  16.450  16.537   2.223 -0.2282 -0.0788 -0.0143
20335W        W35804  17.652  17.117   3.482 -0.1159  0.1483 -0.1579
20336W        W35805   0.375  17.944  11.018  0.2007  0.2161 -0.2659
20337W        W35806  15.629   5.441  16.108  0.0529 -0.0922  0.0510
20338W        W35807   6.082  11.266   2.203  0.1404  0.0380  0.0261
20339W        W35808   8.381  11.634  12.654 -0.2175  0.1787  0.3249
20340W        W35809   8.496   9.876  15.083  0.1750 -0.0452 -0.0910
20341W        W35810   5.953   2.330  11.381  0.2236  0.1200  0.0389
20342W        W35811   8.475   6.381  14.276  0.1047 -0.1883 -0.1157
20343W        W35812   2.747   2.129  15.698  0.2789 -0.1519  0.1381
20344W        W35813   2.121   9.094  13.385 -0.1240 -0.1124 -0.0044
20345W        W35814  13.693   0.184   0.238  0.0936 -0.6018  0.0669
20346W        W35815   5.158   0.910   5.538  0.0083 -0.0198 -0.0345
20347W        W35816  11.854   5.696   0.326 -0.0204 -0.0904 -0.0833
20348W        W35817  14.785  12.056  11.387  0.0368 -0.2924  0.1397
20349W        W35818  12.471   9.363   2.687 -0.1018 -0.0624  0.1737
20350W        W35819  12.807   0.455  15.498 -0.3280 -0.3684 -0.0335
20351W        W35820   9.504   4.267  12.504 -0.0631  0.0149 -0.0802
20352W        W35821  11.517   2.565  12.869  0.0263 -0.1126 -0.2572
20353W        W35822  10.341  17.641  14.895 -0.3317 -0.3289 -0.0268
20354W        W35823   2.210  16.377  12.274  0.3483 -0.0342 -0.0412
20355W        W35824   3.098   3.456   4.899 -0.2610  0.0775  0.1517
20356W        W35825   3.240   2.917   1.365 -0.2087  0.0294 -0.2131
20357W        W35826   2.825  17.626  12.093 -0.0205  0.3686 -0.0092
20358W        W35827   9.432   8.254   1.454  0.2164  0.1640  0.3065
20359W        W35828   9.588   0.089  16.064 -0.0617 -0.1905 -0.2647
20360W        W35829  11.867  12.112   0.060  0.0425 -0.0427  0.1067
20361W        W35830  10.473  11.460   0.145 -0.1650 -0.0307  0.1282
20362W        W35831   7.948  15.693   2.810  0.0786 -0.2570  0.1612
20363W        W35832  14.960  10.785  15.349 -0.1972 -0.1050 -0.1531
20364W        W35833   2.157   0.702   0.619 -0.2548 -0.0080  0.1247
20365W        W35834   7.117  15.214  13.078 -0.2071  0.0845  0.3017
20366W        W35835   7.071  13.826   0.821 -0.0513 -0.0999  0.3350
20367W        W35836  10.758   1.653   5.553  0.0667  0.2696 -0.1391
20368W        W35837  14.293   2.708   3.447  0.0456  0.0324 -0.2424
20369W        W35838  13.793   5.999  11.603 -0.1984 -0.1056 -0.2377
20370W        W35839   3.819  10.120  13.620 -0.0232  0.0186  0.0400
20371W        W35840   5.601   6.437  10.598 -0.1899  0.0777 -0.0318
20372W        W35841   7.337  10.578  14.454  0.2811  0.2126 -0.2552
20373W        W35842   4.462   2.649  14.030 -0.0027  0.0568 -0.3738
20374W        W35843  13.782   4.977   2.161 -0.2051 -0.0701 -0.2056
20375W        W35844   5.632   0.794  16.011  0.3232  0.1820 -0.1311
20376W        W35845   3.131  14.893  13.408  0.3827 -0.0730  0.2238
20377W        W35846   6.265   8.668   1.297  0.1317 -0.0560  0.0085
20378W        W35847   4.377   7.259  15.915  0.1710 -0.1737  0.1572
20379W        W35848   3.655   8.667   4.421 -0.0898  0.2711 -0.1603
20380W        W35849  12.065   2.900  16.100  0.0865 -0.1056  0.1487
20381W        W35850  15.492   6.625  15.316 -0.0431 -0.3742 -0.3096
20382W        W35851  17.761   8.232  13.136 -0.1749 -0.4362  0.1748
20383W        W35852   5.630  11.631   4.734 -0.1030  0.3196  0.1445
20384W        W35853   1.743   2.699   3.744  0.2882  0.2511 -0.1710
20385W        W35854   2.618  16.399   0.776 -0.0931  0.1215 -0.0493
20386W        W35855   7.372  10.576  11.455  0.2026 -0.0901 -0.2308
20387W        W35856  16.981  16.062   0.460 -0.0089 -0.2318  0.1759
20388W        W35857   2.628  10.818  14.930  0.0207 -0.0026  0.2502
20389W        W35858  11.955  13.995   4.548  0.1283  0.2174  0.1813
20390W        W35859   2.875   6.755   4.436  0.0674 -0.1317  0.0729
20391W        W35860   7.701   7.551  15.120  0.1898 -0.0248 -0.0097
20392W        W35861   6.566   0.127  16.052  0.2527 -0.1062  0.1595
20393W        W35862   2.760   9.567   5.687  0.1860  0.1313 -0.0659
20394W        W35863  17.706   6.027   1.656  0.2507 -0.1484 -0.3512
20395W        W35864  12.731  10.805   5.030  0.2178 -0.2212 -0.1146
20396W        W35865  10.541  12.347  12.248 -0.0009  0.1141  0.1129
20397W        W35866  13.791  15.293  10.907  0.1189  0.0941 -0.1518
20398W        W35867   7.463   3.551  16.278 -0.0114 -0.3354 -0.0006
20399W        W35868   8.206   5.832  12.981  0.1117  0.1861  0.2910
20400W        W35869   9.758   2.797   2.714 -0.2458  0.1122 -0.1094
20401W        W35870  14.986  12.417  12.285 -0.0838  0.2628 -0.0853
20402W        W35871  11.896  16.537   1.879  0.0751 -0.0982  0.1680
20403W        W35872   9.709   7.493   1.344  0.6184 -0.0294 -0.0103
20404W        W35873  12.924   2.822   1.633  0.2686 -0.0649  0.2367
20405W        W35874   1.175   8.739   2.427  0.0302 -0.3392 -0.0840
20406W        W35875  10.594   4.398  14.577 -0.2196 -0.1441 -0.0382
20407W        W35876   9.757   4.145   5.600 -0.0317 -0.1237  0.1021
20408W        W35877   1.601   9.069  16.040  0.1315  0.1120  0.3078
20409W        W35878   7.308   4.949   0.447 -0.2547  0.2502 -0.2114
20410W        W35879   1.910   9.326  13.942  0.1597 -0.1064  0.0203
20411W        W35880  12.131   6.896  12.668  0.0361  0.2438 -0.2147
20412W        W35881  15.662  14.989   2.005 -0.1290  0.2493 -0.1167
20413W        W35882  11.517  15.577  15.036  0.1664 -0.2355 -0.1637
20414W        W35883  13.641   0.537   6.192 -0.0872 -0.0372 -0.0116
20415W        W35884   6.926   5.805   5.086  0.3310  0.0766  0.1665
20416W        W35885   8.211  10.852  13.125  0.2312  0.0939  0.2397
20417W        W35886  15.437  12.842   3.218  0.0077 -0.0427 -0.0325
20418W        W35887   6.497   6.504   5.743  0.0437  0.0651 -0.1857
20419W        W35888   2.026   9.334  15.917 -0.1144  0.0374 -0.0765
20420W        W35889   0.310   9.599   2.303 -0.0732 -0.1804 -0.0223
20421W        W35890  14.890   9.386   5.237 -0.1347  0.0755  0.0549
20422W        W35891   9.990   6.482  12.369  0.1422  0.0808 -0.2346
20423W        W35892  11.600   8.486  14.460 -0.1044  0.2788 -0.0279
20424W        W35893  17.472  13.317  13.847  0.1479 -0.1670 -0.0943
20425W        W35894  14.588  16.324  14.915 -0.1719 -0.1387  0.1621
20426W        W35895   1.053   9.415   4.207 -0.1740 -0.0877  0.0054
20427W        W35896  16.088  17.495   4.300  0.0792 -0.2434  0.0446
20428W        W35897  11.994  15.744  12.940  0.2563  0.0345  0.0810
20429W        W35898   9.970   5.038   6.709  0.3127 -0.4645  0.0790
20430W        W35899   3.695   7.172  15.228  0.1582 -0.0622 -0.2429
20431W        W35900   7.162   9.333  13.844 -0.1035  0.0522 -0.4904
20432W        W35901  12.431   9.896   0.974  0.0268 -0.1944  0.2880
20433W        W35902  13.448  13.560   0.966  0.0571  0.0061  0.1036
20434W        W35903  10.501   4.041   1.658  0.0701  0.0323  0.0511
20435W        W35904   5.985  10.307   0.250 -0.0173  0.2390  0.2732
20436W        W35905   9.949  15.214   1.734  0.3328  0.2522  0.0896
20437W        W35906  14.165   3.295   1.032  0.1336 -0.1755  0.0519
20438W        W35907  13.822   8.328   4.863  0.0873 -0.1931 -0.1783
20439W        W35908  13.100  16.028   4.708 -0.0861 -0.0164  0.2263
20440W        W35909   0.947   4.408  13.947  0.2797  0.0044  0.1385
20441W        W35910  15.447   1.258  14.609  0.1256 -0.3938  0.0850
20442W        W35911  12.918   0.025   1.515 -0.0325 -0.1560  0.1200
20443W        W35912  12.383  10.573  15.032  0.0440  0.2563  0.0824
20444W        W35913   2.446  14.365   1.909  0.0066  0.1226 -0.2764
20445W        W35914  10.813  12.052  13.869  0.0984  0.1287 -0.1784
20446W        W35915   8.631  18.086   0.285  0.0733 -0.1269  0.1819
20447W        W35916   9.662   9.500   1.084 -0.0126  0.1137 -0.1756
20448W        W35917   8.892  11.925  14.135 -0.1809  0.0979  0.2128
20449W        W35918   8.499   8.965   4.554  0.0730 -0.1729  0.1552
20450W        W35919   8.824   6.831   5.743  0.2664  0.4804  0.1847
20451W        W35920   4.623  12.278   4.908  0.1269  0.2236  0.1349
20452W        W35921  13.312  17.051   3.838 -0.1350 -0.1744  0.2049
20453W        W35922   5.235   9.410  15.653  0.1287  0.1090 -0.0867
20454W        W35923   8.072   5.921  12.182  0.1096 -0.1808 -0.0361
20455W        W35924  14.836   5.576   2.297  0.1459  0.2086 -0.0511
20456W        W35925   9.001   1.207   2.323 -0.1746 -0.1097  0.1904
20457W        W35926  14.388   4.545  15.756 -0.2046  0.2023 -0.0297
20458W        W35927   8.884   5.399   0.071 -0.0355 -0.1163  0.2134
20459W        W35928  12.792   2.988  11.458 -0.1204 -0.0751  0.2633
20460W        W35929   5.948   7.624  11.200  0.0192  0.1903 -0.0765
20461W        W35930  11.937  12.649  15.540  0.0568 -0.2469  0.0899
20462W        W35931  16.885  11.067   1.106  0.0917  0.0152  0.0142
20463W        W35932   4.563   5.965   3.135  0.0806  0.1055  0.0463
20464W        W35933  14.401   9.846   5.752 -0.0184  0.1437  0.3006
20465W        W35934   9.966   0.738   3.920 -0.2720 -0.1271  0.0196
20466W        W35935   3.761   6.156  13.089 -0.1218 -0.0159  0.2347
20467W        W35936  18.040  13.195   4.997 -0.2325 -0.0115  0.0065
20468W        W35937  13.696   9.719   2.797 -0.2690  0.1574  0.0379
20469W        W35938   0.666  16.273   4.683  0.0823  0.1196 -0.1168
20470W        W35939  11.245   4.526   1.001  0.0498  0.0976 -0.1064
20471W        W35940  11.440  17.063  13.648  0.0027 -0.1816  0.0382
20472W        W35941   9.127  12.006  14.658  0.4352 -0.0122 -0.3106
20473W        W35942  12.348   8.744  12.503 -0.3327 -0.1106 -0.1131
20474W        W35943   9.228  10.746   5.707 -0.2078 -0.0757 -0.1708
20475W        W35944   7.416  13.184   4.044 -0.0196 -0.1269 -0.1844
20476W        W35945   1.995   8.866  13.819 -0.0591  0.0765  0.0670
20477W        W35946   3.403  15.425  13.871  0.0090  0.0394 -0.1532
20478W        W35947  15.892  11.326   4.840 -0.3772 -0.0222 -0.0343
20479W        W35948   8.736   2.794  13.591 -0.0367 -0.1317 -0.2381
20480W        W35949   6.533  10.501  10.911  0.1425  0.2714  0.2621
20481W        W35950  12.675   9.311   4.761 -0.0494  0.0209 -0.2017
20482W        W35951   9.123   4.279  14.224 -0.2471 -0.3326  0.0538
20483W        W35952  12.706  10.465   0.478  0.2145  0.3111  0.0411
20484W        W35953  12.478   3.554  15.675  0.1165  0.0543 -0.2923
20485W        W35954  10.275  17.761  12.673 -0.1044  0.3917  0.0067
20486W        W35955  13.121  15.945  10.896  0.0072  0.0021 -0.1435
20487W        W35956   8.894   8.446   1.215 -0.0280 -0.1077 -0.0978
20488W        W35957  12.636   0.018  12.932 -0.0257  0.1138  0.2290
20489W        W35958  12.805   3.283   2.881 -0.0793 -0.0675  0.1060
20490W        W35959   3.717   8.377   3.109 -0.1560  0.2574 -0.2204
20491W        W35960  12.888   5.945  11.353  0.1401  0.1330 -0.0966
20492W        W35961   7.856   4.026   3.669 -0.2123 -0.2326 -0.0398
20493W        W35962   1.951   7.366  16.128 -0.1457 -0.0878 -0.2732
20494W        W35963  15.695  15.943  14.547 -0.0628  0.1315  0.0493
20495W        W35964  13.991   0.892  15.005  0.0015 -0.1173 -0.1050
20496W        W35965   9.495   1.580  14.071 -0.3682 -0.0851 -0.3201
20497W        W35966  13.132   3.728   2.219  0.1052 -0.0891  0.1637
20498W        W35967  12.781   3.655  13.684 -0.0506  0.2169  0.3152
20499W        W35968   3.967   1.634  16.054  0.0204  0.2633 -0.0078
20500W        W35969   2.779  12.963  15.585  0.1519  0.3095  0.1556
20501W        W35970  14.571   4.492  11.970  0.1296  0.2215  0.0209
20502W        W35971  10.433   2.738   5.012 -0.1591 -0.1794 -0.1123
20503W        W35972  10.151   6.152  12.767 -0.1139 -0.0499  0.1358
20504W        W35973   3.097  17.495  15.401  0.0931 -0.0259  0.0992
20505W        W35974  11.468   6.104   2.371  0.0401 -0.0750  0.1251
20506W        W35975  15.499   8.475   2.922  0.1298 -0.1675 -0.0099
20507W        W35976   1.899  17.119   3.944  0.2113 -0.1792 -0.1871
20508W        W35977  12.044   2.501   4.098  0.3326 -0.2180 -0.0127
20509W        W35978  12.399   3.524   3.673  0.0061 -0.1044  0.1585
20510W        W35979  12.177   8.741   5.906  0.1768 -0.0152 -0.2201
20511W        W35980  11.335  10.741  11.847 -0.0402 -0.3232  0.1684
20512W        W35981   7.806  16.981   2.845  0.3385 -0.1215 -0.2856
20513W        W35982  11.419   8.203  14.909  0.0466 -0.3037 -0.1518
20514W        W35983   6.014  14.931  14.416  0.0381 -0.0476  0.0156
20515W        W35984   4.470  16.736   5.496 -0.0386 -0.0556 -0.2137
20516W        W35985   0.412  15.782  12.602  0.1048  0.4970  0.3203
20517W        W35986   3.361  10.389   0.918  0.0438 -0.1050  0.1382
20518W        W35987   4.632   8.581  10.378  0.2222 -0.2475  0.0728
20519W        W35988   6.855  17.071   5.615  0.0160 -0.1133  0.1447
20520W        W35989  15.469   3.585   6.680 -0.0765 -0.1474  0.0523
20521W        W35990  17.739  14.856   5.764  0.0697  0.0534 -0.0726
20522W        W35991  15.230  14.374  11.907 -0.2446 -0.1973  0.0993
20523W        W35992   2.989   4.902  15.597  0.0290 -0.2118 -0.0031
20524W        W35993  10.705   1.806   1.279 -0.4547 -0.1551  0.0887
20525W        W35994  12.346   5.446   1.158  0.0171 -0.1173 -0.4592
20526W        W35995  16.299   0.648   2.000 -0.0654 -0.0468 -0.0300
20527W        W35996   5.135   0.187   5.816  0.2830 -0.1181 -0.0371
20528W        W35997  10.216  11.046  15.162 -0.0720  0.2581  0.3695
20529W        W35998  16.933  12.355   0.713 -0.0547 -0.0427 -0.0585
20530W        W35999   5.108  12.626  15.656 -0.0337  0.0929 -0.1455
20531W        W36000   1.265   6.578  13.677 -0.2710 -0.2612  0.2325
20532W        W36001  15.394   5.728   0.812  0.0244 -0.0215 -0.0502
20533W        W36002  14.582   3.564   3.898 -0.1507  0.2116 -0.0434
20534W        W36003   9.962  12.957  13.072  0.0910  0.0954  0.0918
20535W        W36004  12.903  15.077  11.893 -0.0979  0.0745  0.0663
20536W        W36005  17.110  12.784   0.195  0.1241  0.0718 -0.0746
20537W        W36006  15.721   0.044  15.873  0.2175  0.1005 -0.3978
20538W        W36007  17.907  17.147   2.466 -0.1634  0.0419  0.0597
20539W        W36008   4.419   3.507  14.487 -0.1154 -0.0093  0.2377
20540W        W36009   1.640   5.227  12.755  0.0817 -0.1135  0.1590
20541W        W36010  17.355   5.038  14.430  0.0494 -0.0119  0.0701
20542W        W36011   5.206   5.445  14.529 -0.0360 -0.2118  0.0280
20543W        W36012  17.749  14.123  16.149  0.0204  0.2190  0.4045
20544W        W36013  11.199   6.165  12.969 -0.0627 -0.1021 -0.1458
20545W        W36014   5.964   2.323   5.351 -0.2040  0.3647 -0.0076
20546W        W36015   1.912   0.386   3.621  0.1984  0.5295 -0.0078
20547W        W36016   9.600   0.603   1.956  0.2246 -0.1614  0.2029
20548W        W36017  13.308   6.048   5.376  0.0542 -0.1862 -0.0085
20549W        W36018   7.135   2.994   2.479  0.3536 -0.2738 -0.2028
20550W        W36019   9.231   6.536   5.802 -0.2013  0.0035  0.1903
20551W        W36020   4.398   0.022  16.316 -0.0890  0.4528 -0.2125
20552W        W36021   5.426   6.214   2.894  0.0541 -0.2043  0.1047
20553W        W36022   8.336  10.654   3.793  0.1314 -0.0743  0.2847
20554W        W36023   9.324  13.199   4.253 -0.1452  0.0768 -0.2460
20555W        W36024   2.693   7.541  16.158 -0.1517 -0.3133  0.3780
20556W        W36025   7.330   8.500   0.573 -0.1063 -0.1266  0.1956
20557W        W36026  11.947  13.835   1.004  0.2207 -0.1071  0.0338
20558W        W36027  11.840  16.625  12.337 -0.1816  0.0261  0.0806
20559W        W36028   2.597   0.790   3.259  0.1069  0.0163  0.2562
20560W        W36029  17.527  10.575  11.823 -0.2607  0.1084 -0.5146
20561W        W36030   9.611   0.904   1.007 -0.2453  0.2075  0.2259
20562W        W36031   3.233   0.958   5.543 -0.2129  0.0829  0.0769
20563W        W36032  16.628  10.441  12.343 -0.0302 -0.1318  0.0499
20564W        W36033  14.677   5.106   2.656  0.0339  0.1909 -0.0592
20565W        W36034   2.251   1.168   3.224  0.1105 -0.1488  0.1449
20566W        W36035   7.165  11.461   1.792 -0.0617 -0.1095  0.1168
20567W        W36036  14.654  16.887   0.335 -0.1182  0.1672  0.1703
20568W        W36037   3.768   1.562   1.440 -0.1458 -0.1175  0.0021
20569W        W36038  10.419   0.653  15.904  0.0576  0.0889 -0.1176
20570W        W36039   0.872   2.643  14.141  0.0196 -0.1453 -0.0963
20571W        W36040  12.163   5.076   2.910  0.0317  0.0479  0.1319
20572W        W36041  12.203   9.208  12.932  0.2974 -0.2711  0.1846
20573W        W36042  16.562   5.957   1.128 -0.2061 -0.2682 -0.0752
20574W        W36043   8.262  11.141   5.859 -0.0964  0.1102 -0.2967
20575W        W36044   9.581  14.315  12.629  0.2830  0.2373  0.0936
20576W        W36045   4.211   3.736  12.002  0.0595  0.0270 -0.0888
20577W        W36046  14.259   4.238   1.200 -0.0158 -0.0632  0.2353
20578W        W36047   6.419  14.877   1.602  0.0969 -0.1409 -0.1946
20579W        W36048  11.414  18.022   2.193 -0.1886  0.0790  0.0091
20580W        W36049   7.467   6.446   2.484  0.0210 -0.2202  0.0187
20581W        W36050   8.189   7.611  14.993  0.0056 -0.0327 -0.0239
20582W        W36051   9.296   3.867   2.234  0.1098  0.1394  0.0991
20583W        W36052  12.323   5.438  15.420 -0.0068 -0.0220 -0.0273
20584W        W36053   5.000  10.818  14.771 -0.1292  0.0230 -0.3673
20585W        W36054  16.270  11.023  12.006  0.0606  0.1228 -0.1527
20586W        W36055  10.771  10.939  12.508 -0.1346 -0.2864  0.2290
20587W        W36056   6.276   5.762  11.219 -0.1993 -0.0967 -0.0184
20588W        W36057   5.275  16.998  12.816 -0.1573 -0.1732 -0.0883
20589W        W36058   5.490   1.774   0.590 -0.0551 -0.0476  0.3602
20590W        W36059  13.479   3.615  13.385  0.0663 -0.1188 -0.0217
20591W        W36060   0.878  10.679   0.815 -0.0720  0.1505 -0.0648
20592W        W36061   9.517   4.113  15.325  0.1664  0.0580  0.1127
20593W        W36062  11.420  10.067   3.441  0.0606  0.1950 -0.0817
20594W        W36063  16.039  11.109   2.701 -0.1404 -0.0565 -0.2372
20595W        W36064  10.043   2.694  15.898 -0.1536 -0.0281 -0.1762
20596W        W36065  16.845  12.572  14.682 -0.1331 -0.1544  0.2389
20597W        W36066  12.798   8.773  16.291 -0.1784  0.1174  0.1316
20598W        W36067  16.051   4.894   5.400  0.0084  0.1438  0.0428
20599W        W36068  10.029   4.805   0.111 -0.0485 -0.1090  0.3439
20600W        W36069  17.409   2.736  13.094  0.0634 -0.1033  0.2050
20601W        W36070  12.652   3.456  11.727  0.1930  0.1826 -0.1654
20602W        W36071   2.118  11.421  15.104  0.1450 -0.3337  0.2331
20603W        W36072  16.850   9.534  14.652 -0.1721  0.0359  0.1214
20604W        W36073   8.775  13.670   3.067 -0.2528  0.1826  0.2179
20605W        W36074  12.874  12.980   2.704 -0.2032  0.0695 -0.0089
20606W        W36075   4.425  13.421  11.838 -0.1834 -0.1196 -0.2263
20607W        W36076   5.589   0.075   4.100 -0.0276  0.3293  0.1689
20608W        W36077  17.409   6.193  14.887 -0.0934  0.2977  0.0677
20609W        W36078   8.038  17.406   2.769 -0.3418 -0.1079  0.0034
20610W        W36079  11.445   8.671   0.129 -0.2393  0.2470  0.2907
20611W        W36080   0.119  10.202  10.000  0.1319 -0.0657  0.1131
20612W        W36081  12.206   5.947  12.067  0.1113  0.1936  0.1223
20613W        W36082   4.647  16.293  10.805 -0.3071 -0.0092 -0.0488
20614W        W36083  17.299   5.077  12.537 -0.2033  0.0881 -0.0947
20615W        W36084   2.423  12.541  14.582  0.1328  0.4898 -0.0677
20616W        W36085   4.710  16.038  11.321  0.0067  0.0596 -0.0871
20617W        W36086  16.228  15.864   1.509  0.0493 -0.1650  0.0807
20618W        W36087  13.171  16.123  12.458  0.0130 -0.0191  0.0469
20619W        W36088   5.056   1.073  14.055  0.0799  0.0248 -0.0923
20620W        W36089   0.124  17.069  10.709 -0.2713  0.1168 -0.0716
20621W        W36090  12.689   4.649  13.645  0.0245  0.1408 -0.1702
20622W        W36091  14.370  15.841  15.592  0.1366  0.0489 -0.0115
20623W        W36092  11.731  16.534  14.909 -0.1578 -0.0265 -0.0814
20624W        W36093  11.704   7.578   1.634  0.3287 -0.0244  0.2298
20625W        W36094   1.589   4.986   4.329 -0.0348 -0.4455 -0.0643
20626W        W36095  10.449  15.789   5.655  0.0507  0.2975 -0.0974
20627W        W36096  14.953   3.976   3.243  0.1979 -0.2754  0.1942
20628W        W36097   2.145   0.503   1.409 -0.1956 -0.1110 -0.0341
20629W        W36098  13.996   5.631   3.795  0.0449  0.0302 -0.0439
20630W        W36099   8.136  13.286  12.222 -0.0808 -0.1566  0.0718
20631W        W36100   4.142   4.485   2.646  0.2419 -0.0586 -0.0751
20632W        W36101   1.941   7.567   5.382 -0.1474 -0.1895 -0.0330
20633W        W36102   5.905   9.715  10.707  0.1200 -0.2900 -0.2244
20634W        W36103   3.694   6.439   5.241  0.0080  0.2642  0.1516
20635W        W36104  12.459  15.233   2.870 -0.2519 -0.1028  0.1946
20636W        W36105  10.733  13.266  10.909 -0.2625  0.1529 -0.1373
20637W        W36106  15.480   6.818  11.686 -0.0858  0.0636  0.2054
20638W        W36107  12.284   2.139  14.488 -0.0016 -0.0493  0.0889
20639W        W36108  17.743  16.800  14.388 -0.1882 -0.0440  0.1660
20640W        W36109   5.464   2.198   3.479 -0.2991 -0.0701  0.3228
20641W        W36110   7.706  13.332  15.788  0.0549  0.0138  0.2471
20642W        W36111   2.750   4.891   4.573 -0.1969  0.1279 -0.0370
20643W        W36112  14.542  11.410  12.022  0.3767 -0.0538  0.1307
20644W        W36113   3.662  10.037  13.043  0.0153 -0.0671 -0.2378
20645W        W36114   3.876   3.200  10.951 -0.0172 -0.0706 -0.3159
20646W        W36115   7.156  12.793  14.616 -0.0614 -0.0717  0.0212
20647W        W36116  16.288  11.512  14.228  0.0965 -0.2231 -0.0109
20648W        W36117  12.273  10.078  16.159  0.2041  0.0741  0.0994
20649W        W36118  14.951   5.108   4.792  0.0344  0.0560  0.1098
20650W        W36119   8.430   5.393  15.835 -0.0919  0.0059  0.1157
20651W        W36120   3.948  17.778   0.390 -0.1544 -0.0910 -0.0141
20652W        W36121  15.890  15.492  15.811 -0.3297  0.0866  0.0842
20653W        W36122  11.095   5.409  14.893 -0.0766  0.3757  0.2451
20654W        W36123   6.834  10.183  10.684  0.3684 -0.1535 -0.2377
20655W        W36124  13.264  17.091   0.165  0.0397 -0.0730  0.1512
20656W        W36125  11.555  13.455   0.947 -0.0594 -0.0033  0.0852
20657W        W36126   5.909   8.955  14.059 -0.2936  0.1668  0.2271
20658W        W36127  13.129  14.873  13.170  0.2560 -0.1567 -0.1415
20659W        W36128   0.790  15.195  16.088 -0.3394 -0.1618 -0.0732
20660W        W36129   2.554  11.646  14.112  0.1338 -0.1254 -0.1378
20661W        W36130   8.884   3.407   4.822  0.0798  0.3983 -0.1754
20662W        W36131   3.177   6.015  11.948 -0.1174 -0.2044 -0.0707
20663W        W36132  16.953   0.452   1.223 -0.1550 -0.0980  0.1228
20664W        W36133  17.023  13.494  12.470  0.0898  0.1715  0.4059
20665W        W36134   2.997   0.023   0.230  0.0502 -0.2374 -0.3517
20666W        W36135  11.162  14.179  11.616 -0.0120  0.2189 -0.1533
20667W        W36136  10.318  12.708  10.288 -0.3305  0.0757  0.1088
20668W        W36137  17.597  15.358  14.800 -0.2192 -0.3029 -0.3804
20669W        W36138   9.720  16.710  14.107  0.0268  0.4157  0.2862
20670W        W36139  16.646  15.253   2.206 -0.0733  0.4361  0.2320
20671W        W36140  11.911  11.090  12.764 -0.2387  0.4077  0.3926
20672W        W36141   5.846  11.085  15.940 -0.1921  0.1129  0.0279
20673W        W36142   7.445  16.979   4.089 -0.0598  0.3894 -0.2670
20674W        W36143  11.907  13.644   3.651  0.0698 -0.0588 -0.0265
20675W        W36144   1.275  17.004  12.038  0.3280  0.4145 -0.1375
20676W        W36145  14.237  14.095  11.661  0.1460 -0.1248  0.0550
20677W        W36146  15.632  16.941  12.854  0.0028 -0.1258  0.2654
20678W        W36147  14.095  14.907   2.960  0.2057  0.1004 -0.1127
20679W        W36148   7.308  16.058   4.392 -0.0447 -0.2848 -0.3047
20680W        W36149  17.361   5.602   1.696  0.0161  0.0066  0.0215
20681W        W36150   3.684   2.158   4.984 -0.1647  0.1164 -0.2499
20682W        W36151   1.245   9.269   1.920  0.0650 -0.2956  0.0161
20683W        W36152  16.760  10.821  13.665 -0.0531  0.0471  0.0122
20684W        W36153   1.341   4.707  13.380 -0.1156  0.1207 -0.0695
20685W        W36154  15.054  15.721   4.553  0.1395  0.1677 -0.0858
20686W        W36155   7.964  16.145   4.999 -0.1906  0.3080  0.0937
20687W        W36156   1.496  17.388  13.794 -0.1335 -0.2042 -0.0288
20688W        W36157   3.336   6.892  11.968 -0.2069 -0.2454 -0.1134
20689W        W36158   9.659  12.526  12.800 -0.2160  0.2066  0.2580
20690W        W36159  16.695   8.476   3.711 -0.1107 -0.0826  0.1060
20691W        W36160  14.152   1.153  14.125  0.2107  0.0236  0.1676
20692W        W36161   2.229  11.316   1.563 -0.1668  0.2217 -0.3560
20693W        W36162   1.010   4.921  14.013  0.2250  0.2311 -0.0228
20694W        W36163  15.700   5.746  15.608 -0.0008 -0.2381 -0.0444
20695W        W36164  12.822  15.107   1.363 -0.5258 -0.0629 -0.1967
20696W        W36165  13.828   8.337   3.437  0.2096  0.1152 -0.0974
20697W        W36166   3.719   2.457  12.296 -0.2314 -0.0081 -0.3348
20698W        W36167   3.444   8.588  16.272  0.0413  0.0994  0.4506
20699W        W36168   6.311   9.075  13.776 -0.0228  0.1100 -0.1034
20700W        W36169   4.549   9.849  10.380  0.1084  0.0443 -0.0302
20701W        W36170   6.459   3.449   5.721  0.0849 -0.2821 -0.0124
20702W        W36171   3.224   9.277  13.068 -0.0965  0.1181 -0.0234
20703W        W36172  15.289   6.536  11.322  0.4787  0.0675 -0.1862
20704W        W36173  10.279  11.066   3.977  0.0020  0.0502 -0.1316
20705W        W36174  11.119  17.605  16.129  0.0157 -0.1230 -0.2635
20706W        W36175   4.270   9.693   3.101  0.0797  0.0986  0.0750
20707W        W36176   5.047   7.545  11.027  0.0913  0.2029  0.1094
20708W        W36177  17.008   3.819   3.266  0.1348  0.1014  0.2195
20709W        W36178   5.371   2.944   2.971 -0.2706  0.3211  0.1401
20710W        W36179   1.843   8.564   0.738  0.0539  0.0247  0.0241
20711W        W36180   5.273  13.051   0.986  0.1716  0.0831 -0.0718
20712W        W36181   8.232   9.173   5.750 -0.2768  0.2780 -0.1531
20713W        W36182   7.586  16.574   4.366 -0.0649  0.1174  0.0362
20714W        W36183  17.912   7.965   0.442 -0.0290  0.1840  0.2848
20715W        W36184   7.584   9.081  10.954  0.2402 -0.0309  0.2256
20716W        W36185  12.432  17.569   2.512  0.1427 -0.3082  0.0508
20717W        W36186   2.693  12.106   4.346  0.1477  0.3461  0.2889
20718W        W36187  16.559   2.797  12.650  0.0303 -0.1441 -0.1323
20719W        W36188   3.752  14.348  13.318 -0.0679 -0.3477 -0.0395
20720W        W36189  17.958   6.382   3.303 -0.1573  0.3134 -0.0885
20721W        W36190  13.666   3.483   5.972 -0.2642  0.1052  0.2745
20722W        W36191  14.166  15.111   5.401 -0.1283  0.1579 -0.0171
20723W        W36192  13.561  17.336  14.995 -0.1096 -0.1393  0.1990
20724W        W36193   7.325   6.992   2.192 -0.1643 -0.1386 -0.1828
20725W        W36194   8.408  13.455  14.387 -0.1667 -0.1082 -0.2132
20726W        W36195   7.808  12.150  15.008  0.2139  0.0092 -0.0987
20727W        W36196  12.179  17.474  16.148 -0.1932  0.2812 -0.0289
20728W        W36197   1.292   9.604  12.061  0.1359  0.1813 -0.2606
20729W        W36198   4.823  16.987   5.266 -0.0392 -0.2150  0.3233
20730W        W36199  12.228  17.612  11.141 -0.0876  0.1346 -0.2935
20731W        W36200  13.334  17.209  13.489  0.0457  0.1163  0.1436
20732W        W36201  11.968   4.176   4.878 -0.0406  0.0744  0.0150
20733W        W36202   9.522  16.467  16.036  0.1165  0.1362 -0.0660
20734W        W36203  16.358  16.855  16.154 -0.5178 -0.1902 -0.3375
20735W        W36204  13.183   1.156   2.230 -0.0126 -0.0056  0.1898
20736W        W36205   0.355  16.431   0.677  0.1330  0.0998 -0.0525
20737W        W36206   9.046  13.237  15.118 -0.0434  0.0507 -0.1069
20738W        W36207  12.721   5.458   3.590 -0.0590 -0.0293  0.1552
20739W        W36208   3.725  17.182  10.287  0.1452  0.1215  0.1227
20740W        W36209  11.685   1.457  11.874 -0.1434 -0.1653 -0.0260
20741W        W36210   2.489   8.060   1.928 -0.4161  0.3638 -0.0079
20742W        W36211  13.806  10.790   0.918  0.0308  0.1039  0.2178
20743W        W36212   7.881  13.546   3.444 -0.2097  0.1651 -0.1531
20744W        W36213   9.285   7.648  13.642  0.0190  0.2175  0.2856
20745W        W36214  11.584   2.786  16.212  0.0015  0.1467  0.1464
20746W        W36215   0.491   5.955   1.152 -0.1099  0.0799  0.1035
20747W        W36216  10.029   6.492   1.305  0.1550  0.1182  0.0666
20748W        W36217   8.913  13.623   5.153 -0.0178  0.2037 -0.0427
20749W        W36218   9.257   3.446  11.672 -0.3149  0.1704  0.1395
20750W        W36219  15.224  15.801   3.964 -0.1081 -0.0662 -0.0580
20751W        W36220   3.178   7.852  14.157 -0.2077  0.1523 -0.2167
20752W        W36221  16.704   6.665   0.448 -0.1326  0.0580  0.3637
20753W        W36222   8.883  11.894   1.603  0.0692  0.0774 -0.0692
20754W        W36223   3.461   0.419  12.025  0.0544  0.0458  0.2123
20755W        W36224   1.074   3.593   5.436 -0.1053 -0.0755  0.1188
20756W        W36225   2.940  11.096   2.702  0.2354  0.1708  0.0434
20757W        W36226  13.912  16.088  14.129  0.0915  0.0708 -0.2181
20758W        W36227   9.350   3.215   4.862  0.1106 -0.2490 -0.1798
20759W        W36228  11.137  13.301   3.786 -0.0195 -0.0868 -0.2625
20760W        W36229   0.610  14.512   4.889  0.3415 -0.0765  0.5132
20761W        W36230  16.313   0.244  11.193  0.0657 -0.1279  0.2793
20762W        W36231   9.329   9.225   2.977  0.2991 -0.2434 -0.0253
20763W        W36232  10.033  15.189  16.154 -0.0380 -0.1974 -0.5898
20764W        W36233  10.207  13.357   5.316 -0.1338 -0.1467  0.2065
20765W        W36234   8.337   7.123  14.822 -0.0172  0.2122 -0.1470
20766W        W36235  12.294   6.199   5.030  0.0141 -0.1179 -0.1572
20767W        W36236  11.144  10.198  14.683  0.2681 -0.0402  0.0438
20768W        W36237  12.974   9.346  13.644 -0.1922 -0.0279  0.0067
20769W        W36238  13.500   7.608   3.009  0.1621 -0.0555  0.0248
20770W        W36239  12.351   3.001  11.742 -0.4482  0.0825  0.0199
20771W        W36240  17.854  15.865  10.781  0.0574 -0.0827  0.3319
20772W        W36241   8.053  13.620  12.572 -0.0486 -0.0012 -0.0384
20773W        W36242   1.922  16.222   1.985  0.1535  0.0727  0.0566
20774W        W36243   8.021  14.968  15.835 -0.0386  0.0663  0.0890
20775W        W36244   4.128  10.948   3.611 -0.0275 -0.1278  0.0010
20776W        W36245   7.313   4.271  14.266 -0.2693  0.1344  0.0266
20777W        W36246   7.292   1.949   6.093 -0.1297 -0.0508  0.0311
20778W        W36247   4.370   9.409  10.933 -0.0495 -0.0212  0.1541
20779W        W36248   0.082  15.675  13.662  0.0021  0.0622 -0.0825
20780W        W36249   5.840  10.755   4.470  0.1720  0.1310 -0.0910
20781W        W36250  10.139   6.990   3.939  0.1054  0.0129  0.1234
20782W        W36251  15.371  12.179  11.960 -0.0187 -0.1188 -0.0586
20783W        W36252   0.708   5.542   1.138 -0.0078 -0.0335 -0.0033
20784W        W36253   7.524   9.850  15.242  0.2621  0.0499  0.1245
20785W        W36254   0.901  13.026   4.820 -0.0679 -0.1485 -0.1051
20786W        W36255  13.941  17.623   2.120 -0.3735  0.1265 -0.3934
20787W        W36256   1.084   7.111   4.862  0.1647  0.2113 -0.2783
20788W        W36257  12.839  15.938   3.694  0.0228  0.4093  0.0219
20789W        W36258  13.549   5.257  14.163 -0.0158 -0.1556  0.1539
20790W        W36259   5.703  13.545  11.455 -0.4362 -0.1251 -0.0339
20791W        W36260  15.053  11.441  12.067  0.4676 -0.0792  0.1599
20792W        W36261   9.081  15.367   1.208  0.0027 -0.1604  0.2747
20793W        W36262   0.446  13.125   5.912 -0.1722 -0.0786 -0.0927
20794W        W36263  10.241   1.548  12.254  0.1407 -0.0066  0.2325
20795W        W36264   1.594   3.268   1.715  0.3183  0.0925  0.0516
20796W        W36265   3.475  10.256   2.148 -0.0031 -0.0107  0.0084
20797W        W36266  11.493  14.857  10.185 -0.0452  0.0474  0.2954
20798W        W36267   2.822   2.534   2.649 -0.1003 -0.1805 -0.1007
20799W        W36268   8.962  15.305  12.690  0.0095  0.0397  0.0754
20800W        W36269   7.401   2.322  15.389 -0.0789 -0.0188  0.0585
20801W        W36270   2.834   9.123   1.541  0.1662  0.0195 -0.3564
20802W        W36271   1.739  12.219  11.369  0.1260 -0.1796  0.2753
20803W        W36272  12.145   0.277  11.552  0.3211 -0.2402  0.0487
20804W        W36273  13.742   1.570   5.332  0.2072 -0.0539  0.2057
20805W        W36274   4.877   1.397   2.280 -0.3327  0.2276 -0.0031
20806W        W36275   2.294   9.665   2.654  0.0528  0.0035 -0.4317
20807W        W36276  11.309   4.294  12.435 -0.3019 -0.1269  0.4236
20808W        W36277   7.920   8.900  12.164 -0.1555  0.1228  0.0345
20809W        W36278  13.853   9.225   5.432 -0.0419 -0.2821  0.1544
20810W        W36279  16.389  16.712   4.950  0.0048 -0.2484 -0.1501
20811W        W36280  14.562  14.197  12.413 -0.2998  0.5017  0.0037
20812W        W36281  12.103   6.351  13.783  0.1436 -0.0743  0.4713
20813W        W36282   9.941   2.734  13.318  0.0886  0.1558  0.0275
20814W        W36283   0.083  17.282  15.416 -0.1266 -0.0247 -0.2529
20815W        W36284  16.148  10.768   3.137 -0.0492  0.1779  0.1330
20816W        W36285   2.634   1.342   1.667 -0.0728 -0.1494 -0.2161
20817W        W36286   3.212  15.786  12.515  0.0868 -0.0324  0.1626
20818W        W36287   3.465   2.695  16.019 -0.1787 -0.1163 -0.0644
20819W        W36288   9.757  13.896  14.197  0.1876 -0.0190  0.1532
20820W        W36289   8.112   6.433   2.903  0.0377 -0.1822 -0.0786
20821W        W36290  16.926  17.108  14.668  0.0518 -0.2812 -0.0241
20822W        W36291  16.043   2.324  13.354 -0.2355 -0.2987 -0.0695
20823W        W36292   7.668   5.715   2.827  0.1019 -0.1217 -0.0571
20824W        W36293   4.098   2.789   1.155  0.2217  0.2023  0.2136
20825W        W36294   6.161   5.263   5.090  0.0415 -0.4004  0.2569
20826W        W36295   8.977  16.760   5.375  0.2957 -0.1479  0.0056
20827W        W36296   3.634   2.032  15.289  0.0049  0.0107 -0.1946
20828W        W36297   7.719  11.209  15.756  0.1936 -0.1571  0.0712
20829W        W36298  11.943  10.702   3.427 -0.0740 -0.0065  0.0673
20830W        W36299  10.095  10.294  14.687 -0.0329 -0.1095 -0.1661
20831W        W36300  14.200   9.260  13.275 -0.2179 -0.1126  0.4490
20832W        W36301  16.031   1.604  12.788  0.0349  0.3065  0.2781
20833W        W36302   4.266  12.944  15.533 -0.2672 -0.1867  0.1284
20834W        W36303  16.745  10.779  16.266 -0.0928  0.0034  0.1012
20835W        W36304   3.637   7.652  13.239 -0.0132 -0.0779  0.2307
20836W        W36305   4.330   8.514   4.907  0.2518 -0.0743 -0.2354
20837W        W36306   8.327  12.966   1.678  0.0145  0.2393 -0.0837
20838W        W36307  13.466   9.694  13.076 -0.3325 -0.2066  0.1867
20839W        W36308   3.392  10.424  11.569 -0.2046  0.0300 -0.2148
20840W        W36309  14.343   4.108   3.754 -0.2194  0.0604  0.0848
20841W        W36310   5.932   8.808  15.996 -0.2156 -0.0719  0.1338
20842W        W36311   9.997   0.801   5.814  0.1080  0.1460  0.1425
20843W        W36312  14.222  12.535   4.903  0.0878 -0.2755  0.2671
20844W        W36313   1.773   9.202  15.424 -0.4574  0.0970 -0.0440
20845W        W36314   7.788   5.983  11.722 -0.0558 -0.1318  0.2733
20846W        W36315   3.902   8.633   5.163  0.1838 -0.3870  0.1649
20847W        W36316   7.471  13.224   3.508 -0.3633  0.1493 -0.2889
20848W        W36317   8.077  11.733   1.513 -0.0608  0.0959  0.2985
20849W        W36318   6.177  17.190   1.677  0.3316  0.0597 -0.0253
20850W        W36319   3.689  13.369  14.165  0.0276  0.0680  0.0795
20851W        W36320  13.867   3.638  13.013  0.3624  0.0080 -0.2441
20852W        W36321  13.009  15.725  16.023  0.0485  0.1514  0.4116
20853W        W36322   9.032   6.071   4.871  0.1717  0.4117 -0.0138
20854W        W36323  10.532  17.430  14.487 -0.0486  0.0906 -0.3288
20855W        W36324  10.675   5.985   0.239  0.1837  0.0059  0.0863
20856W        W36325  15.603  10.254  14.743 -0.0792 -0.2224  0.1980
20857W        W36326   3.366   0.207  12.486 -0.0965 -0.1196 -0.2093
20858W        W36327  16.026  15.565   3.346  0.0461  0.2184 -0.1052
20859W        W36328   1.974   5.368  11.083  0.1043 -0.0585 -0.0782
20860W        W36329  13.956  17.439  11.170 -0.1477  0.0974 -0.1977
20861W        W36330  15.784   6.405   0.085  0.2173 -0.0808 -0.2356
20862W        W36331   1.558   6.799  14.232 -0.0407  0.1628  0.5460
20863W        W36332  13.101   4.230   2.406 -0.1388  0.0135 -0.0326
20864W        W36333  17.718   8.716   6.225  0.2137 -0.0815  0.1452
20865W        W36334   0.764  13.158  15.478 -0.1673 -0.0743  0.0196
20866W        W36335   9.523  17.420  15.823  0.2697 -0.0190  0.0869
20867W        W36336   5.826   9.318   2.173 -0.1726 -0.1762  0.0168
20868W        W36337   7.876  13.085   1.541  0.0369  0.0341 -0.1626
20869W        W36338   2.154   9.708  14.156  0.0135 -0.0231  0.2972
20870W        W36339  17.400   8.873   0.553  0.1369 -0.2034  0.0012
20871W        W36340   3.509   3.214  15.177  0.4009  0.0276  0.2096
20872W        W36341   9.949   5.488  14.929  0.1152 -0.0842 -0.4324
20873W        W36342  13.129  17.709  14.925  0.2694  0.0216  0.1648
20874W        W36343  17.127  13.373   5.284 -0.0655 -0.0611 -0.1531
20875W        W36344   3.964  14.601   2.733 -0.1521  0.1285  0.0525
20876W        W36345   5.667  15.781  13.740  0.1332  0.3514  0.3186
20877W        W36346   6.108   2.930   4.495  0.0170  0.0870  0.1452
20878W        W36347  17.685  10.816   2.519  0.3740 -0.1642 -0.1622
20879W        W36348   8.300   9.107  14.029  0.0354 -0.2883 -0.3748
20880W        W36349   4.288  10.523   0.420  0.4028  0.0946 -0.0887
20881W        W36350   0.469  13.620   1.864 -0.1304  0.1257 -0.0525
20882W        W36351  17.717  15.989   1.766 -0.0969 -0.0599  0.1642
20883W        W36352  16.482  14.585  14.785  0.0405 -0.0547  0.1744
20884W        W36353   7.936   3.505  15.267  0.0142  0.2794 -0.0855
20885W        W36354   3.902   7.786   1.180  0.2744  0.2375 -0.2410
20886W        W36355   2.402   7.829  15.183  0.1576  0.0953 -0.0467
20887W        W36356  15.043   3.235  13.953 -0.0887  0.0525  0.1410
20888W        W36357   2.159   1.614   5.079 -0.2643  0.1458  0.0568
20889W        W36358   9.493  16.197   4.799  0.0535  0.1416  0.1192
20890W        W36359  10.296   5.232   5.853 -0.0996  0.0084  0.1050
20891W        W36360   6.435   4.183  15.240 -0.2848 -0.0945 -0.0109
20892W        W36361   8.132   4.833   3.089  0.1739 -0.0552  0.0332
20893W        W36362  13.356   8.467   5.130  0.2371  0.1527  0.0940
20894W        W36363  16.240   4.241   0.877  0.2703  0.3458  0.0262
20895W        W36364   5.163   7.905  12.342 -0.0790  0.0036 -0.0309
20896W        W36365   0.396   9.625  13.253 -0.1965 -0.1412 -0.0957
20897W        W36366  15.258   4.356   1.880 -0.0769  0.1433  0.1448
20898W        W36367   8.906   9.205  13.646  0.1479  0.2037  0.1174
20899W        W36368  16.397   2.675   3.027  0.1751  0.2588 -0.0302
20900W        W36369  13.979   0.940  11.739  0.0864  0.0798  0.1330
20901W        W36370   6.295   3.877   0.039 -0.0303  0.0338 -0.0981
20902W        W36371   8.060  10.259  14.184  0.0395  0.0128 -0.1376
20903W        W36372   4.015   0.455   5.925  0.0387  0.2850  0.0433
20904W        W36373   6.331   2.171   2.704  0.3252  0.0155 -0.1290
20905W        W36374   2.124  18.092  13.444  0.3898 -0.4018  0.0794
20906W        W36375   9.008   0.504   4.966 -0.1086 -0.0321 -0.1178
20907W        W36376  11.889   9.363   1.904 -0.1119 -0.1737  0.1238
20908W        W36377  14.336   4.377   5.839  0.1568  0.2225  0.1236
20909W        W36378   2.853   9.691  11.937 -0.0004  0.1324  0.0783
20910W        W36379   0.686  15.990  11.936 -0.0642  0.0588 -0.0650
20911W        W36380   9.812  15.851  12.847 -0.0726  0.0838  0.1400
20912W        W36381   9.729  17.792  11.963 -0.0016  0.0156 -0.0917
20913W        W36382  13.694   5.376   0.714 -0.1458  0.1326  0.3975
20914W        W36383  17.791  12.905   5.464  0.2120 -0.1479  0.2273
20915W        W36384  13.757  17.891  14.256 -0.2641  0.1522  0.0848
20916W        W36385   0.008  12.405   1.852 -0.1091  0.1111  0.2960
20917W        W36386  14.030   9.295   1.443  0.0455  0.0884  0.3178
20918W        W36387  13.685   2.084  10.973 -0.2934 -0.0688  0.0805
20919W        W36388  16.012   2.595   2.076  0.1203  0.1024 -0.2350
20920W        W36389  13.998   9.746   5.459  0.1563 -0.4724 -0.0218
20921W        W36390  14.321  13.865   3.730 -0.0442 -0.0146 -0.0098
20922W        W36391   7.280  15.488   3.810 -0.0671  0.2989 -0.0544
20923W        W36392   7.346  12.554   2.860  0.0710  0.0129 -0.2072
20924W        W36393  17.191   5.014  13.947 -0.0251 -0.3476  0.0012
20925W        W36394   8.512  11.164   3.722  0.0039 -0.1175  0.3000
20926W        W36395   1.279   8.029  11.728 -0.3217  0.0687 -0.0787
20927W        W36396  10.883  10.536  15.896 -0.0835  0.1062 -0.0180
20928W        W36397  16.712   8.825   4.604  0.1499  0.3852 -0.2730
20929W        W36398   4.319  16.623  15.606 -0.3134 -0.0914 -0.3268
20930W        W36399   8.919  15.719  13.772 -0.2629  0.0800  0.3494
20931W        W36400  15.109  14.605   3.763 -0.2000 -0.0022 -0.1036
20932W        W36401  13.743   3.745   5.541  0.0320  0.2003 -0.1485
20933W        W36402  17.302  11.718  14.997 -0.2351  0.1325  0.0180
20934W        W36403   8.526  11.130   5.458 -0.0100 -0.1513  0.0614
20935W        W36404  14.770   9.989   1.644  0.0219 -0.1019  0.4380
20936W        W36405   1.194  17.136   0.558  0.1827 -0.1940  0.0763
20937W        W36406   5.961  12.583  16.017 -0.1145  0.2608  0.1127
20938W        W36407   6.914  11.970   3.652 -0.0565  0.0969 -0.1688
20939W        W36408   4.659   0.009   5.999  0.4984  0.2637 -0.0822
20940W        W36409  15.841  17.199   3.187  0.1778 -0.0077  0.0018
20941W        W36410   8.249   1.245  15.806 -0.0675  0.0981  0.1995
20942W        W36411  16.730   9.714   3.181 -0.2494  0.2835  0.2672
20943W        W36412  13.426   8.956  13.573  0.1780 -0.0136  0.1157
20944W        W36413   1.846  10.628  14.200  0.2099  0.0429  0.2011
20945W        W36414   8.126  16.513   2.215 -0.1893 -0.3090  0.0925
20946W        W36415   2.702  14.710  11.190 -0.0376 -0.0580  0.1383
20947W        W36416   5.049  12.839   1.449  0.2619  0.0699  0.1524
20948W        W36417  12.223  13.754  15.679 -0.1889 -0.1225 -0.1774
20949W        W36418   1.591   0.670   3.928 -0.2132  0.3919  0.2339
20950W        W36419   9.025  17.953   3.562  0.0498  0.4236  0.1965
20951W        W36420  16.325   2.283   0.191  0.0911 -0.1257  0.2361
20952W        W36421  16.568  17.144   1.517  0.1004 -0.0977  0.1958
20953W        W36422  17.622   0.700  13.474 -0.0514 -0.0093  0.0715
20954W        W36423  14.207  17.851   1.155  0.0119  0.1810 -0.1505
20955W        W36424   0.691  10.314   2.280  0.1867  0.3090  0.0959
20956W        W36425   4.140  10.768  16.093  0.0113 -0.1422  0.0191
20957W        W36426   5.680   5.007   1.958 -0.0434  0.0360 -0.0241
20958W        W36427   2.870   0.526  12.590  0.4062  0.0922 -0.2220
20959W        W36428  12.384  12.636  12.031 -0.2573 -0.0228 -0.1774
20960W        W36429  15.352   3.344   5.383 -0.2585 -0.2211 -0.0212
20961W        W36430  16.290  14.523   2.105  0.1960 -0.1400 -0.0004
20962W        W36431  17.483   3.173  14.571  0.0973  0.3549 -0.0137
20963W        W36432  16.478  12.560  11.718 -0.1243  0.1515 -0.0125
20964W        W36433   2.141   7.540  14.351  0.0820 -0.1935 -0.2998
20965W        W36434   6.109   0.334   3.905  0.0677 -0.0254 -0.0631
20966W        W36435  12.813  15.791   0.260 -0.1148 -0.0896  0.3573
20967W        W36436  16.707   5.444  11.244 -0.1173 -0.1194 -0.0530
20968W        W36437   2.572  13.378   4.616 -0.1218  0.1703 -0.0916
20969W        W36438  11.064  12.068   5.699 -0.0737  0.1748 -0.2134
20970W        W36439  14.568  15.397  13.665  0.0922 -0.2800  0.1376
20971W        W36440  15.981   9.957  16.018  0.1199 -0.1006  0.1082
20972W        W36441   0.905  16.172  11.488  0.1213  0.3782 -0.0657
20973W        W36442  18.053   2.883  16.216 -0.3951 -0.2240  0.0495
20974W        W36443   9.838  14.639  11.718 -0.3248 -0.1406 -0.1623
20975W        W36444   5.853   1.764   0.901  0.1554  0.1789 -0.0077
20976W        W36445  10.667  12.305   2.157 -0.0186  0.0811  0.2639
20977W        W36446   2.528   3.153   5.309  0.0948  0.1290  0.0254
20978W        W36447  14.220   3.105  11.145 -0.5524  0.1349  0.0311
20979W        W36448  11.542   5.403  10.462 -0.0700  0.1885 -0.1856
20980W        W36449   2.920  14.507  13.080  0.0907  0.0997  0.1476
20981W        W36450   6.396   4.545   2.735 -0.0953  0.1458 -0.0969
20982W        W36451   9.465   3.604  13.910  0.2751 -0.3185 -0.2591
20983W        W36452  13.350   1.602  12.805  0.1114  0.0840  0.1652
20984W        W36453  14.314   5.099   1.316 -0.1164 -0.1202  0.0090
20985W        W36454   3.036   6.630  14.528  0.0880  0.0955  0.3285
20986W        W36455   4.432   6.024  14.093 -0.1928 -0.0502 -0.1557
20987W        W36456   9.539   3.176   6.574 -0.0323 -0.1248 -0.0293
20988W        W36457  14.664   6.952  15.678 -0.2505 -0.3460  0.1033
20989W        W36458  15.083   8.226   3.618 -0.2328 -0.2341  0.1216
20990W        W36459  11.424  12.294  12.205  0.0495  0.2869 -0.1457
20991W        W36460  13.182  10.850  11.100  0.2496 -0.2646  0.1361
20992W        W36461   1.637  17.940  10.748  0.0822  0.0470  0.0178
20993W        W36462   9.335   7.785  16.041 -0.0938 -0.1974  0.0007
20994W        W36463  14.493   0.721   4.320 -0.0908 -0.0053  0.0071
20995W        W36464   8.865  11.686   3.689  0.0314  0.2786 -0.3719
20996W        W36465   2.144   8.035  13.518  0.1933 -0.1265  0.2511
20997W        W36466   7.064   0.682   2.032 -0.3368 -0.3266 -0.3561
20998W        W36467   6.715  17.870  12.061  0.1936  0.1830  0.3454
20999W        W36468   0.849   0.916  15.982  0.1304  0.2852 -0.1048
21000W        W36469  16.941  17.322   3.240  0.1217  0.0123 -0.1530
21001W        W36470  16.570  10.013   0.339  0.2338  0.3100  0.2145
21002W        W36471  11.421  11.977  12.736  0.0773  0.1311  0.4791
21003W        W36472   4.378   2.934  11.260  0.2067  0.0843  0.1144
21004W        W36473  11.775   4.459  16.246 -0.1362  0.2038 -0.0512
21005W        W36474   6.142  17.324  16.226  0.3860 -0.0987 -0.2619
21006W        W36475   9.987  13.324   2.340  0.0538  0.1540  0.1979
21007W        W36476   4.885  13.963   3.284 -0.0598  0.2141  0.0896
21008W        W36477   7.006   4.954   1.468 -0.2420 -0.3786  0.3444
21009W        W36478   6.883  13.392   1.541 -0.4179  0.2902  0.2567
21010W        W36479  15.799   9.629  12.484  0.0170  0.1048  0.1421
21011W        W36480   0.103   8.608  14.880  0.0515 -0.0307 -0.0346
21012W        W36481   8.707  11.224  13.490 -0.0065 -0.1151 -0.0844
21013W        W36482   5.328   5.984  15.255 -0.3610  0.1865 -0.2782
21014W        W36483   0.864  14.251   0.985 -0.2417 -0.1155 -0.0884
21015W        W36484   6.036  10.582  13.223  0.1944  0.0269 -0.2194
21016W        W36485   1.093  15.612  16.052 -0.2702 -0.2215 -0.0488
21017W        W36486  11.635  15.179  13.938  0.1507 -0.1871  0.1457
21018W        W36487   5.995  10.464   2.272 -0.2065  0.1699  0.0041
21019W        W36488   5.693   0.660  12.723  0.3321 -0.1148 -0.0574
21020W        W36489   3.632   5.057  13.902 -0.0743  0.2147  0.0359
21021W        W36490  17.788   1.764  15.717 -0.1160 -0.0757 -0.1992
21022W        W36491   8.120   8.269   0.063  0.0918  0.1983  0.1100
21023W        W36492   8.340   9.504   0.947 -0.2705 -0.0924  0.1146
21024W        W36493   7.953   1.084   6.338 -0.0544 -0.2313  0.2141
21025W        W36494   5.247  11.096  13.508 -0.0334  0.0145 -0.1175
21026W        W36495  14.153  12.467   3.835  0.2271  0.0466 -0.0747
21027W        W36496  15.140  10.891   0.434 -0.2176 -0.2120  0.3844
21028W        W36497   1.008   2.749   2.132 -0.0966  0.0114 -0.1301
21029W        W36498   5.518  12.642   3.078  0.1495 -0.0120 -0.1636
21030W        W36499  13.253  11.337   1.572 -0.2723  0.2397  0.1626
21031W        W36500  15.513   0.455  15.001 -0.1445 -0.0700  0.0345
21032W        W36501   8.373   6.755   4.917  0.2941  0.0422 -0.2560
21033W        W36502   3.149   4.421  15.841 -0.0260 -0.1975  0.0140
21034W        W36503   8.951  12.256   3.487 -0.2863  0.0602 -0.0002
21035W        W36504   3.158   0.794  13.552 -0.1779  0.0706 -0.5536
21036W        W36505   7.560   1.897   0.554  0.0766 -0.3249  0.0837
21037W        W36506  12.853   0.534   1.322  0.3905  0.1076  0.3189
21038W        W36507   3.559   3.056   2.160  0.3607 -0.0520  0.1609
21039W        W36508  13.134   0.136  16.236  0.0471 -0.0356  0.0816
21040W        W36509  15.808   2.010   4.910 -0.0857  0.3468  0.5453
21041W        W36510   9.570  14.840   3.025 -0.1826  0.1275 -0.0476
21042W        W36511  12.450   5.767  15.052 -0.0604 -0.0766  0.2874
21043W        W36512   5.378  14.600  16.222  0.0608 -0.1491  0.2380
21044W        W36513   9.135  15.254  14.861 -0.1159 -0.0490 -0.0803
21045W        W36514  15.776  15.571  13.147 -0.3860 -0.5082  0.0047
21046W        W36515  13.064   1.839   5.715 -0.0043 -0.1104 -0.0036
21047W        W36516  12.299  10.910   3.007 -0.0717 -0.0106 -0.3235
21048W        W36517  13.677   1.016   1.294  0.1267 -0.1945 -0.0261
21049W        W36518  14.079  16.934   0.853  0.3830 -0.0575 -0.0769
21050W        W36519   9.782   0.252  13.137  0.2645 -0.0076  0.0542
21051W        W36520  10.843   8.967   2.342 -0.0971  0.0143 -0.1754
21052W        W36521  16.131   6.538   4.931 -0.1324  0.1318  0.4673
21053W        W36522  11.027  17.077  15.273  0.0558 -0.2269 -0.1522
21054W        W36523  12.650   6.727  12.474  0.4674  0.0250 -0.1364
21055W        W36524  10.893   5.339   3.514 -0.0586  0.1317 -0.1490
21056W        W36525   1.917  15.145  16.145  0.2977  0.2547  0.4194
21057W        W36526   6.925  15.044  14.975 -0.0504  0.4537  0.0137
21058W        W36527  15.512   1.156  15.154 -0.0086  0.0263  0.3659
21059W        W36528  12.321  15.380  16.301 -0.2043 -0.0020 -0.4660
21060W        W36529   6.092  14.463  12.349  0.0201  0.0971 -0.1651
21061W        W36530   1.053  14.335  14.164  0.3639  0.0184 -0.0994
21062W        W36531  13.692   2.598   2.565 -0.2213  0.2902  0.0910
21063W        W36532   4.958  11.980   1.633  0.3836  0.2765  0.1168
21064W        W36533  17.750   9.213  12.822  0.1166 -0.1691  0.1265
21065W        W36534  11.042  12.894   1.655 -0.1216  0.0070 -0.0796
21066W        W36535   0.303   2.362   4.791 -0.1339  0.0729 -0.0028
21067W        W36536  16.251   3.266   3.767 -0.3348  0.1008 -0.0710
21068W        W36537   9.687   4.482   6.104 -0.0402 -0.0890  0.0408
21069W        W36538  17.891  13.560  13.789  0.1801 -0.3549 -0.3132
21070W        W36539  10.692  11.774  14.468 -0.0430  0.0618 -0.3273
21071W        W36540   9.405   0.217  11.853 -0.0702  0.1050  0.2508
21072W        W36541  16.219  14.846   0.626  0.0642  0.0882 -0.3892
21073W        W36542   1.356  12.915   1.564 -0.0683 -0.2739  0.0208
21074W        W36543  17.590  15.717  15.584  0.1951  0.2575  0.0066
21075W        W36544   1.493   0.755  13.825 -0.1207  0.1555 -0.2918
21076W        W36545   2.736  12.203   2.296  0.1257 -0.2297 -0.1379
21077W        W36546  17.727   0.648  15.003 -0.0637 -0.1000 -0.1176
21078W        W36547  13.625  12.084   0.358  0.0750  0.0593  0.0476
21079W        W36548  17.917   1.358   2.190  0.1065  0.0742 -0.4106
21080W        W36549  13.817   2.466  15.474  0.3502 -0.3800  0.0259
21081W        W36550  13.670   6.453   4.912  0.0735  0.0667  0.0808
21082W        W36551   8.800  10.940   2.538 -0.2166  0.0298  0.1110
21083W        W36552  17.665  10.570   3.081  0.3899  0.0808  0.1334
21084W        W36553  11.193   5.275   2.461 -0.0651 -0.0511  0.1488
21085W        W36554   2.794  16.319  14.004  0.1470 -0.0058 -0.0495
21086W        W36555   4.609   8.487   0.389 -0.0996  0.2456 -0.1273
21087W        W36556  15.261  14.692   0.641  0.1564 -0.0336  0.2606
21088W        W36557   0.922  10.116  14.877  0.0915  0.2623 -0.2889
21089W        W36558  17.630   0.585   4.973  0.3466  0.0439 -0.0684
21090W        W36559  16.122  12.199  16.075 -0.3622  0.3556 -0.0633
21091W        W36560  15.058   0.026   3.670  0.0987 -0.1576 -0.0391
21092W        W36561  12.842   7.066   4.145  0.1425 -0.1514  0.1193
21093W        W36562  16.740  11.707  12.053 -0.1809  0.0538  0.0058
21094W        W36563   2.100   6.891  12.202  0.0279 -0.0104  0.1684
21095W        W36564  12.830  16.768  15.694 -0.0579 -0.0006 -0.0599
21096W        W36565  17.313  16.357   1.940  0.2158 -0.2310  0.1701
21097W        W36566   4.876  13.343   1.186  0.0681  0.1432  0.0722
21098W        W36567  13.464   1.604   0.018 -0.0957  0.0390 -0.2528
21099W        W36568   1.898   3.271  11.696 -0.0499  0.2397  0.0335
21100W        W36569  12.548   8.587  11.573 -0.1085 -0.1163 -0.0307
21101W        W36570   1.308  15.271   0.094  0.0316  0.0076 -0.1324
21102W        W36571   4.099   7.328   0.856 -0.0134 -0.0929 -0.1106
21103W        W36572   5.401   2.397   3.009  0.1539  0.2105  0.2646
21104W        W36573   8.526  16.547   3.137 -0.1156  0.1650 -0.1204
21105W        W36574  15.216  13.799  11.924  0.0075 -0.3450 -0.1063
21106W        W36575  14.328   4.292   0.300 -0.0137 -0.2329 -0.2157
21107W        W36576  12.321   9.963   1.640  0.0305  0.1643 -0.2839
21108W        W36577   3.712  13.064  12.258  0.0813 -0.1696 -0.4031
21109W        W36578  10.021   2.785  14.986  0.3880 -0.2268  0.1322
21110W        W36579  13.444   7.599  12.073 -0.5319 -0.2330  0.1022
21111W        W36580  16.370  18.096  15.183 -0.1547  0.2142  0.0154
21112W        W36581  17.553  14.583  11.336 -0.2403 -0.0213 -0.1084
21113W        W36582  11.810  16.104   1.560  0.0019 -0.1294 -0.0425
21114W        W36583   2.131  10.991   0.083 -0.2938 -0.0737  0.1962
21115W        W36584   6.391   7.080   1.739  0.2737 -0.0315  0.1194
21116W        W36585   5.520   0.601   4.074 -0.3582 -0.0459  0.1897
21117W        W36586   7.042  12.207   9.935  0.5068 -0.0506  0.0974
21118W        W36587  12.533  14.928  15.959  0.0987 -0.1236  0.0927
21119W        W36588  14.680   4.411   3.036  0.0985  0.2991  0.2702
21120W        W36589   5.859   1.489   1.943  0.0364  0.0466  0.1238
21121W        W36590   6.001  17.594   3.417  0.3239 -0.3980 -0.1332
21122W        W36591   3.189  12.431   5.295  0.1425  0.0317 -0.1102
21123W        W36592   2.380  13.178  12.895  0.0101 -0.2075 -0.1855
21124W        W36593   4.844   3.582  12.638 -0.4210 -0.0468 -0.0981
21125W        W36594   6.426   3.405  14.096 -0.5721 -0.1747  0.0167
21126W        W36595  15.441   6.725   3.098  0.1387 -0.1644  0.2310
21127W        W36596   3.939   4.794  15.636  0.1527 -0.1885  0.0071
21128W        W36597   4.138   1.761   4.922 -0.3737 -0.1966  0.4299
21129W        W36598  12.532  15.563   4.970  0.1101 -0.2417  0.0334
21130W        W36599   2.984   6.168   0.188  0.0331 -0.0978  0.0968
21131W        W36600   5.324   0.372  11.812 -0.0302  0.0774  0.1255
21132W        W36601   7.412  10.710   0.716 -0.1573 -0.1468  0.2278
21133W        W36602  11.109  10.776   4.286 -0.0898  0.1492 -0.4313
21134W        W36603  12.088   4.292   4.367  0.0117 -0.0077 -0.2425
21135W        W36604   6.348  18.011  12.374  0.0757  0.1051  0.0271
21136W        W36605  16.999   6.064   4.128 -0.1539 -0.2133  0.1559
21137W        W36606  17.864  13.463   2.701  0.2754  0.0160 -0.0891
21138W        W36607   6.417   0.473  14.402  0.1840  0.0331  0.0067
21139W        W36608  17.066   3.688   4.328 -0.1249 -0.1486  0.0620
21140W        W36609  15.276  16.483  13.349 -0.0291  0.0198  0.4041
21141W        W36610  10.246   4.763   4.776 -0.2268 -0.2271  0.0324
21142W        W36611   0.229   0.472   0.248 -0.1467 -0.4713  0.0607
21143W        W36612   1.227   4.070   2.432 -0.2110 -0.1040 -0.3974
21144W        W36613  11.606  10.675  12.694 -0.1595 -0.0612  0.0729
21145W        W36614  13.504   6.015   3.143  0.0624 -0.0460  0.1248
21146W        W36615  17.872   9.797   2.455  0.1989  0.0848 -0.4883
21147W        W36616  12.688   6.274   0.303  0.1288 -0.1122  0.1585
21148W        W36617   6.047   2.279   1.142 -0.1570 -0.1887 -0.1389
21149W        W36618   2.931   5.150   3.594  0.0657 -0.2853  0.4530
21150W        W36619   4.627   6.052  15.067  0.0436 -0.0725  0.0881
21151W        W36620   4.966  16.521  11.251 -0.0141 -0.2931  0.0078
21152W        W36621  10.865   3.230   3.732  0.3460 -0.0631  0.0237
21153W        W36622  11.411   3.881   4.081  0.0209  0.1705  0.1349
21154W        W36623   2.110  11.004  11.841  0.0789  0.1207  0.1529
21155W        W36624   7.404   9.044  15.312 -0.0660  0.2314 -0.1150
21156W        W36625   4.291   0.077  14.028 -0.1367 -0.0738 -0.1781
21157W        W36626  15.019   7.256  13.814  0.0411  0.0325  0.0693
21158W        W36627  11.813   1.467   0.948  0.4173  0.1044  0.0090
21159W        W36628  12.442  10.350  15.823 -0.2077 -0.0405 -0.0753
21160W        W36629   7.939   7.013  15.601  0.1258  0.1154 -0.0560
21161W        W36630   9.900   2.444  14.531 -0.1242 -0.0768  0.0299
21162W        W36631  17.788   5.794   5.943 -0.1898  0.2444 -0.2759
21163W        W36632   1.106   9.931  10.720  0.3053 -0.1729 -0.4562
21164W        W36633   3.687   6.898   1.856  0.2544 -0.0860 -0.0377
21165W        W36634  11.543   3.287  13.946  0.0079 -0.3890 -0.1788
21166W        W36635  10.740   1.153  10.945 -0.1722 -0.1675 -0.2683
21167W        W36636   8.149  14.078   2.580  0.1805 -0.0222  0.2062
21168W        W36637   0.841  16.125  12.403 -0.1742 -0.1711 -0.3059
21169W        W36638  12.262  10.518   1.148 -0.2912  0.1409 -0.1646
21170W        W36639   3.799  15.204   6.099  0.1358  0.2462 -0.0174
21171W        W36640  14.218   7.011   5.460 -0.0966 -0.0396 -0.0323
21172W        W36641   5.579  13.028   0.564 -0.1963 -0.0668 -0.1276
21173W        W36642   4.176   3.078  13.898 -0.0214 -0.0439 -0.0242
21174W        W36643  14.859  15.238  10.057 -0.1623 -0.3334  0.0102
21175W        W36644   1.731  17.965   3.555 -0.0132  0.1061  0.0766
21176W        W36645   3.025   5.313  13.855  0.0954  0.2138 -0.3991
21177W        W36646  10.733  10.425  12.648 -0.0092  0.3551  0.2121
21178W        W36647  11.530   0.339   5.079 -0.3413 -0.3378  0.4325
21179W        W36648   1.674   2.745   5.500  0.1719  0.1261  0.2204
21180W        W36649   9.037   4.959   3.464 -0.0168 -0.0246 -0.2208
21181W        W36650   1.327   5.645   0.335 -0.2491 -0.4553  0.1214
21182W        W36651   6.506   7.029   4.753 -0.0120 -0.2358 -0.0447
21183W        W36652  17.238  12.304  15.492 -0.0866 -0.1168  0.0456
21184W        W36653  14.848  10.746   2.346 -0.1097 -0.2448 -0.3887
21185W        W36654   8.774   6.696  10.497  0.2361  0.1593  0.1566
21186W        W36655   8.879   0.352   4.469 -0.2202  0.1433  0.3623
21187W        W36656   6.491  12.878  15.391  0.2609  0.0198  0.0835
21188W        W36657  13.091   0.559  11.513 -0.1234  0.1542 -0.1660
21189W        W36658   1.135   6.640   3.718  0.1210 -0.0715 -0.0855
21190W        W36659  16.290  13.318  11.137 -0.0283 -0.2675 -0.1797
21191W        W36660  16.268   7.288  12.032  0.0843  0.1913  0.1262
21192W        W36661  11.943  17.903   4.260  0.0670 -0.2627 -0.2326
21193W        W36662  15.185  16.493  12.089  0.1340  0.2879  0.2959
21194W        W36663   0.499   4.673   2.123 -0.1860 -0.0910  0.3252
21195W        W36664   7.195  10.951   1.697  0.1330 -0.0751 -0.2725
21196W        W36665  16.616  14.166  11.987 -0.1190 -0.1497 -0.1454
21197W        W36666  13.498  17.668  11.096 -0.2512  0.1024  0.2446
21198W        W36667   3.537   9.873  16.204 -0.0705  0.0398  0.4221
21199W        W36668  12.420  10.986   3.623  0.0163 -0.1279  0.0532
21200W        W36669  10.695   7.511  13.974 -0.0316 -0.0458 -0.0654
21201W        W36670   0.989  13.774   5.983  0.3471  0.0628  0.2244
21202W        W36671   3.577  10.455  13.391  0.4970 -0.0231  0.0177
21203W        W36672   5.480   6.384  14.076 -0.0270 -0.1235 -0.0262
21204W        W36673   3.594  13.792   3.100  0.0632 -0.3009  0.3490
21205W        W36674   9.317   8.075  13.371 -0.0760 -0.3590 -0.0619
21206W        W36675   2.875   6.684   1.902  0.1336 -0.1898  0.0140
21207W        W36676  10.992   1.026   2.851 -0.0296 -0.0637  0.1951
21208W        W36677   5.863  14.491  16.068  0.0123  0.0135 -0.1746
21209W        W36678   9.152   9.374  14.499 -0.2264  0.1531 -0.4279
21210W        W36679   2.420   8.339  14.506  0.0337  0.0494  0.0835
21211W        W36680   4.041  17.667  11.369  0.1702 -0.2082 -0.3198
21212W        W36681  17.931   1.968  12.003  0.1857 -0.1323 -0.0703
21213W        W36682  16.059  12.334  15.228  0.0227 -0.0040  0.3504
21214W        W36683   8.599   7.832  12.978 -0.0745 -0.0683  0.0536
21215W        W36684   9.148  10.274   1.494 -0.2160 -0.0224  0.1346
21216W        W36685  14.587   1.219  15.610 -0.0165  0.1507 -0.1186
21217W        W36686   8.373  15.717   1.101 -0.1141 -0.1131 -0.1586
21218W        W36687   4.499   6.686  10.827 -0.2351  0.1012  0.0026
21219W        W36688  16.780   5.256  13.889 -0.2409 -0.0980  0.3718
21220W        W36689   1.612   8.544  14.151  0.1256 -0.2857 -0.2012
21221W        W36690   9.695   4.410   1.387 -0.2237 -0.1487 -0.0430
21222W        W36691   5.356   2.701  11.350 -0.0384  0.2602  0.1166
21223W        W36692  12.120   2.740   1.101 -0.0515  0.0334 -0.1499
21224W        W36693   0.822   9.892   5.591 -0.2992 -0.1536 -0.0832
21225W        W36694   9.764  12.457  10.972  0.2735 -0.0563  0.1060
21226W        W36695  14.659  10.130   0.796  0.2091  0.1535 -0.1263
21227W        W36696  16.895  15.965  15.754  0.0549  0.2599 -0.0416
21228W        W36697  16.172   2.371   4.122 -0.1671  0.1581 -0.0396
21229W        W36698  17.501   1.503  14.539 -0.0416  0.2834  0.0331
21230W        W36699   1.081   5.831   4.460  0.1213  0.0874 -0.2128
21231W        W36700  12.991  18.037   5.532 -0.1761  0.3664  0.1054
21232W        W36701   0.022   2.094  15.980  0.2721  0.3241  0.1535
21233W        W36702  15.400   7.140   0.182 -0.0649  0.0441  0.0300
21234W        W36703   9.478  14.692  15.647  0.0556  0.1532 -0.0122
21235W        W36704   0.306  15.261   3.385  0.1606  0.1197 -0.0410
21236W        W36705  14.531   8.503  15.105 -0.0916 -0.0520 -0.2112
21237W        W36706   3.049  10.911   5.309 -0.0448 -0.1123  0.2790
21238W        W36707  12.451  12.798   2.512  0.0610  0.1555  0.0610
21239W        W36708  14.606  17.807  12.943 -0.2195  0.1778  0.3171
21240W        W36709   7.020   9.796  13.819  0.1337 -0.0906 -0.0921
21241W        W36710  13.948  16.671  10.565 -0.2363 -0.0100 -0.0318
21242W        W36711  10.255  14.615   4.340 -0.2027 -0.1307  0.4336
21243W        W36712   8.146   2.781   3.698 -0.0169  0.0266  0.0756
21244W        W36713   3.707  12.206   4.303  0.0781 -0.1485 -0.0108
21245W        W36714  16.489   6.057  12.697  0.2298 -0.1218  0.0149
21246W        W36715  15.347   0.979  12.839  0.0737 -0.2905 -0.4003
21247W        W36716  16.800   2.080   3.390  0.3883 -0.0034 -0.1729
21248W        W36717   0.085   4.438   1.855  0.0299  0.0830  0.1042
21249W        W36718   1.206   7.278  11.366  0.1755  0.1064 -0.1794
21250W        W36719   2.025  15.423   5.284  0.1713 -0.0027 -0.3022
21251W        W36720   0.369   6.691  12.871  0.0101 -0.0421  0.2637
21252W        W36721  13.724   1.743   3.502 -0.0005  0.1535 -0.1948
21253W        W36722  13.906  12.934  13.941  0.1951  0.0833 -0.1363
21254W        W36723  11.210  14.373   4.406  0.0988  0.0691 -0.0977
21255W        W36724  17.969  10.284  11.707  0.4337  0.2458 -0.0716
21256W        W36725   0.339  14.320   1.051 -0.0287  0.3340  0.2225
21257W        W36726  16.610  15.782   0.643  0.0162  0.2100  0.0061
21258W        W36727  17.227   8.505  15.651  0.1546  0.2398  0.1073
21259W        W36728   4.956   2.557  11.716  0.0962  0.4032 -0.0300
21260W        W36729   2.696   1.636   5.097  0.1860  0.3211 -0.1612
21261W        W36730   5.822   2.962  15.270 -0.2689  0.3185 -0.1622
21262W        W36731   8.201   1.960  10.246 -0.0786  0.2020  0.2082
21263W        W36732  16.811   6.138  13.677 -0.1837 -0.1923  0.3548
21264W        W36733  10.888   8.977  14.910  0.1277  0.1352 -0.0438
21265W        W36734   8.126   2.452   5.553  0.2088 -0.1858  0.0722
21266W        W36735  17.838  11.144  15.428  0.0213  0.3037  0.1127
21267W        W36736   0.566  17.033   1.153  0.4207  0.1594 -0.0508
21268W        W36737  10.043  10.453   3.199 -0.0990  0.1252  0.0283
21269W        W36738   8.280   3.594   0.498 -0.0285  0.0134  0.1462
21270W        W36739  14.058  12.844   2.795  0.0437 -0.2916  0.2239
21271W        W36740   9.551  17.689   6.349 -0.0652  0.1161  0.0669
21272W        W36741  15.862  12.087   1.148  0.0215  0.0136 -0.0407
21273W        W36742   2.772   6.154   4.610 -0.0565 -0.0287 -0.0839
21274W        W36743   7.548   3.856   4.754  0.0619 -0.0864 -0.0334
21275W        W36744   4.803   0.456   2.307  0.0936  0.1204 -0.1295
21276W        W36745   2.627  11.943  11.028 -0.1167 -0.1208  0.0185
21277W        W36746  17.735   3.602   5.028 -0.2194 -0.1699  0.0100
21278W        W36747   4.020   8.625   4.103  0.0244 -0.0405 -0.0674
21279W        W36748   5.325   7.521  13.445 -0.1590 -0.3773 -0.0372
21280W        W36749   0.630  10.088   0.871 -0.3894 -0.1130 -0.0327
21281W        W36750   0.836  10.561   3.076  0.0092 -0.1476 -0.1109
21282W        W36751   1.695  15.713  12.703  0.1564  0.1350 -0.2099
21283W        W36752   5.485   3.605  13.104 -0.2490 -0.0900 -0.0303
21284W        W36753   1.294   3.139   5.566  0.0162 -0.0068 -0.3299
21285W        W36754  17.306  17.726  15.720 -0.2235  0.1867  0.1689
21286W        W36755   9.745   9.300   0.622  0.2156 -0.1784 -0.1626
21287W        W36756  14.513  14.334  14.191  0.3718  0.0788  0.1840
21288W        W36757  10.997   5.204  15.444  0.3958  0.0819 -0.1639
21289W        W36758   5.944  11.381   3.151  0.5498 -0.1402  0.0564
21290W        W36759  17.395   9.744   0.651 -0.0399  0.0345 -0.2409
21291W        W36760  11.226   9.194   2.939 -0.0582 -0.3377 -0.0347
21292W        W36761  15.677   0.046  14.203 -0.2362 -0.0117 -0.2395
21293W        W36762   5.016  17.145   5.791 -0.1704 -0.0436  0.0290
21294W        W36763   1.038   0.545  11.119 -0.1466 -0.0273  0.0266
21295W        W36764   8.642   7.282   1.487  0.0991 -0.3658  0.0236
21296W        W36765   7.466  13.122   2.999  0.1350 -0.1556 -0.1117
21297W        W36766   6.284   6.578   6.648  0.3451 -0.1409 -0.1044
21298W        W36767   9.475   3.983   4.245  0.0083 -0.0778  0.2159
21299W        W36768  13.897   7.239   2.402  0.0884  0.0425  0.2208
21300W        W36769   5.036  17.583  13.012  0.2646  0.2933 -0.1977
21301W        W36770   2.347  16.201  15.230  0.0319 -0.0762 -0.1750
21302W        W36771   1.451  17.479  14.863  0.2906  0.1017 -0.0001
21303W        W36772  14.620   3.720   5.368  0.0871 -0.0205  0.0909
21304W        W36773   5.364   2.472  14.539 -0.4077  0.2301 -0.0840
21305W        W36774   2.478   2.556   5.095 -0.0597  0.0468  0.0418
21306W        W36775   9.636   7.823  15.228 -0.0019  0.0337 -0.0595
21307W        W36776   3.872   0.517   2.315  0.0408 -0.0314 -0.2496
21308W        W36777  11.507  17.147  10.562  0.0453  0.0100  0.2439
21309W        W36778  10.366   0.716   0.517  0.0609 -0.1223 -0.0671
21310W        W36779   6.893   2.013   1.441 -0.0346 -0.1549  0.2073
21311W        W36780  11.594  12.804   4.614  0.0054 -0.2672 -0.1362
21312W        W36781   7.644   7.448   4.141 -0.0450  0.0495  0.0265
21313W        W36782   2.102   4.027   4.278 -0.2284 -0.2838  0.1732
21314W        W36783   5.383   2.890  11.918 -0.1848  0.1514  0.2288
21315W        W36784   3.038   6.180   2.770 -0.0993 -0.0775 -0.0627
21316W        W36785   0.511   1.915   4.617 -0.0199  0.0802  0.0418
21317W        W36786  15.257  17.551  13.538  0.0371 -0.0123  0.1459
21318W        W36787   9.072  12.229   2.289 -0.0674  0.2556 -0.1336
21319W        W36788   2.500  18.030  11.937  0.0722  0.0026 -0.1069
21320W        W36789  11.108   9.692  13.937  0.0025  0.1194 -0.1206
21321W        W36790  14.045  15.615   4.514  0.0953 -0.4559 -0.0070
21322W        W36791  16.124  16.131  10.650 -0.2475 -0.2607  0.0537
21323W        W36792   2.373  16.151  14.456  0.3364  0.1390 -0.4119
21324W        W36793   8.514  14.939  13.320 -0.0680 -0.0125  0.2160
21325W        W36794  14.079   7.132   3.783  0.1620 -0.2607  0.2375
21326W        W36795  15.088  15.705   1.391 -0.1108  0.0332  0.3244
21327W        W36796   3.229  13.122   3.332  0.0075 -0.1610  0.1947
21328W        W36797   1.832   2.757   2.394  0.1934  0.0503  0.1783
21329W        W36798   5.958  15.752   1.832  0.0194  0.1499 -0.0844
21330W        W36799  13.145   4.768  15.423 -0.0667 -0.1929  0.0423
21331W        W36800  14.002  14.905   4.867 -0.3660  0.1424  0.0967
21332W        W36801  17.343  15.870   5.500 -0.0871  0.0822  0.2915
21333W        W36802  10.473  11.921  11.158 -0.0862  0.0544 -0.0345
21334W        W36803  13.514  10.339   5.934 -0.0253 -0.0161 -0.0062
21335W        W36804  14.331   0.434  15.803 -0.3396 -0.0974 -0.0453
21336W        W36805   5.428  15.671   3.446  0.2140 -0.0740 -0.2448
21337W        W36806  14.055   0.118  10.939  0.1395  0.0510  0.1075
21338W        W36807   2.192   2.361   3.642 -0.0611 -0.0336 -0.0682
21339W        W36808   6.374   0.370  15.654 -0.0091 -0.1288 -0.2775
21340W        W36809  10.454   2.126   2.376 -0.2032  0.2496  0.0594
21341W        W36810   0.134  17.342   2.841 -0.0653 -0.2807 -0.0301
21342W        W36811  18.034   3.912  15.946  0.1562 -0.0142 -0.1800
21343W        W36812   6.934  13.546   2.301  0.1626 -0.0397 -0.0803
21344W        W36813   9.301   5.505   1.461 -0.0140 -0.0731  0.1503
21345W        W36814  12.942   7.364  13.181  0.2456  0.3341  0.2204
21346W        W36815   1.438   9.856  13.278 -0.0789  0.2176  0.2426
21347W        W36816   7.036   4.444  14.664 -0.3307 -0.1636 -0.0547
21348W        W36817   3.607   5.976  12.312 -0.2115  0.2249  0.1640
21349W        W36818   9.502   4.967   5.861 -0.0933  0.1240 -0.0990
21350W        W36819   5.803   9.235  11.558 -0.2176  0.0683 -0.1278
21351W        W36820   0.854   4.176  15.981 -0.2183 -0.0383  0.0757
21352W        W36821  10.693  13.611  14.032  0.3021  0.0604 -0.0810
21353W        W36822  11.366  15.799   1.561 -0.0680 -0.1704  0.4389
21354W        W36823  14.634   4.833   1.625  0.1080 -0.1606 -0.1256
21355W        W36824   1.753  10.945   2.986  0.1543 -0.3671 -0.1643
21356W        W36825  14.405   1.990   4.728 -0.1978 -0.0703  0.1776
21357W        W36826  12.052   7.636   4.902 -0.0266  0.0324 -0.0481
21358W        W36827  16.826   0.050   0.574  0.0640 -0.0331  0.2801
21359W        W36828   5.742   0.755  13.210 -0.0600  0.3019  0.1075
21360W        W36829   0.343   3.753   2.533  0.2684 -0.1893  0.0023
21361W        W36830   9.463   3.163   2.351  0.0174  0.1573 -0.1293
21362W        W36831  12.272  13.231   5.799 -0.1627 -0.1164  0.1374
21363W        W36832   0.840  15.799   1.289  0.1527  0.0671 -0.1825
21364W        W36833  14.805  13.672  11.663 -0.0835 -0.0292  0.2241
21365W        W36834   0.494  11.344   2.529  0.0702 -0.0098  0.0551
21366W        W36835   3.017  15.300  12.011 -0.1700  0.0673  0.0633
21367W        W36836  16.058  11.052  12.491 -0.0377  0.1737  0.1763
21368W        W36837   9.863  16.768  11.786 -0.2847  0.0230  0.3805
21369W        W36838  11.953   0.068   3.036 -0.1787 -0.0307  0.2291
21370W        W36839   2.705  18.086   0.694 -0.1387  0.0702  0.0998
21371W        W36840  14.907   6.980  15.247  0.1348 -0.0401 -0.1548
21372W        W36841   7.211   3.616  13.086 -0.2111  0.1402 -0.1394
21373W        W36842  17.419   9.006   5.308  0.0434  0.0167 -0.0728
21374W        W36843   3.233   2.406  11.004 -0.0157  0.3172 -0.2791
21375W        W36844  15.000   6.787   1.748  0.0598 -0.2240  0.1124
21376W        W36845   2.318  11.245   2.848  0.0440  0.1233 -0.4388
21377W        W36846  16.590   0.321  13.358 -0.3820  0.2951  0.4884
21378W        W36847  10.719  14.975   5.036 -0.0529 -0.2258 -0.2426
21379W        W36848   6.294  17.804   2.254 -0.2685 -0.1885 -0.2505
21380W        W36849  15.613   2.733  14.364 -0.0877  0.1952 -0.1114
21381W        W36850   4.650  12.449   3.878  0.2625  0.0261 -0.2292
21382W        W36851   9.272   1.417   5.607  0.1532  0.0154 -0.1437
21383W        W36852   1.615   8.899   9.969  0.1655  0.2964 -0.0818
21384W        W36853   8.884   3.127   0.094  0.2545 -0.0840  0.0724
21385W        W36854   5.462  11.623   1.220 -0.1307 -0.1913 -0.1282
21386W        W36855   5.891   5.821  13.370 -0.0738  0.4964 -0.1389
21387W        W36856  12.622  15.722  12.025 -0.2255  0.1887  0.3006
21388W        W36857   4.778  12.552   4.409 -0.2104  0.1300  0.4296
21389W        W36858   1.656  17.359   0.310 -0.2239  0.0889 -0.0556
21390W        W36859   1.221   1.553   4.099 -0.2084  0.1051  0.3288
21391W        W36860  15.846  14.271  12.899  0.0041 -0.2044  0.0467
21392W        W36861   0.122  17.531  14.872 -0.1506 -0.1440  0.2815
21393W        W36862  13.044   4.322   4.129 -0.1663  0.0963  0.0223
21394W        W36863  15.120   4.184   5.501 -0.0166 -0.0639 -0.2052
21395W        W36864  13.864  16.176   2.580 -0.1119 -0.0856  0.0934
21396W        W36865   8.984  15.766   4.268 -0.0041  0.3353 -0.0051
21397W        W36866   5.067   8.072   4.616  0.0587 -0.2896 -0.2020
21398W        W36867   8.583   1.703  15.949 -0.0682 -0.2064 -0.0619
21399W        W36868   7.192  11.305   2.349  0.3884 -0.2040  0.2183
21400W        W36869  11.214  13.573  14.873  0.1289  0.0159  0.1468
21401W        W36870  10.577   4.922  12.054 -0.0195  0.0677 -0.0573
21402W        W36871   6.195  13.981  15.480 -0.2018  0.0918  0.1936
21403W        W36872   4.506   3.977  10.643 -0.1742  0.0700  0.2817
21404W        W36873  14.907   1.768   1.019  0.0131  0.1917 -0.2375
21405W        W36874   4.397   7.901   1.152 -0.3203 -0.0954 -0.1278
21406W        W36875  15.943   3.922  15.753 -0.0385 -0.1216  0.1467
21407W        W36876   1.332   2.451  11.999 -0.2516  0.2461  0.1504
21408W        W36877  11.234  16.790  11.638  0.1613 -0.0742  0.0812
21409W        W36878   8.035   9.757   0.159  0.0308  0.2989 -0.0991
21410W        W36879  10.587  17.552   5.412  0.2469 -0.0694  0.2228
21411W        W36880  14.841  11.937   4.746 -0.0408 -0.0727 -0.0473
21412W        W36881   3.246  10.519   3.658  0.2119 -0.2011  0.0988
21413W        W36882   2.342  13.553  12.230 -0.3879  0.1555  0.0879
21414W        W36883   5.289  11.387  14.339 -0.1412  0.0655  0.1850
21415W        W36884   2.014  11.426  15.771  0.2094  0.0787 -0.3475
21416W        W36885   1.032  17.342  11.229  0.1849  0.0413  0.0248
21417W        W36886  10.849  16.008   2.463  0.0703 -0.1395  0.0540
21418W        W36887  17.551   0.935  16.125 -0.3403 -0.0052 -0.3287
21419W        W36888   8.670  17.430   1.864 -0.0352  0.0778 -0.1616
21420W        W36889  18.030  10.484   2.754 -0.1003 -0.1517 -0.3047
21421W        W36890   9.329   6.002  12.031  0.1917 -0.1381  0.0748
21422W        W36891   8.622  11.873  14.638 -0.1787 -0.3168 -0.1365
21423W        W36892   9.181  12.692  12.865  0.2330 -0.1100 -0.2073
21424W        W36893   0.598  14.669  11.882 -0.0576 -0.2450 -0.2529
21425W        W36894   7.368   7.313  13.885  0.1343 -0.0914  0.0689
21426W        W36895  17.478   5.369  13.720  0.0567 -0.0397  0.3224
21427W        W36896  16.609  11.922   1.646 -0.0458  0.0248  0.1450
21428W        W36897   4.657  17.396   4.162  0.0218  0.1535  0.2251
21429W        W36898  16.021   9.993  13.399 -0.2048  0.1458  0.3681
21430W        W36899  14.708  14.043  13.701 -0.0560  0.2333 -0.3108
21431W        W36900   8.948  15.361   1.932  0.1026 -0.1460 -0.2230
21432W        W36901   9.522  10.761  10.460 -0.2180  0.0594 -0.2149
21433W        W36902   5.322   8.733  11.614  0.0622  0.0925 -0.0880
21434W        W36903  10.803  17.804   2.954 -0.3379 -0.1057  0.1479
21435W        W36904   8.001  12.682  14.977  0.2830  0.2674 -0.2555
21436W        W36905   2.234   1.037  13.316  0.1708 -0.1523  0.2231
21437W        W36906   1.898   1.752  12.948 -0.0726 -0.3426 -0.0928
21438W        W36907  13.385  15.964  14.267  0.2568  0.1109 -0.0413
21439W        W36908   4.599   3.936  13.463 -0.2434 -0.1748  0.1438
21440W        W36909   3.834   4.658  16.315  0.4259  0.1274  0.1815
21441W        W36910   3.920  11.835  11.306 -0.0290  0.3343 -0.2109
21442W        W36911  18.053   4.393  15.694  0.2052 -0.0492 -0.1714
21443W        W36912   1.632   9.567   5.097 -0.1257  0.0365 -0.0423
21444W        W36913   7.479  18.053   4.695 -0.0154 -0.2483  0.2833
21445W        W36914   2.553   4.533  10.564 -0.3585 -0.2069  0.0008
21446W        W36915  17.440   5.432   4.931  0.0070 -0.0264 -0.1011
21447W        W36916   5.423   5.087   2.421 -0.1538 -0.2301  0.2116
21448W        W36917  17.020  14.500  12.105 -0.0367  0.0248  0.2212
21449W        W36918   2.241   8.879  10.904  0.0189  0.0575  0.1210
21450W        W36919   4.029  17.080   2.946  0.1276 -0.0013  0.1353
21451W        W36920  11.253   3.103  11.835 -0.1279 -0.2952 -0.0085
21452W        W36921   5.655  11.819   2.930 -0.2517 -0.0017  0.5196
21453W        W36922   3.711  16.427   4.244 -0.0872  0.0328 -0.1996
21454W        W36923  12.692   0.895   0.176 -0.3003  0.2195  0.2773
21455W        W36924  16.434   3.605  14.475 -0.2118 -0.3384  0.2106
21456W        W36925   9.170   2.898  11.452 -0.3209 -0.0738 -0.0377
21457W        W36926   1.743   7.360  13.573  0.2461 -0.0323 -0.0697
21458W        W36927   2.826   7.481   3.449  0.1427 -0.0109 -0.0969
21459W        W36928   1.340  16.717  14.169  0.0650  0.0712  0.2950
21460W        W36929  16.040  13.033   4.391  0.0191  0.2961 -0.1356
21461W        W36930  13.877   5.575  12.290 -0.3132  0.1552  0.1480
21462W        W36931   3.938   4.470  11.359 -0.0123  0.0114 -0.0075
21463W        W36932   8.882   2.878   2.573  0.1982  0.0071 -0.0295
21464W        W36933  18.065   8.038   3.812  0.0483 -0.0989  0.0454
21465W        W36934   5.302  12.098   6.065 -0.2873 -0.0426  0.0421
21466W        W36935  12.231   3.608  13.362 -0.0907 -0.0129 -0.1598
21467W        W36936   8.501   7.890  15.446  0.3588  0.0811 -0.0753
21468W        W36937   4.663  11.320   0.871  0.1918 -0.1722 -0.0421
21469W        W36938  16.351   2.043  11.972 -0.0232 -0.0388 -0.1026
21470W        W36939  17.040  15.957  13.266  0.1088 -0.0599  0.0616
21471W        W36940   5.510  15.772  11.292 -0.0547  0.0767 -0.0582
21472W        W36941   3.012  14.641   5.170  0.2417 -0.1902  0.0554
21473W        W36942  14.268  17.224   0.540  0.0476 -0.1133  0.0472
21474W        W36943   4.254   4.703  12.005  0.1800  0.0523  0.0279
21475W        W36944  17.054  14.618   0.123  0.1187 -0.0348 -0.2803
21476W        W36945   7.466   7.540  12.582  0.0981  0.1566  0.0428
21477W        W36946   0.198   4.188   2.749  0.0551 -0.2095  0.0532
21478W        W36947  17.545  13.099   5.067 -0.0785  0.2428 -0.0367
21479W        W36948   1.117   0.266   0.331 -0.0057 -0.2713 -0.0948
21480W        W36949   9.214   9.321   2.037 -0.0119 -0.1457 -0.2516
21481W        W36950  16.264   7.123   1.353  0.0089  0.0012 -0.1837
21482W        W36951  14.831  15.415   5.034 -0.0720  0.0316 -0.0169
21483W        W36952   4.912  10.684  12.871 -0.2015 -0.0800 -0.0940
21484W        W36953   6.940   9.888  15.276 -0.3028  0.0619 -0.3090
21485W        W36954   6.654   8.798   4.919 -0.0978 -0.1858 -0.2684
21486W        W36955  17.329  12.241  12.340 -0.0231  0.1378 -0.1231
21487W        W36956  13.871   1.731  15.939  0.0183  0.2073 -0.0349
21488W        W36957   6.972   2.902   5.897  0.1284  0.0237  0.0622
21489W        W36958  15.673   4.972   1.071 -0.1151 -0.3947  0.1692
21490W        W36959  10.010  14.184  12.394 -0.0219  0.1987 -0.0736
21491W        W36960   9.686  16.044  13.317 -0.0594 -0.0095 -0.2608
21492W        W36961  14.127   9.882  11.465 -0.3719  0.3343  0.1652
21493W        W36962   9.444  15.195  15.337 -0.2210  0.3011  0.0446
21494W        W36963   5.206   0.738  15.105 -0.3701 -0.1863 -0.2587
21495W        W36964   8.042   0.560  11.689 -0.0588 -0.3612 -0.1292
21496W        W36965  12.716   7.625   4.123 -0.0270  0.1152 -0.1976
21497W        W36966   6.205   9.015   2.959 -0.2040  0.0347 -0.1507
21498W        W36967  11.474   8.396   0.587  0.1570 -0.1092  0.0345
21499W        W36968  15.707   0.548   3.922 -0.1454  0.0190 -0.0343
21500W        W36969   8.440  16.773  15.136  0.2305 -0.0077  0.0238
21501W        W36970  14.399  13.591  10.810 -0.1204  0.1130  0.2498
21502W        W36971   9.521  17.248  16.275  0.0792 -0.1786  0.1376
21503W        W36972   3.017  15.667   4.976 -0.0666 -0.0749  0.1725
21504W        W36973  15.979  12.865  14.481 -0.0039 -0.1905 -0.0684
21505W        W36974  15.606  11.976   2.299  0.2749 -0.0441 -0.1741
21506W        W36975  13.297  11.455   5.009 -0.1716  0.1260 -0.0179
21507W        W36976   4.250  12.244  12.768  0.0940 -0.0997  0.1480
21508W        W36977  17.805  13.725  10.863 -0.1561 -0.0710 -0.0755
21509W        W36978  11.617  11.266  12.066  0.0133  0.2771  0.0002
21510W        W36979   3.585   3.824   5.601 -0.2210 -0.0222 -0.1916
21511W        W36980   7.939   8.999  12.738 -0.0226  0.1972  0.1122
21512W        W36981  12.158  17.410   3.174  0.2275  0.2963 -0.0718
21513W        W36982   2.823  15.257  14.936  0.0250 -0.0810  0.4232
21514W        W36983   2.364   6.919   4.201 -0.3241 -0.2092  0.0798
21515W        W36984  13.471   3.985   2.589 -0.2066  0.5393  0.2336
21516W        W36985   3.301   6.884  15.580  0.1700  0.0543 -0.1139
21517W        W36986   0.691   0.951  11.406 -0.0031 -0.1695 -0.2176
21518W        W36987   8.505   1.662   5.869 -0.3656  0.2144 -0.2022
21519W        W36988   7.593   1.791  13.019  0.0433  0.2435  0.1126
21520W        W36989  11.628   6.628  12.308 -0.0906  0.0084 -0.2097
21521W        W36990  16.347  16.435  13.089  0.4267 -0.2228  0.1861
21522W        W36991  16.161  18.063   3.285  0.0002  0.1549  0.2673
21523W        W36992   4.445   4.523  12.564 -0.1586 -0.1149  0.0756
21524W        W36993   9.009  11.298   9.871 -0.0564  0.1102  0.0847
21525W        W36994   5.239  13.790  10.824  0.1292 -0.0490  0.2928
21526W        W36995  10.342  14.376  15.386  0.0058 -0.0438  0.0328
21527W        W36996   9.052   3.582   6.789 -0.3359 -0.0133 -0.1617
21528W        W36997   3.100   4.086  16.193 -0.1299 -0.0183 -0.0503
21529W        W36998   8.568  14.285   2.352 -0.2437  0.0452  0.0432
21530W        W36999  16.419  17.037  11.178 -0.0404 -0.0624  0.0492
21531W        W37000  11.392   0.428   2.315 -0.1760  0.4080 -0.0945
21532W        W37001   6.542   5.186   5.708  0.0808  0.2640  0.0672
21533W        W37002   1.277   0.926   1.790 -0.1600  0.0644  0.2730
21534W        W37003  12.162  13.483   0.170  0.1449  0.0320 -0.3965
21535W        W37004   0.093   7.955   2.680 -0.0866  0.0174  0.0482
21536W        W37005   5.882  12.562  12.563  0.0538  0.3604  0.0839
21537W        W37006   7.012   1.862   2.788 -0.1256  0.0903  0.1965
21538W        W37007  16.644  10.104   4.990 -0.0808 -0.0334 -0.2312
21539W        W37008   1.663   8.804  13.393  0.0210  0.0089  0.1338
21540W        W37009   3.224  17.504   2.972 -0.0920 -0.3018  0.0902
21541W        W37010   0.410   5.839  11.820  0.2128  0.0540  0.0368
21542W        W37011   3.042   2.281   3.213 -0.0566 -0.1223 -0.0469
21543W        W37012   1.563   0.032  15.873 -0.3662 -0.0418 -0.1088
21544W        W37013   9.826   7.762  12.774  0.1939  0.2223  0.0875
21545W        W37014   3.811  16.249   4.807  0.2176 -0.2890  0.0896
21546W        W37015   6.440   2.079   4.654 -0.0619 -0.3003 -0.3096
21547W        W37016   0.629  10.180   4.057 -0.2910 -0.0085  0.0076
21548W        W37017  11.585   2.636   5.865 -0.1625 -0.4542  0.0909
21549W        W37018   1.404   8.327   3.837  0.0216 -0.0137 -0.2579
21550W        W37019   7.708   6.039   1.526 -0.1134 -0.1032  0.0491
21551W        W37020   9.964  14.806   0.277  0.1666  0.1909  0.2397
21552W        W37021  14.532  10.204  14.770  0.3621 -0.0191  0.0779
21553W        W37022  17.556  11.476  11.992 -0.3008 -0.0316  0.0026
21554W        W37023  14.351  13.579  12.411 -0.2108  0.1192 -0.2668
21555W        W37024  11.880   6.811   0.551 -0.0684 -0.0691 -0.1574
21556W        W37025  13.428   9.837  12.392 -0.0174  0.0774 -0.2227
21557W        W37026   7.512  13.109   1.925  0.0256 -0.1187  0.0536
21558W        W37027   7.820  17.101   3.715 -0.0123  0.2200 -0.0013
21559W        W37028  16.905  13.144  11.656 -0.0093 -0.1440 -0.1803
21560W        W37029   2.207   3.398  15.201 -0.1136 -0.1557  0.0373
21561W        W37030   1.369   0.936  12.960 -0.1330  0.0998  0.0330
21562W        W37031   6.880   2.478  10.874 -0.2408 -0.1232 -0.2281
21563W        W37032  11.914  10.786   5.687  0.1505  0.0237  0.1548
21564W        W37033   1.429  12.482  11.907  0.3303  0.1873 -0.1134
21565W        W37034   0.896   2.363   2.626 -0.1036  0.0728 -0.0664
21566W        W37035  13.873   6.030   4.797  0.1839 -0.4155  0.1497
21567W        W37036  11.995   7.469   3.422 -0.4113  0.1303  0.2238
21568W        W37037   6.388  15.163  15.626 -0.0272  0.0608  0.1806
21569W        W37038   4.342   7.623   4.569 -0.0907  0.0767 -0.2295
21570W        W37039   0.836  15.505   0.881 -0.1700  0.0346 -0.1286
21571W        W37040  11.650  14.763   2.791  0.0916  0.0456 -0.1077
21572W        W37041  15.063   2.589   5.982 -0.0877  0.1245  0.2636
21573W        W37042  11.159  12.047   4.506 -0.0033 -0.0134  0.2530
21574W        W37043   5.111   6.617  10.722  0.1396  0.0939 -0.2792
21575W        W37044   3.444  13.260  16.008 -0.0593  0.1802 -0.4049
21576W        W37045  10.836   0.731  15.089 -0.2119  0.1458  0.1437
21577W        W37046   1.377  17.755   3.810 -0.3024 -0.1428  0.0539
21578W        W37047  17.498   4.323   2.549  0.3771  0.0774 -0.0080
21579W        W37048   3.606   9.699  13.888  0.2327 -0.1477 -0.1033
21580W        W37049   5.453  16.846   0.482 -0.3655 -0.1267 -0.0511
21581W        W37050   6.780   6.133   3.684 -0.0683 -0.0761 -0.0830
21582W        W37051   9.583  11.984   5.255 -0.1301  0.0019 -0.1698
21583W        W37052   2.531   9.279  12.725 -0.0976 -0.2496 -0.1758
21584W        W37053  10.834   2.859   4.740 -0.1869  0.0818  0.0746
21585W        W37054  16.147  10.668  13.829  0.0184  0.1589  0.2049
21586W        W37055   1.691  17.966   0.927  0.0471 -0.0010 -0.3455
21587W        W37056   1.515  14.764  11.823  0.0936 -0.0638  0.1451
21588W        W37057   6.612   9.501   0.206 -0.1152 -0.3965 -0.0685
21589W        W37058  13.818  15.196   1.561 -0.1865 -0.2627 -0.0146
21590W        W37059   2.919   8.559   1.820  0.0243 -0.0001  0.0924
21591W        W37060  13.617   4.126  14.721 -0.3170 -0.2132  0.0489
21592W        W37061   9.239  17.341  11.756  0.0844  0.1110  0.1238
21593W        W37062   8.073   4.521  14.879  0.1992 -0.1720 -0.0442
21594W        W37063  10.983  16.256  15.601  0.2277 -0.2066 -0.1406
21595W        W37064   8.620   2.123  11.558 -0.3023 -0.1648  0.1094
21596W        W37065   7.685  10.860  14.309  0.1225 -0.0707  0.1137
21597W        W37066  14.165   8.359  12.093 -0.1465  0.2673  0.2919
21598W        W37067   6.195  13.797  15.010 -0.5741 -0.0573 -0.2170
21599W        W37068   3.972  11.289  15.131  0.0860  0.0194  0.2513
21600W        W37069   3.088   8.550  12.525 -0.0745 -0.0671 -0.1436
21601W        W37070   7.041   5.418  14.697  0.0116 -0.0108 -0.2526
21602W        W37071  14.385   1.544  12.541  0.3855  0.0391 -0.0992
21603W        W37072   2.287  16.334  13.959  0.1195 -0.1864  0.2386
21604W        W37073  14.492   1.040  12.487 -0.1449 -0.0968 -0.2571
21605W        W37074  14.733  14.786   1.414  0.3604 -0.0855 -0.1929
21606W        W37075   1.354   4.971  11.337  0.3009  0.0274 -0.1608
21607W        W37076   4.862  14.057  11.074  0.1909  0.3564  0.1980
21608W        W37077   4.667   9.884  12.053 -0.0178 -0.3319  0.3457
21609W        W37078  12.821  12.045  16.029 -0.0199  0.1467 -0.2464
21610W        W37079   0.723  12.700   5.593 -0.0262  0.3569  0.1562
21611W        W37080   3.336   2.592   4.138 -0.0766 -0.0748 -0.0695
21612W        W37081   9.301   1.089  16.137  0.1174 -0.1803  0.1190
21613W        W37082   8.271  10.151   1.646 -0.0607  0.0041  0.0948
21614W        W37083   9.645   1.829   0.468 -0.1315  0.1657  0.1593
21615W        W37084  16.281  15.500   5.003  0.0158 -0.0384 -0.1868
21616W        W37085   5.624  11.595  11.146  0.0889 -0.2008  0.2198
21617W        W37086  10.362  17.372   0.804 -0.0942  0.1675 -0.3666
21618W        W37087   0.548   9.793  12.373  0.2748  0.0735  0.0545
21619W        W37088  16.897   8.461  12.178  0.0880  0.1884 -0.3098
21620W        W37089  10.461   6.539  15.295  0.2854 -0.3462  0.1899
21621W        W37090  13.143  13.288   5.341  0.1598  0.0739 -0.0714
21622W        W37091  15.669   1.706  14.785 -0.2736  0.0988  0.1693
21623W        W37092   5.521   1.835   5.783  0.1710  0.2965  0.0943
21624W        W37093  11.263  13.129  11.786 -0.1267  0.2193  0.3384
21625W        W37094  13.804   6.278  11.157  0.0414 -0.1101 -0.0539
21626W        W37095  17.459   5.720  14.717 -0.0717 -0.1423  0.0645
21627W        W37096   2.613   3.598  14.956 -0.0126  0.2885 -0.1584
21628W        W37097   1.567  14.488   1.563  0.0633  0.0417  0.2357
21629W        W37098   1.424  14.217   4.418 -0.1298  0.1839  0.3051
21630W        W37099   6.061  15.613  16.305 -0.0475  0.0761  0.0457
21631W        W37100   8.969  16.305   1.497  0.2486 -0.2358  0.0934
21632W        W37101   7.038  11.791  15.579 -0.2773 -0.0233  0.2081
21633W        W37102  10.343   2.060  16.297  0.2231 -0.0944 -0.2362
21634W        W37103  10.885  16.021   0.612 -0.0088  0.1844  0.0803
21635W        W37104   5.230   3.834  15.167 -0.1534  0.0976 -0.3036
21636W        W37105   3.592  11.506  14.665  0.2769  0.0141  0.2744
21637W        W37106  16.776   1.184  13.283 -0.2666 -0.0663 -0.0311
21638W        W37107   3.330   0.128  12.955  0.2858  0.2577  0.2572
21639W        W37108   3.687   0.094  11.238 -0.2419 -0.0685 -0.1899
21640W        W37109  11.922   8.842   3.260 -0.0603 -0.2125 -0.0408
21641W        W37110   4.955   3.984  12.116 -0.1545 -0.1143 -0.0030
21642W        W37111   8.960   1.428  16.310  0.2067 -0.0790 -0.0541
21643W        W37112  10.532  17.634  11.357 -0.1024 -0.2099 -0.0390
21644W        W37113   7.997  17.880   2.438  0.2161 -0.1079 -0.1664
21645W        W37114   8.921  17.694   4.960  0.0121  0.1137 -0.1415
21646W        W37115  15.195   4.966  14.206  0.1474 -0.2094  0.0979
21647W        W37116   8.058   3.298  11.169 -0.2807  0.1194 -0.3144
21648W        W37117   2.713   7.155   1.029 -0.0589 -0.1143  0.3053
21649W        W37118  16.679  15.121  15.686  0.0405 -0.1333  0.0764
21650W        W37119  11.581   3.305   2.985  0.0441  0.2914 -0.2170
21651W        W37120  10.991  10.871   1.853  0.0104  0.1898 -0.1627
21652W        W37121  15.491   3.590   4.935 -0.1262 -0.0227  0.0630
21653W        W37122  17.907  11.087  10.505  0.0897 -0.0463  0.3591
21654W        W37123  16.171   9.322   4.815  0.1108  0.1202  0.0178
21655W        W37124   2.882   2.753  11.363 -0.1518  0.0635  0.0030
21656W        W37125   4.285  12.597   4.328  0.0202  0.0866 -0.0241
21657W        W37126   3.849  17.639   3.713 -0.0549 -0.2716 -0.1120
21658W        W37127  10.315   7.378  14.794 -0.0173 -0.0012  0.0715
21659W        W37128   0.209   5.855  15.241  0.0304 -0.0845 -0.1411
21660W        W37129   2.615   8.128  11.680 -0.0106 -0.1482 -0.0575
21661W        W37130   6.473  10.682   2.771  0.0056 -0.2131  0.1756
21662W        W37131   1.178   2.068  14.621 -0.0283  0.0631 -0.0333
21663W        W37132  15.236   2.165   0.945  0.0072  0.0613 -0.1372
21664W        W37133   1.924   6.702   1.563  0.0830  0.0976 -0.1579
21665W        W37134   6.915   8.348   4.855  0.0395 -0.4630  0.0004
21666W        W37135  15.799  12.885  13.893 -0.3592 -0.1435 -0.0069
21667W        W37136   8.183  11.224   1.294  0.0749  0.1117  0.2925
21668W        W37137   2.459   7.505  12.379  0.1239 -0.0761  0.2165
21669W        W37138  14.000  10.459   3.101 -0.2732  0.1178 -0.1144
21670W        W37139  10.038   0.629   2.232  0.1214  0.3085 -0.2455
21671W        W37140   7.584  11.276   3.551  0.1359 -0.0891 -0.2675
21672W        W37141   8.711   9.613  14.462 -0.0445  0.4844  0.0921
21673W        W37142   9.719   8.675  12.360  0.0641  0.0523 -0.1140
21674W        W37143   5.694   9.576  11.166  0.1682 -0.0204 -0.0398
21675W        W37144   2.431   0.335   3.364 -0.0438  0.0454 -0.2688
21676W        W37145   9.715  15.233   2.577 -0.2093  0.0732 -0.2257
21677W        W37146  12.982   5.150   3.161 -0.0136  0.1016 -0.1026
21678W        W37147  15.346  15.604  16.034  0.0819 -0.0584 -0.0963
21679W        W37148  13.861   9.670   2.293  0.0588 -0.1223  0.0674
21680W        W37149   4.101  14.889   5.482 -0.1653  0.1257 -0.2548
21681W        W37150   1.265  12.947  14.329 -0.0542  0.0476  0.3075
21682W        W37151  17.127   7.961  12.635  0.1649  0.0038 -0.2306
21683W        W37152   2.550   8.148   0.799  0.0604 -0.0505 -0.0802
21684W        W37153   5.021   4.937  14.556 -0.0905  0.3243 -0.0962
21685W        W37154   0.825   1.700  14.694 -0.1804  0.0514  0.1597
21686W        W37155  10.918   4.957  14.982 -0.0152 -0.3242  0.0907
21687W        W37156  15.602  10.308   6.023  0.1326  0.0614  0.2968
21688W        W37157  17.454  14.040  14.152  0.1365 -0.4350  0.1186
21689W        W37158   6.864   7.582   4.187 -0.0045  0.2371 -0.1197
21690W        W37159   6.154   6.633  14.758  0.1142 -0.2452  0.1977
21691W        W37160   4.381  11.831  10.983  0.0556 -0.0178 -0.2187
21692W        W37161   8.010  11.103   3.784 -0.0771 -0.1081 -0.0653
21693W        W37162   0.237   4.300   1.357 -0.1520  0.0806  0.0498
21694W        W37163  16.595   3.799   0.159  0.1482  0.1384  0.2904
21695W        W37164   1.126   7.205  15.059 -0.0594 -0.1443  0.2444
21696W        W37165   6.286  15.927  14.696  0.1938  0.1710  0.0034
21697W        W37166  13.998   9.064   0.174 -0.1391 -0.0703 -0.1132
21698W        W37167  12.426  14.144  14.917  0.0333  0.1492  0.1695
21699W        W37168   7.416  11.973  14.378  0.2503 -0.3333  0.1640
21700W        W37169   8.230   7.149   5.914  0.1350 -0.3394  0.2021
21701W        W37170   9.370   7.442  14.324  0.1479 -0.1407  0.0358
21702W        W37171   7.448  11.728  12.921 -0.3638  0.3715  0.1194
21703W        W37172  12.288   5.911   6.250 -0.2995  0.0139 -0.2974
21704W        W37173   8.326   2.309  12.861  0.0556 -0.1963  0.1593
21705W        W37174  16.101   7.828  14.270  0.0631 -0.0699 -0.1303
21706W        W37175  14.354   1.303  16.017  0.1026  0.0000 -0.3220
21707W        W37176  14.730   7.847   2.795 -0.0500 -0.0727 -0.3090
21708W        W37177   3.353  12.146  13.149 -0.3455  0.2248  0.2304
21709W        W37178  14.246  11.026   3.991 -0.0524  0.2978 -0.0055
21710W        W37179  13.553  17.347   2.407 -0.0750 -0.0544  0.1718
21711W        W37180   2.855  12.255  12.877  0.0210 -0.0288 -0.1691
21712W        W37181   8.724   9.435   4.493 -0.0307  0.1115  0.1954
21713W        W37182   7.917  14.451  12.729  0.1933  0.2626 -0.3381
21714W        W37183  17.001   2.339  13.299 -0.3430  0.0168  0.0937
21715W        W37184  15.230  15.197   4.475  0.0689  0.0703  0.0929
21716W        W37185   8.417  17.890  14.162 -0.3107 -0.2814  0.0256
21717W        W37186   7.538   0.099   0.765 -0.0360  0.0281 -0.1692
21718W        W37187   8.005   4.615   4.430  0.1336 -0.3697 -0.2029
21719W        W37188  17.008  13.578  11.953 -0.1624 -0.0699 -0.2741
21720W        W37189  16.962   8.862  13.644  0.0397 -0.4189 -0.0429
21721W        W37190   6.602  14.390   5.348 -0.1133 -0.1395  0.4995
21722W        W37191   0.566  17.621   4.044  0.2801 -0.1011  0.1298
21723W        W37192  10.021  13.521  11.116  0.2571  0.2452  0.0290
21724W        W37193   6.910  12.887  15.613  0.2176  0.4473 -0.0381
21725W        W37194  17.834  12.162  12.842  0.0858  0.0384  0.0233
21726W        W37195   0.858   3.588   2.637  0.4150  0.3216  0.1492
21727W        W37196   0.008  10.998   2.441 -0.2403 -0.0910  0.1248
21728W        W37197   2.439   0.576   1.823 -0.0185 -0.0125  0.0801
21729W        W37198   6.787   2.811  13.095 -0.0175 -0.0785  0.2008
21730W        W37199   5.552   1.516  15.426 -0.0175  0.0290  0.0336
21731W        W37200   9.796  13.012   5.377 -0.1149  0.1535 -0.1109
21732W        W37201   4.382  15.993  12.510  0.1547  0.0284 -0.4451
21733W        W37202   6.712   2.114  14.991  0.1409 -0.0268 -0.2916
21734W        W37203  17.579   2.488   4.830 -0.0326  0.0913 -0.0555
21735W        W37204  13.910  14.099   4.300 -0.1915 -0.0472  0.0090
21736W        W37205  12.443   3.923  11.799 -0.1363  0.1582 -0.1253
21737W        W37206  12.454  10.793   0.761  0.4029  0.4602 -0.1772
21738W        W37207   8.108  18.040   1.250 -0.0820  0.2104 -0.0056
21739W        W37208   5.205   4.069   2.677  0.1558 -0.3798  0.1076
21740W        W37209   9.606  17.455  14.798 -0.0440 -0.3569  0.0341
21741W        W37210  14.646  10.058  10.064 -0.1265 -0.0522  0.3910
21742W        W37211   0.100   8.107  13.324  0.0494 -0.2217 -0.4742
21743W        W37212  13.221  15.152   4.375 -0.2379  0.1414 -0.0319
21744W        W37213  11.639  16.425  11.605  0.1757 -0.1955  0.0489
21745W        W37214  14.097   5.252   3.429 -0.2271  0.2163 -0.0637
21746W        W37215   5.385   7.351   2.094  0.0935  0.1218  0.1567
21747W        W37216  16.232   9.863   0.703 -0.0316 -0.2256  0.1566
21748W        W37217  10.280   9.871   3.106 -0.0553  0.1811  0.1504
21749W        W37218   7.555   8.383  13.748  0.1709 -0.0435 -0.1087
21750W        W37219   8.131  13.592   2.350 -0.2182 -0.0616 -0.2126
21751W        W37220   6.569   1.203   0.773  0.2183  0.1625 -0.0270
21752W        W37221   4.190  16.364   5.679  0.0520 -0.0588 -0.0753
21753W        W37222   2.417   1.446  12.241 -0.3650 -0.0783 -0.0069
21754W        W37223   8.116   1.015  11.919  0.0360 -0.2893  0.1051
21755W        W37224   9.168   1.489   2.741  0.0237 -0.1260  0.1267
21756W        W37225   6.752  15.184   2.717 -0.1071 -0.2958  0.0990
21757W        W37226   8.020  12.194   0.611  0.0021 -0.0075  0.0724
21758W        W37227   0.950   8.712   2.873  0.1432  0.1877  0.2621
21759W        W37228   4.189  13.535   0.083 -0.2548  0.2837  0.2383
21760W        W37229  10.389   8.494   0.120 -0.1905  0.2145  0.2922
21761W        W37230   0.068  12.920   0.815 -0.0865  0.1720  0.1079
21762W        W37231   4.854   7.159  13.620 -0.0579  0.1043 -0.1763
21763W        W37232   6.050   2.637  12.615  0.0517 -0.1159 -0.1821
21764W        W37233   5.599   9.731   1.711  0.0059 -0.0324  0.0383
21765W        W37234  13.677   6.580  14.365 -0.0416  0.2714  0.3060
21766W        W37235   5.503   2.301   5.518 -0.1672 -0.0113 -0.1483
21767W        W37236   3.113  13.079   3.964  0.0672  0.0590 -0.1607
21768W        W37237   4.250  14.822  11.976 -0.1067  0.0377  0.0093
21769W        W37238   5.695   3.313  12.436  0.2014 -0.0276 -0.0436
21770W        W37239  17.488   1.642   3.153  0.1418 -0.1816 -0.0132
21771W        W37240   3.782   7.606   4.812 -0.1382  0.0236  0.0440
21772W        W37241  14.390  17.146   2.525  0.1463 -0.1107  0.3306
21773W        W37242   9.925  14.645   4.910  0.2912  0.0599  0.2975
21774W        W37243   2.008  16.138   1.407  0.1048  0.1734  0.0088
21775W        W37244   7.160   4.177   1.067  0.0757  0.1038  0.0218
21776W        W37245  13.372   8.058  13.937 -0.2492  0.0101  0.3805
21777W        W37246   4.333  14.247   4.362 -0.2569  0.1629  0.2403
21778W        W37247  10.474  17.888  13.756  0.2898 -0.0909 -0.2311
21779W        W37248  11.716  11.819  15.827 -0.0029  0.0173  0.0030
21780W        W37249  13.599  17.853  14.715 -0.0561  0.0140 -0.2103
21781W        W37250  17.398   3.882   4.763 -0.0687  0.0099 -0.1749
21782W        W37251   6.455   8.297  12.479 -0.0942 -0.1585  0.0701
21783W        W37252   5.084  17.415  14.736  0.3011  0.1095 -0.1424
21784W        W37253   6.467  11.448   3.124 -0.3107  0.3529 -0.2727
21785W        W37254  10.500   4.542   0.110  0.0746 -0.2723  0.2389
21786W        W37255  15.218  13.749  15.170  0.1047  0.0328  0.0510
21787W        W37256   3.362  12.626  12.190 -0.0178 -0.0292  0.2227
21788W        W37257  11.137   8.214   4.728 -0.0624  0.0700 -0.0693
21789W        W37258   7.510   7.301   4.640 -0.0109 -0.2195 -0.0557
21790W        W37259   0.510   2.640  14.536  0.0994 -0.0741 -0.3502
21791W        W37260   5.333   4.093   3.840  0.0202  0.1437  0.1106
21792W        W37261   2.542  17.349  10.250 -0.0990  0.0287 -0.0179
21793W        W37262   4.157   9.971  13.109  0.2917  0.4517  0.0756
21794W        W37263   2.443   1.791   0.001  0.0177 -0.0066  0.1679
21795W        W37264  12.832   1.324  13.276  0.0525 -0.3022 -0.0770
21796W        W37265  15.849   5.324  10.303  0.0464  0.2206 -0.0084
21797W        W37266   6.344   0.176  11.935  0.1029 -0.3092 -0.0810
21798W        W37267   2.749  17.486   6.053 -0.0611 -0.0303  0.0904
21799W        W37268  12.912  12.444  15.729  0.1952  0.3245  0.1906
21800W        W37269  17.807   6.990  14.253 -0.0082  0.1100  0.2894
21801W        W37270   4.832   3.355   1.880 -0.3105 -0.1065 -0.0655
21802W        W37271   4.020   4.146   4.289 -0.2486 -0.0591 -0.1092
21803W        W37272   3.420   2.185   0.947  0.0319  0.1354  0.2402
21804W        W37273  17.790   6.018   2.898  0.0813  0.1055 -0.2820
21805W        W37274   9.820   9.602   2.699 -0.0753  0.4015 -0.1366
21806W        W37275   8.876   0.846  15.227  0.0089 -0.0009 -0.0654
21807W        W37276  12.331   0.693  13.477 -0.1799 -0.0338  0.2300
21808W        W37277  12.274   6.768  13.897  0.1893 -0.3266  0.0574
21809W        W37278  10.716  13.960  13.385  0.2834 -0.1879  0.2376
21810W        W37279  12.044  15.613   1.072  0.1392 -0.1879 -0.1727
21811W        W37280  10.393  11.126   1.440 -0.2433 -0.0418  0.2650
21812W        W37281   1.922   5.602  13.246 -0.2274 -0.0351  0.0700
21813W        W37282  15.478   0.225   3.453 -0.1163  0.0280 -0.1523
21814W        W37283  10.044   9.726  12.544 -0.1519  0.1922 -0.0769
21815W        W37284  10.637  16.541  12.111 -0.0075  0.1068  0.0362
21816W        W37285   1.670  10.276   5.537  0.0785 -0.2604  0.0703
21817W        W37286   5.662   1.249  13.120  0.3013  0.0325  0.1583
21818W        W37287   9.145   0.173   1.873  0.0846 -0.1819  0.1354
21819W        W37288   9.802   5.822   2.994 -0.2031  0.3085 -0.0786
21820W        W37289  12.496   0.282   5.356  0.0594  0.1796  0.2708
21821W        W37290  16.340   5.563   1.779 -0.1684  0.1560 -0.0576
21822W        W37291   4.699   1.527   3.536 -0.1586  0.2635 -0.2677
21823W        W37292   5.544   8.655  15.142  0.1338 -0.1081 -0.0449
21824W        W37293   0.529  10.923   1.152 -0.3778 -0.0557 -0.1561
21825W        W37294   4.421   1.059   0.213  0.0537 -0.1077 -0.3065
21826W        W37295   8.403   8.574  14.709 -0.0704  0.0650 -0.0542
21827W        W37296   8.941   2.446   4.251 -0.0346  0.1358 -0.2300
21828W        W37297   5.329  12.643   3.577 -0.1410  0.1573 -0.2118
21829W        W37298  16.490  12.960   0.034 -0.1286  0.0847  0.1121
21830W        W37299  17.085  15.350  11.406  0.0440  0.2501 -0.1177
21831W        W37300   7.506  15.763  15.396 -0.0158  0.0750  0.2598
21832W        W37301   3.380  12.488   2.765  0.1221  0.3310 -0.1093
21833W        W37302   8.385  17.029  13.614 -0.1517  0.0696 -0.3440
21834W        W37303  16.624  17.376   0.338 -0.0174  0.2102  0.0822
21835W        W37304  10.565   1.395   4.491 -0.0120 -0.1372 -0.1097
21836W        W37305  14.054  17.612   3.306 -0.1307  0.0072  0.0458
21837W        W37306  14.487   5.843  13.315  0.0949  0.1632 -0.0454
21838W        W37307  12.536  17.896   5.224  0.2880  0.1085 -0.2291
21839W        W37308  11.143   8.786   2.000  0.1472  0.1053  0.0863
21840W        W37309  12.032  11.820  15.416 -0.0639 -0.3517 -0.1119
21841W        W37310  15.690  14.780   0.945 -0.0197 -0.0369 -0.1115
21842W        W37311   5.978  12.190  11.075  0.0768 -0.3160 -0.1063
21843W        W37312  13.217   4.214   2.936  0.2353  0.0103  0.1267
21844W        W37313  11.550   0.767   0.633 -0.1334  0.1028 -0.1072
21845W        W37314   4.523  14.188  13.968  0.1089  0.0034 -0.0850
21846W        W37315  16.549   9.845  13.872  0.2105  0.1859  0.0862
21847W        W37316  16.016  16.820  10.970 -0.2526  0.0126 -0.0437
21848W        W37317   9.609   0.087   1.678 -0.0339 -0.0725  0.2833
21849W        W37318  15.677  10.811   4.294 -0.1332  0.0476  0.6453
21850W        W37319   0.188  11.152   4.089 -0.0789  0.2700  0.1658
21851W        W37320  15.811   9.675   0.939 -0.5849  0.1054  0.0771
21852W        W37321   6.794   8.443   2.170  0.2353 -0.1810  0.1944
21853W        W37322  13.586   1.459   1.503  0.0937  0.0304  0.2816
21854W        W37323  11.092   9.153   3.507 -0.0832 -0.1587  0.1505
21855W        W37324  13.290   4.116   4.544 -0.1040  0.1220 -0.2009
21856W        W37325   6.694   3.541   0.326 -0.0035 -0.0005 -0.2538
21857W        W37326  12.049   2.369  15.508  0.1168 -0.0531 -0.0816
21858W        W37327  11.848  12.271   3.235 -0.3515 -0.0461  0.1305
21859W        W37328   7.071  14.410  13.401  0.0216  0.0904  0.1254
21860W        W37329   3.029  11.740  13.175  0.6021  0.0789 -0.0094
21861W        W37330  13.897   4.389  14.380 -0.0600  0.0294 -0.0101
21862W        W37331  14.983  11.924  12.255 -0.2032 -0.0082  0.4025
21863W        W37332   0.777   6.828   0.282 -0.0130 -0.0123  0.2057
21864W        W37333   4.269   4.543  15.329 -0.1392  0.0282 -0.1234
21865W        W37334  13.879  16.245   5.226  0.0802 -0.1093  0.1736
21866W        W37335   7.264  13.571   2.697 -0.3124 -0.0986  0.1638
21867W        W37336   9.093   8.917   2.383 -0.0102  0.0867 -0.0751
21868W        W37337  16.867  17.136   5.151 -0.0972  0.0985  0.0316
21869W        W37338   9.705   6.498  13.972 -0.1605 -0.3908 -0.1283
21870W        W37339  16.980   0.477   1.729 -0.0437  0.0734  0.2498
21871W        W37340   8.312   7.125  13.805  0.0604 -0.0192 -0.1702
21872W        W37341  15.696   0.632  12.310  0.0917 -0.3703  0.2056
21873W        W37342   1.259   4.417   3.179  0.1682 -0.0149 -0.1599
21874W        W37343  16.699  15.213   4.969  0.1146  0.1443  0.1758
21875W        W37344   7.510   3.449  14.002  0.1185 -0.1012 -0.1713
21876W        W37345   9.863   7.342  14.490 -0.0802 -0.1098  0.1971
21877W        W37346  11.317   1.203   5.977  0.2953 -0.1205 -0.0835
21878W        W37347  11.381   5.097   3.395  0.4512 -0.0820  0.1051
21879W        W37348  16.329  15.925   4.730  0.1882 -0.0737  0.1119
21880W        W37349   7.595  12.935  13.591 -0.1788 -0.0765 -0.2298
21881W        W37350   4.799   4.752  15.434 -0.0182  0.2297 -0.3042
21882W        W37351  11.005  14.689   3.520 -0.1288 -0.3442 -0.0114
21883W        W37352  13.563  14.550  11.609 -0.0547  0.1322 -0.1308
21884W        W37353  16.258  10.671  12.800 -0.4837 -0.2639  0.0871
21885W        W37354  14.902   3.992   1.727  0.0709 -0.0261 -0.1255
21886W        W37355  11.484  17.672   5.348  0.0149 -0.0535  0.1932
21887W        W37356   6.264  11.207  14.680  0.1991 -0.1757  0.1369
21888W        W37357  16.553   1.184  11.126 -0.0327  0.2106  0.0792
21889W        W37358  17.639  10.716  14.925  0.0881 -0.1309 -0.0652
21890W        W37359  13.024   5.325  13.311  0.2190  0.0897  0.0029
21891W        W37360  15.852  13.730  13.645  0.1383 -0.1872 -0.0698
21892W        W37361   4.973   5.727  14.933 -0.0473 -0.0113 -0.0439
21893W        W37362  13.686  17.889   2.559  0.1329  0.1385  0.0044
21894W        W37363   4.623   4.198  15.287 -0.0034 -0.1761  0.1204
21895W        W37364  11.421   0.829  14.764  0.1497 -0.1488 -0.1145
21896W        W37365  15.913   4.714   0.396  0.0058 -0.1576  0.0983
21897W        W37366  16.742  13.191   4.958 -0.1616  0.2901 -0.0075
21898W        W37367   7.025  12.896  12.276  0.0692  0.3657 -0.0277
21899W        W37368   1.410   7.230   1.351  0.0398  0.1495  0.0659
21900W        W37369   9.696   9.021  11.906  0.0848 -0.1562 -0.1697
21901W        W37370   0.313   6.734  11.847 -0.1619 -0.1098 -0.3883
21902W        W37371  12.330   4.667  12.722  0.1071 -0.0279  0.0111
21903W        W37372   2.344   6.208   1.108 -0.0217 -0.1363 -0.3319
21904W        W37373   4.358   3.632   1.222 -0.0929  0.1950 -0.2872
21905W        W37374   7.458  16.926  13.839  0.0847 -0.0483 -0.0888
21906W        W37375  16.097   0.358   2.926 -0.0140 -0.0470 -0.2276
21907W        W37376  12.953  14.310   5.472  0.2756 -0.0800 -0.1312
21908W        W37377   1.482  11.988   1.517 -0.2951 -0.0003  0.0523
21909W        W37378   8.411   3.147   0.290  0.4779  0.0236  0.3133
21910W        W37379   8.342  15.559   3.123 -0.1610  0.2755 -0.3769
21911W        W37380   7.698   3.490   2.804 -0.0928  0.0629  0.0672
21912W        W37381   6.536   7.918   4.374  0.1052  0.0795  0.1748
21913W        W37382   1.611   9.897   4.713  0.0663 -0.1234 -0.0725
21914W        W37383   1.257   6.098   4.965 -0.1330 -0.1623 -0.1544
21915W        W37384   4.779  16.311   3.471  0.1322  0.1337 -0.2111
21916W        W37385   7.403  16.475   0.892  0.0271 -0.1656  0.0716
21917W        W37386  17.186  16.724  14.770  0.2298 -0.0637  0.1861
21918W        W37387  18.092  16.490  11.806  0.1332  0.2996 -0.2033
21919W        W37388  17.233   6.025   1.408  0.0838 -0.3115  0.1714
21920W        W37389   7.940   3.353   0.170  0.1772  0.2807 -0.0683
21921W        W37390   9.095  10.305  13.290 -0.0119  0.0813 -0.2164
21922W        W37391   0.880  14.731  15.708  0.0234  0.2363 -0.1069
21923W        W37392   9.253   2.238   4.624  0.1555 -0.1521 -0.1704
21924W        W37393  12.465   1.392   1.807 -0.1779 -0.1205  0.0633
21925W        W37394  17.162   4.282   3.203  0.1191 -0.2756  0.3402
21926W        W37395   3.752   9.883   4.409 -0.0660  0.4095 -0.2191
21927W        W37396  16.823   7.854  15.253  0.0097  0.0122 -0.3067
21928W        W37397   0.769   6.360  15.233 -0.0998  0.0937  0.0188
21929W        W37398   1.563   5.462   4.002  0.0303  0.1125  0.0429
21930W        W37399  10.980  11.130  15.021 -0.2400 -0.1558  0.0506
21931W        W37400  11.794   1.685  13.913 -0.0181  0.1248 -0.1215
21932W        W37401   7.746  10.173   3.274 -0.0332 -0.5289  0.0224
21933W        W37402  12.234   6.240  10.613  0.3644  0.0893 -0.1728
21934W        W37403   2.481   2.402  15.048 -0.1079 -0.0024 -0.2198
21935W        W37404  15.088  12.759   0.870 -0.1062  0.1371  0.2318
21936W        W37405   8.556   5.311   2.947  0.2048  0.0110  0.1312
21937W        W37406   8.096  15.523  11.532 -0.1763 -0.0915 -0.0292
21938W        W37407  13.692   4.598  12.180 -0.3064 -0.0191 -0.0596
21939W        W37408   9.262  15.292   2.923 -0.0330  0.4187 -0.2287
21940W        W37409   5.604  12.751  15.608  0.0881  0.0696 -0.0520
21941W        W37410   6.912   7.689   1.701 -0.0409  0.0673  0.3526
21942W        W37411  10.838   1.860  14.087 -0.0282  0.0749  0.0056
21943W        W37412   4.128   0.763  13.730 -0.1833  0.2545 -0.2119
21944W        W37413   1.977  10.325  10.323 -0.1924 -0.3055  0.0493
21945W        W37414   1.282  14.830  11.310 -0.3459  0.1076 -0.2526
21946W        W37415   1.550  10.521  15.797 -0.2398  0.1372 -0.2331
21947W        W37416   2.102   2.363   0.710 -0.2022 -0.3228 -0.4684
21948W        W37417  12.575  10.118  13.376 -0.2301 -0.4170  0.1009
21949W        W37418  13.162   9.657  14.542  0.1297  0.1524  0.0332
21950W        W37419   3.362   0.081  11.660  0.3576 -0.3244  0.2905
21951W        W37420   2.506   4.554  14.989 -0.0247 -0.0551  0.1443
21952W        W37421  15.818  13.935  15.961  0.0216 -0.1354 -0.1572
21953W        W37422   9.329  17.784  16.141  0.0212  0.0980 -0.1020
21954W        W37423  16.593   5.343  13.154  0.2634  0.3058  0.0096
21955W        W37424  14.056   2.342   4.625  0.2182  0.1628 -0.0267
21956W        W37425   9.753  13.972   4.507  0.0711 -0.0742 -0.0084
21957W        W37426  12.170  16.710  14.731  0.0075  0.1601 -0.1018
21958W        W37427   4.947  13.181  16.298  0.2347  0.2196  0.0832
21959W        W37428   1.563  14.395   0.266  0.0254  0.1887  0.0485
21960W        W37429  15.329  12.986  15.157  0.0138 -0.3540  0.1578
21961W        W37430   2.122   1.127   0.123 -0.0635  0.0906 -0.0748
21962W        W37431   7.799  14.933  12.703 -0.0791 -0.1886 -0.2298
21963W        W37432   7.037  14.139  14.818  0.1105 -0.1039  0.1287
21964W        W37433  17.978   8.124  12.741 -0.0209  0.1252  0.0250
21965W        W37434   4.026   2.289  15.248 -0.1032  0.0461  0.0496
21966W        W37435  15.713  14.573   0.453 -0.2025  0.0009 -0.1009
21967W        W37436  15.156  17.532   2.577 -0.2571  0.0323 -0.1887
21968W        W37437   5.262   0.545  15.549  0.2246 -0.1207  0.1289
21969W        W37438  10.389  13.320   4.867 -0.3212 -0.1474  0.2909
21970W        W37439   3.132   1.373   3.731  0.0290 -0.2670 -0.2648
21971W        W37440  13.049  12.600   5.534  0.3244  0.0062 -0.1024
21972W        W37441  13.658   4.981   2.625 -0.0327  0.0171 -0.2764
21973W        W37442   9.890   1.067   2.025 -0.0230 -0.1956 -0.2689
21974W        W37443  12.911  16.175   2.841  0.1887  0.1096 -0.0944
21975W        W37444   4.610   9.883   5.141  0.1661  0.0487  0.2731
21976W        W37445   6.324  15.876   0.813 -0.0841  0.0200  0.0485
21977W        W37446   1.446  12.030  11.758  0.2803 -0.3961  0.1162
21978W        W37447   0.837   8.677  11.277  0.4531 -0.0206 -0.1684
21979W        W37448  15.489  17.744   2.901 -0.2301 -0.5151  0.0862
21980W        W37449  17.058  17.601   5.534 -0.0739  0.2218  0.1535
21981W        W37450   1.985  15.047  14.637 -0.0209 -0.1809 -0.3008
21982W        W37451   0.949   2.836  15.685 -0.2994 -0.0682  0.3358
21983W        W37452   8.569  14.571  15.994  0.2827 -0.0731  0.2063
21984W        W37453   0.718   9.135  11.231  0.1407 -0.2225 -0.1586
21985W        W37454  13.779   4.766   3.462 -0.0587  0.0092 -0.0256
21986W        W37455  15.243  11.124  14.813 -0.0530 -0.2649 -0.0450
21987W        W37456   3.480   4.712  15.406  0.0068 -0.0189 -0.3482
21988W        W37457  15.694  13.399  12.058 -0.2200 -0.2092 -0.2440
21989W        W37458   1.221   9.522   3.732  0.1042  0.0490 -0.0478
21990W        W37459   1.079  17.214   4.931 -0.3114  0.1260 -0.0888
21991W        W37460  12.707  14.180   0.482  0.0600  0.1772 -0.0958
21992W        W37461  11.950   5.714  15.146 -0.1510  0.0944  0.1187
21993W        W37462   5.294   6.833  11.239  0.1639  0.1329 -0.1136
21994W        W37463   3.001  15.186  15.432  0.1398 -0.1701 -0.3492
21995W        W37464   7.967  17.419   4.607  0.0681 -0.2659  0.0908
21996W        W37465   7.924  15.685   1.728 -0.0877 -0.2716  0.1511
21997W        W37466  16.407   3.516  12.972 -0.1775  0.0830  0.3220
21998W        W37467  10.271   8.749  12.346 -0.0651 -0.0327 -0.1354
21999W        W37468  12.877   0.943   4.605  0.3099  0.0971  0.1422
22000W        W37469  15.613   1.832  14.306 -0.2824 -0.0871 -0.3146
22001W        W37470  10.224   9.067  15.355  0.1950 -0.0458 -0.1430
22002W        W37471  10.302   3.019  13.412  0.0542 -0.2011  0.0212
22003W        W37472   3.358   3.768   1.715 -0.0539  0.0342  0.2967
22004W        W37473  16.626   9.628  15.400  0.3459  0.2413  0.0402
22005W        W37474  17.388  10.011  15.428  0.2906 -0.0446  0.0560
22006W        W37475   3.746   6.060   3.370 -0.1543  0.1982 -0.0502
22007W        W37476   2.843  10.727   1.484 -0.0728  0.2103  0.2115
22008W        W37477  11.695  12.527  13.543 -0.0326 -0.2510 -0.1797
22009W        W37478   9.329  13.891  14.507  0.3135  0.0487  0.0889
22010W        W37479   8.578   4.139  12.816 -0.4097  0.1154 -0.1936
22011W        W37480   4.546   8.679  14.521 -0.3768 -0.0939 -0.0575
22012W        W37481  13.332   2.617   4.528 -0.0004  0.0811 -0.2053
22013W        W37482  12.214  13.112   0.931 -0.2880 -0.3706  0.1229
22014W        W37483   4.170   1.046  13.280 -0.0045  0.1004  0.0255
22015W        W37484   1.566   0.757  14.601  0.0524  0.2327  0.1739
22016W        W37485   4.825  14.750  13.422 -0.1383 -0.0354 -0.0483
22017W        W37486  17.910  16.179   0.341 -0.1393 -0.1331  0.0322
22018W        W37487  17.137  15.988   4.035  0.0402 -0.1184 -0.1072
22019W        W37488  16.984   9.756   3.924 -0.0282  0.1126  0.1074
22020W        W37489  17.934   2.339   4.526  0.0135  0.0393 -0.1802
22021W        W37490   7.900  14.466   2.360 -0.1224  0.1973 -0.0833
22022W        W37491   0.031   0.764   3.612 -0.1536 -0.4681 -0.0608
22023W        W37492  16.128  12.882  10.966 -0.4920  0.1702 -0.5428
22024W        W37493  10.698   7.151   1.690  0.2397  0.2898  0.0223
22025W        W37494   2.915  11.566  11.044 -0.3392  0.1091 -0.0385
22026W        W37495  12.473   2.466   2.466  0.2868 -0.0822  0.2463
22027W        W37496  17.191  13.010  14.779 -0.0535  0.0084 -0.1199
22028W        W37497   1.079   7.830  14.393 -0.0922 -0.0952  0.0572
22029W        W37498   5.176   8.160   1.669 -0.0803 -0.0775  0.3738
22030W        W37499   1.130   1.684  11.642 -0.1356 -0.0455  0.2522
22031W        W37500   7.455  13.617   3.159  0.2845 -0.1554 -0.2731
22032W        W37501  10.709  13.798   2.233  0.1003  0.3565  0.0348
22033W        W37502  10.729   0.918   1.325 -0.1632  0.1303 -0.1088
22034W        W37503  16.374   6.352  12.180  0.0491 -0.0396  0.1365
22035W        W37504  13.781   3.312  11.375 -0.0688  0.4154  0.0399
22036W        W37505   7.168   4.275   0.563 -0.2082  0.0427 -0.2228
22037W        W37506  13.276  12.730   2.601 -0.3567 -0.2329  0.1986
22038W        W37507   4.514   2.511   0.240  0.1323  0.2896  0.1374
22039W        W37508  10.487  16.412   5.040 -0.2679  0.1057 -0.2038
22040W        W37509   1.648   1.327   3.888 -0.0860  0.1745 -0.2153
22041W        W37510   0.515   9.872  15.732  0.0175  0.1057 -0.1209
22042W        W37511  13.704   8.575  15.188  0.3032  0.2215  0.1764
22043W        W37512   6.449  15.193  14.222  0.2629 -0.0752  0.0204
22044W        W37513   1.731   9.356  13.209 -0.4339 -0.1069  0.0780
22045W        W37514  15.812  16.214  15.914 -0.1280  0.2928 -0.2323
22046W        W37515   9.596   4.561   4.445 -0.0360 -0.0704 -0.0915
22047W        W37516   2.782   2.203   5.273 -0.3821 -0.4667 -0.2217
22048W        W37517  11.768   7.071  13.545 -0.0518  0.1959  0.0118
22049W        W37518   3.037   8.716   3.540  0.0122  0.2939 -0.0224
22050W        W37519  14.139   2.591  16.248  0.2409  0.3806  0.0351
22051W        W37520   5.303   4.590   1.929 -0.1549 -0.0974 -0.0610
22052W        W37521  11.561   2.695  11.727 -0.1888 -0.1668 -0.1427
22053W        W37522  13.088   0.838  12.849  0.1351  0.1715  0.0153
22054W        W37523   0.475   3.792  15.220 -0.0907  0.2784 -0.0416
22055W        W37524   1.346   0.009  14.991 -0.0237 -0.3163  0.0237
22056W        W37525   8.736  13.431   3.569  0.0891  0.2696 -0.0149
22057W        W37526   3.996   7.820   3.852  0.0485 -0.0818  0.0504
22058W        W37527   9.302   5.460  13.035  0.2487  0.1891  0.1410
22059W        W37528   5.535  16.058   3.142  0.0291  0.0224 -0.0447
22060W        W37529  13.408   1.270  15.582 -0.0688 -0.0843 -0.0830
22061W        W37530   2.339   5.702   3.851  0.1320  0.1179 -0.0484
22062W        W37531   4.573   3.358  13.900  0.1588  0.0269  0.0354
22063W        W37532   0.156  16.551   5.551  0.2443  0.0869  0.0253
22064W        W37533   0.811   7.866   2.569  0.2087 -0.1307  0.0732
22065W        W37534  11.159  15.552  14.092 -0.2765  0.1720 -0.3105
22066W        W37535   7.274  17.653  15.227 -0.1045  0.3922 -0.2282
22067W        W37536  11.959  11.801  11.025  0.4581 -0.0234 -0.1821
22068W        W37537  15.381   3.414   4.443  0.0350  0.2362 -0.1126
22069W        W37538   7.666  11.391  16.233 -0.0963 -0.3813 -0.4642
22070W        W37539   3.206   4.177  13.915 -0.0056 -0.0952  0.1200
22071W        W37540  11.016   6.504  14.075 -0.1474  0.0743 -0.1810
22072W        W37541   8.657   4.856   5.522  0.1406  0.0374  0.0916
22073W        W37542   2.457  14.703   5.524  0.0332 -0.1679  0.2872
22074W        W37543  13.498   0.032   5.354 -0.0366 -0.2621  0.3024
22075W        W37544  11.166   6.145  12.063  0.3310 -0.1155  0.0011
22076W        W37545  11.431  12.875   1.983  0.2116  0.3249  0.0013
22077W        W37546   6.868  11.098   2.031 -0.0386  0.1588 -0.1915
22078W        W37547   2.312   1.798  11.397 -0.0416  0.1670  0.1539
22079W        W37548  12.308  10.123  14.795  0.0385 -0.0303 -0.2313
22080W        W37549   5.659  16.018  15.160  0.1151  0.1058 -0.2225
22081W        W37550   3.708  15.243  15.906 -0.0033  0.2291 -0.1446
22082W        W37551   5.232  17.782  13.975 -0.0465 -0.0842  0.0591
22083W        W37552   6.598  14.071   5.761  0.0637 -0.0290  0.2267
22084W        W37553  15.941   5.572   2.142 -0.1217  0.0273 -0.4203
22085W        W37554   7.149   1.413   4.494  0.0212 -0.2781  0.0766
22086W        W37555   6.641  17.968   1.938  0.3502 -0.0990  0.1366
22087W        W37556  13.754   5.093  12.056  0.2493 -0.3602 -0.0695
22088W        W37557  17.239   7.393   2.928  0.0383 -0.1166  0.1723
22089W        W37558   9.665  12.379   3.972 -0.0768 -0.0852 -0.0633
22090W        W37559  15.233   8.141  16.061  0.0151  0.0502 -0.0225
22091W        W37560   5.651  15.608  14.698  0.3082 -0.1787 -0.1526
22092W        W37561   0.095   4.612  13.727 -0.2072  0.1580  0.0628
22093W        W37562  12.420   9.876  13.879 -0.0018 -0.0164  0.0303
22094W        W37563   0.044  14.495   1.687  0.1341  0.0614 -0.1080
22095W        W37564  17.024   1.989   0.407 -0.1528 -0.0118 -0.0380
22096W        W37565   0.265   5.441  10.607 -0.0235 -0.1699  0.0120
22097W        W37566  16.347   3.455  15.512  0.3648  0.0023  0.0541
22098W        W37567   8.912   2.951   0.574 -0.3750 -0.2002  0.0518
22099W        W37568  17.121   3.702  13.016  0.0344  0.0691  0.1575
22100W        W37569  12.024   8.333  10.834  0.1814  0.1404 -0.1411
22101W        W37570   7.730   5.288  13.928  0.2605  0.1799  0.2164
22102W        W37571   9.130   0.434  15.439  0.1404 -0.1024  0.0677
22103W        W37572   8.960  18.093  15.345  0.1905  0.1432  0.0551
22104W        W37573  16.782   8.376   4.398  0.2886  0.0359 -0.0382
22105W        W37574  12.803   4.790  12.196 -0.0663 -0.0940  0.1501
22106W        W37575  16.985  16.778   3.423  0.0955 -0.0037 -0.3901
22107W        W37576   2.238   3.141   2.343  0.2362 -0.0906  0.0209
22108W        W37577   4.757   6.301  11.571  0.2580  0.1275 -0.1194
22109W        W37578  12.847   3.629   5.344  0.0116 -0.0610 -0.0641
22110W        W37579  16.433   3.559  10.320  0.2484 -0.0921  0.3786
22111W        W37580   4.505  17.399  12.699 -0.2523 -0.1742 -0.0863
22112W        W37581   6.775   2.864  13.780 -0.0653 -0.1589 -0.0223
22113W        W37582   5.374  14.897   4.101  0.1299  0.0512 -0.2861
22114W        W37583   1.522   8.133  14.828  0.3215  0.1539 -0.1193
22115W        W37584   3.111   6.250   2.261 -0.0247  0.0912 -0.0943
22116W        W37585   5.988   4.964  11.650  0.0660  0.2215  0.3229
22117W        W37586   2.476   4.943   0.781  0.0729 -0.0845 -0.3405
22118W        W37587  17.578   1.234   1.808  0.1200 -0.0680  0.0140
22119W        W37588  15.706  11.312  13.399 -0.1504  0.0352 -0.2787
22120W        W37589  12.380  11.304   4.638  0.1632  0.0067  0.1922
22121W        W37590  12.634   7.514   1.092  0.0187 -0.0364 -0.0261
22122W        W37591   6.137  17.374  11.622  0.0320  0.0558 -0.1117
22123W        W37592   3.381   5.711  10.889  0.0012 -0.0540 -0.0889
22124W        W37593  16.061  16.834   2.443 -0.0610 -0.0383  0.0889
22125W        W37594   1.571  15.773  14.337 -0.2495  0.0181 -0.0940
22126W        W37595  11.391  12.021   2.608  0.1463  0.1492 -0.2018
22127W        W37596   4.422   1.124  12.839 -0.1065  0.1327 -0.1890
22128W        W37597   9.314  14.819  14.778  0.3410 -0.2468 -0.0060
22129W        W37598   2.463   3.409   3.763 -0.2699  0.0656  0.0196
22130W        W37599  18.048  12.790  10.880 -0.0875  0.2194 -0.0690
22131W        W37600   7.076   0.172   3.930 -0.2988 -0.0522 -0.1730
22132W        W37601   6.532  10.320   1.096 -0.2236  0.0853 -0.1661
22133W        W37602   6.839  16.732  10.631  0.1108  0.0869  0.1998
22134W        W37603  16.859   8.412   5.858 -0.4436  0.3455 -0.0636
22135W        W37604  11.327   9.353   0.708 -0.1029 -0.1403  0.5271
22136W        W37605   5.482  12.034  16.139 -0.3080 -0.2578  0.0107
22137W        W37606   8.551   2.431   0.877 -0.1038  0.0126 -0.1243
22138W        W37607  12.024  16.448  13.658 -0.1341 -0.2068  0.0745
22139W        W37608   4.450   6.642  11.864  0.1992  0.1749  0.0856
22140W        W37609  10.085   9.148   3.844  0.0064  0.2605 -0.0121
22141W        W37610   1.927  16.779  13.591  0.2721  0.1065  0.1813
22142W        W37611   8.788  12.206   5.510  0.0489  0.1233  0.0031
22143W        W37612  17.221   1.217  15.822 -0.2646 -0.0817  0.0271
22144W        W37613  13.385   2.089   0.320  0.1355  0.2172  0.0186
22145W        W37614   2.606  11.127   0.271 -0.0886 -0.2419  0.1726
22146W        W37615  17.197   6.733   1.243 -0.0154 -0.0228 -0.0962
22147W        W37616  15.218   0.447  13.089  0.5830  0.0383 -0.1895
22148W        W37617   4.309   6.332   4.665  0.0608  0.1273  0.0860
22149W        W37618   1.221   9.052   4.505 -0.0197 -0.2370  0.0367
22150W        W37619  13.910   8.819   4.231 -0.1513 -0.1625 -0.1812
22151W        W37620   2.957   5.777   4.379  0.0422 -0.2486 -0.1277
22152W        W37621  14.088   1.907  14.549 -0.0777  0.0337 -0.0567
22153W        W37622  11.928   2.724  10.518 -0.0030  0.0710  0.0548
22154W        W37623   0.414   3.201  13.616 -0.1742  0.2938  0.0305
22155W        W37624   2.125   2.168  14.081  0.0463 -0.1885  0.0296
22156W        W37625  12.558  13.404  11.960 -0.1517  0.0953 -0.1197
22157W        W37626  17.274   7.078  10.919  0.1370 -0.1515  0.1606
22158W        W37627  16.979  10.442   4.830  0.0616 -0.0646 -0.0396
22159W        W37628   3.890   8.452  12.159 -0.2623  0.0524 -0.0869
22160W        W37629   7.419  10.611  14.936 -0.0826 -0.0517  0.2762
22161W        W37630  15.995  16.728  15.167  0.1689  0.1058 -0.0655
22162W        W37631   2.809   0.555  15.362 -0.1527 -0.3138 -0.2626
22163W        W37632  13.485  12.034   4.934 -0.1090  0.1077 -0.3985
22164W        W37633   6.713   1.055   3.672  0.1521  0.1407  0.0326
22165W        W37634  17.109   4.207  12.872  0.1203  0.1624 -0.0305
22166W        W37635  11.959  11.064   3.875  0.1729  0.2287  0.2100
22167W        W37636   8.830   0.375  16.277 -0.1219 -0.0787  0.1769
22168W        W37637   6.194   6.985  15.448  0.0762  0.2769 -0.1436
22169W        W37638  13.977  13.254  13.542 -0.2189  0.1406  0.1907
22170W        W37639   4.729  10.512   0.838  0.3225  0.3125  0.1401
22171W        W37640  11.027   8.885   5.220 -0.1980  0.3525  0.5019
22172W        W37641  17.957  16.822   2.013  0.0086 -0.2018  0.0168
22173W        W37642  17.397   0.442  13.814  0.2280  0.4499  0.1585
22174W        W37643  14.449  10.922  15.420 -0.0819  0.2288  0.3518
22175W        W37644  12.154   7.965  15.369  0.1051 -0.2666  0.3372
22176W        W37645   5.909   2.255   2.993  0.2289 -0.0046  0.0814
22177W        W37646   6.030   6.504   0.006  0.1556  0.2580 -0.3056
22178W        W37647  10.584  14.117   4.444  0.0605  0.1094 -0.2432
22179W        W37648  17.330   9.428   4.150  0.2650 -0.4062 -0.0840
22180W        W37649  10.076  15.545   4.678 -0.1214  0.3541  0.2634
22181W        W37650   1.660  10.596  14.719 -0.1367  0.1209 -0.0672
22182W        W37651  11.413  16.249  10.707 -0.2343 -0.0042  0.0210
22183W        W37652   0.767  15.134  14.274  0.0439 -0.1244  0.0509
22184W        W37653  10.309   3.619  15.084 -0.0889  0.0577  0.0213
22185W        W37654   0.927  15.255   5.976 -0.0200 -0.0122  0.0033
22186W        W37655  14.518   8.578   6.427 -0.0517 -0.0912  0.2878
22187W        W37656   5.282  11.742   3.251  0.5350  0.3161 -0.1579
22188W        W37657   2.179  10.918  13.821 -0.0590 -0.0632  0.2664
22189W        W37658   2.031  16.342   4.968  0.3119 -0.0092  0.1875
22190W        W37659   6.335   5.242  12.222 -0.3159 -0.2298  0.2616
22191W        W37660  17.727   2.336   1.659  0.0365  0.0232  0.0710
22192W        W37661   4.866   2.498  14.805  0.0589  0.6110 -0.2720
22193W        W37662   7.639  10.931  13.431  0.0070 -0.0188 -0.1828
22194W        W37663   7.168   6.886  10.963 -0.1423 -0.1301  0.2840
22195W        W37664   7.414  15.542   0.480  0.1384 -0.0274 -0.0034
22196W        W37665  15.246  15.806   0.193  0.1828  0.1786 -0.1629
22197W        W37666   8.914   7.572  12.182  0.1409  0.2899  0.3414
22198W        W37667   7.309   2.322   0.684  0.0870  0.0023 -0.1059
22199W        W37668  12.505  15.754   2.159  0.0001  0.1646 -0.0464
22200W        W37669  14.405  11.588   2.532 -0.2503 -0.0016 -0.3241
22201W        W37670  16.084  14.263   5.193 -0.5048  0.0097  0.1620
22202W        W37671  13.763   9.640  13.850  0.0184 -0.0011  0.1086
22203W        W37672  14.852   0.151  11.485  0.1070  0.0142  0.1465
22204W        W37673   9.632  10.884   1.430 -0.2534 -0.2475  0.0622
22205W        W37674   8.771   3.912   2.304  0.0219  0.0473 -0.0956
22206W        W37675   9.451   9.842  13.180 -0.0346  0.2517  0.3535
22207W        W37676  11.005  11.902  11.121 -0.1200  0.3186  0.0518
22208W        W37677  10.078  16.596   2.665 -0.0991 -0.0632  0.0273
22209W        W37678   6.689  13.763   0.431  0.1865 -0.0174 -0.0614
22210W        W37679   1.430  17.177  13.313 -0.1152 -0.1180 -0.4908
22211W        W37680   2.821   1.888   4.594  0.2220 -0.1881  0.1717
22212W        W37681  12.922   2.940  16.239 -0.0671  0.0493  0.1188
22213W        W37682  15.022   6.967  11.471 -0.0206  0.0293 -0.0237
22214W        W37683  16.652   0.440   5.151 -0.2301 -0.1879 -0.1281
22215W        W37684  15.467   3.097   4.834 -0.0616  0.0684  0.0347
22216W        W37685  10.878  11.741   0.214  0.3108 -0.0790  0.0349
22217W        W37686   7.568  10.881  16.122 -0.1759 -0.1374 -0.0513
22218W        W37687  16.995   3.536  10.298  0.0921  0.0944  0.1869
22219W        W37688  11.635  11.126  11.543 -0.4563  0.0070 -0.1987
22220W        W37689   8.103   7.353  11.743  0.0567  0.0520  0.2400
22221W        W37690   6.759   0.317  12.174 -0.1968  0.0616  0.2405
22222W        W37691  11.034   2.703  15.104  0.0409  0.0833 -0.0470
22223W        W37692  12.709   0.173   4.883  0.4921  0.1531 -0.0710
22224W        W37693   8.602  15.384  14.637 -0.2621 -0.1847 -0.0557
22225W        W37694  12.679   4.290   2.863  0.1149 -0.0522 -0.2141
22226W        W37695   7.060   3.624   2.422 -0.3235 -0.0919 -0.3346
22227W        W37696  14.121  17.034   4.664  0.0984 -0.1463 -0.1346
22228W        W37697   9.302   8.399   3.409  0.0771  0.1344 -0.2345
22229W        W37698  16.893   2.660  11.407 -0.1469 -0.1159  0.2860
22230W        W37699  13.803  13.239   1.284 -0.2482  0.1563 -0.1227
22231W        W37700   5.054   6.937   1.325  0.0168  0.1056 -0.3500
22232W        W37701  14.954  12.398   3.172  0.2759  0.3019  0.0694
22233W        W37702  14.892  11.906   3.424  0.1729  0.2130 -0.1671
22234W        W37703  10.743  11.694  15.491 -0.1925  0.2781  0.1428
22235W        W37704   0.759   1.281   4.120 -0.0416  0.2153 -0.1407
22236W        W37705  15.501  10.668  15.483 -0.0932 -0.1431 -0.1835
22237W        W37706   5.835  16.866   1.452 -0.1521 -0.0280 -0.0585
22238W        W37707   8.699  16.398  15.406  0.5583  0.0848  0.0532
22239W        W37708   2.060   0.222   0.292  0.0256  0.1535  0.1717
22240W        W37709   5.612   6.897   2.181 -0.1679 -0.0156 -0.1037
22241W        W37710  17.197   9.750  12.354  0.1810 -0.1270  0.3347
22242W        W37711   4.007  13.413  15.718  0.1851  0.2055  0.1319
22243W        W37712   1.030   3.071   3.331 -0.0157  0.0216 -0.2269
22244W        W37713  12.932   3.174  13.934  0.0078  0.1658  0.1238
22245W        W37714   2.147   2.680   2.789  0.2633 -0.0311  0.0166
22246W        W37715   2.061  14.582   0.739  0.1472 -0.1150  0.2979
22247W        W37716   7.089   5.256  12.759  0.0196 -0.1127 -0.0156
22248W        W37717   3.421   8.402   1.141 -0.0213 -0.1853  0.2244
22249W        W37718  11.961  12.777  12.619  0.2188 -0.0698  0.0844
22250W        W37719   4.283   4.671   2.238 -0.2329 -0.2977  0.0424
22251W        W37720  12.329  16.495   2.268  0.0966 -0.0786 -0.2067
22252W        W37721   2.013   4.452   1.225  0.0913  0.3966 -0.1693
22253W        W37722  15.304   9.224   4.373  0.2580 -0.3293 -0.1422
22254W        W37723   7.874   9.040  16.006  0.1019 -0.0549  0.1327
22255W        W37724  13.987   6.020   0.835 -0.0571 -0.2162  0.0050
22256W        W37725  18.001  14.049   0.251 -0.0815  0.0245  0.1109
22257W        W37726  14.616   9.970   4.612  0.0445 -0.0647  0.1714
22258W        W37727   0.249  16.383   3.564 -0.2269 -0.3287  0.0447
22259W        W37728  12.971  13.429  10.939  0.1896 -0.2290  0.1812
22260W        W37729   4.039   2.929   3.529 -0.0262 -0.1001  0.0584
22261W        W37730  16.978   8.911   5.811 -0.0559  0.1246  0.1001
22262W        W37731  11.183   3.629   3.751  0.0750  0.0392  0.4781
22263W        W37732  10.283  12.431   5.601  0.1672  0.2441 -0.0107
22264W        W37733  16.685   6.371  13.218  0.0052  0.1096  0.0610
22265W        W37734   2.706   7.833   2.472 -0.2771  0.0074  0.0271
22266W        W37735   9.210   3.881  15.721  0.2402  0.2715 -0.3456
22267W        W37736  14.083  11.451   3.822  0.2554 -0.0753  0.2170
22268W        W37737   8.847   8.174   2.245 -0.0230 -0.2143  0.2726
22269W        W37738   6.908   9.405   2.904 -0.1250  0.0042 -0.1858
22270W        W37739  13.857  12.767  12.149  0.2761 -0.0687  0.1302
22271W        W37740  12.844   7.320  15.434  0.1012 -0.0146 -0.0384
22272W        W37741  13.219  10.004  14.870 -0.0480  0.1461 -0.0364
22273W        W37742  12.483  12.296   1.056  0.2872  0.0720 -0.0599
22274W        W37743   0.072  16.772  12.299  0.0461 -0.1422  0.1516
22275W        W37744  17.265  11.841  15.451 -0.0743  0.0219  0.0562
22276W        W37745  16.818   5.090  12.640  0.1086  0.1096 -0.1930
22277W        W37746  13.619   0.975  12.120 -0.1978 -0.2631  0.2194
22278W        W37747  11.177  11.113   0.960 -0.1490  0.0061  0.1978
22279W        W37748   5.090  17.237   4.928 -0.0175  0.2188 -0.1176
22280W        W37749   3.564   3.844   4.117 -0.0655 -0.0856 -0.1469
22281W        W37750   7.291   9.149  14.855 -0.2036  0.0141  0.1909
22282W        W37751   5.406   2.858   3.959  0.0507 -0.0433 -0.2888
22283W        W37752  11.107  12.455   1.986 -0.0875 -0.0729  0.1954
22284W        W37753  13.690  14.686   1.413  0.3100 -0.3187 -0.0253
22285W        W37754   6.937   6.806  14.535 -0.0367  0.0993 -0.0475
22286W        W37755  11.858  12.101   5.180  0.2468 -0.2727  0.1943
22287W        W37756  11.452  13.854   2.194 -0.0782  0.0989 -0.2839
22288W        W37757  14.300  11.272  14.435  0.2717  0.2709  0.0199
22289W        W37758   5.347  11.016  12.084  0.0202 -0.0953 -0.0490
22290W        W37759   3.333   0.722  12.669 -0.2291 -0.2013 -0.0085
22291W        W37760   5.424  15.964   2.664 -0.0555  0.2162 -0.0825
22292W        W37761  11.159   3.320   3.318 -0.3576 -0.0534  0.1188
22293W        W37762   3.888  14.236   3.240  0.0881 -0.1789 -0.1683
22294W        W37763  12.802   8.072   2.496  0.0078  0.0843  0.1541
22295W        W37764  16.883  15.888   3.571 -0.0320 -0.1453 -0.2509
22296W        W37765   0.301   8.391   3.661 -0.2595  0.1051  0.1189
22297W        W37766  10.471  16.180   1.409  0.1061  0.0547  0.0220
22298W        W37767   6.814   6.057   5.511  0.1747  0.0513 -0.1002
22299W        W37768   7.087  16.280  11.587 -0.1842  0.1777  0.2643
22300W        W37769   6.148   5.786   0.463 -0.1784  0.0272 -0.2630
22301W        W37770   9.277   8.941  11.165  0.1944 -0.0203  0.0704
22302W        W37771  13.880  12.875   4.572  0.0227 -0.2038 -0.2083
22303W        W37772   2.439   2.032   0.557 -0.0882 -0.1698 -0.1233
22304W        W37773   3.681   5.110   1.646  0.0945  0.0093  0.0153
22305W        W37774   9.697  17.813  10.582 -0.2690 -0.0926  0.0724
22306W        W37775  12.237   7.165   2.273 -0.0854 -0.2016  0.3077
22307W        W37776   5.421   1.913   4.738  0.2254  0.0387 -0.1853
22308W        W37777   9.422  17.881  15.593  0.2022 -0.2981 -0.0524
22309W        W37778   1.609   4.741  12.965  0.0328 -0.1328 -0.0435
22310W        W37779   6.286   7.759  13.819  0.1188  0.0444  0.0288
22311W        W37780  14.133   3.783  15.423 -0.2393  0.0947  0.1710
22312W        W37781   8.392   3.503   2.299 -0.0353  0.1619  0.2366
22313W        W37782  11.886  15.179   4.356 -0.1521  0.0078 -0.0128
22314W        W37783   5.809   5.253  15.179  0.0473  0.1808  0.0337
22315W        W37784   7.203   7.884  12.310 -0.1235 -0.4777 -0.2499
22316W        W37785   7.219  17.818   3.615 -0.0550  0.3046  0.0652
22317W        W37786   2.484  14.833  14.925  0.0386  0.1370 -0.0835
22318W        W37787   0.834  11.736  13.165  0.0215 -0.2582 -0.1281
22319W        W37788   0.461   0.815  14.502  0.4049 -0.0714 -0.0608
22320W        W37789   8.484   8.932  10.947  0.2540  0.0303 -0.3717
22321W        W37790  12.328   4.118  14.829 -0.0772  0.0020  0.1806
22322W        W37791  17.602  15.315  15.920  0.0793  0.0298  0.0343
22323W        W37792   4.687   5.388  12.759 -0.2398 -0.1282  0.0612
22324W        W37793  10.768  14.480  15.063  0.0392 -0.2864  0.1347
22325W        W37794  11.121   2.550  12.020 -0.1139  0.1172  0.1763
22326W        W37795   4.791  15.849   3.624  0.2750 -0.1804 -0.0243
22327W        W37796   1.625   8.482   2.308 -0.1383  0.2189  0.2772
22328W        W37797   6.303   6.714   0.449  0.1738  0.0895 -0.0167
22329W        W37798  11.566  17.680   4.633  0.1144  0.1152  0.0466
22330W        W37799   9.009  10.956  13.895  0.0375  0.0737 -0.0799
22331W        W37800   2.165   3.497   4.509  0.0941  0.1886 -0.0711
22332W        W37801  13.656  15.738  15.929  0.0860  0.2364 -0.3075
22333W        W37802   7.843   4.784   4.954 -0.3325  0.1715  0.1325
22334W        W37803   4.856   9.191  12.127 -0.1762 -0.2782  0.0575
22335W        W37804  10.386   1.190   0.331  0.2087 -0.0804 -0.2908
22336W        W37805   4.651   5.568   2.115 -0.1865  0.3902 -0.1309
22337W        W37806   9.473   7.268  12.814 -0.1153 -0.1586 -0.3226
22338W        W37807   9.343   8.080   5.565  0.0758 -0.1193  0.0473
22339W        W37808  15.363   9.586  11.330 -0.0045  0.0104 -0.0856
22340W        W37809  10.293   3.729   0.720 -0.0130  0.0580 -0.2943
22341W        W37810  12.389   5.303   4.912 -0.0675  0.2174 -0.0311
22342W        W37811  10.282  12.338   4.667  0.1169  0.1181 -0.0657
22343W        W37812  15.712  12.703  13.325 -0.0792 -0.0641 -0.2541
22344W        W37813   9.132  14.965  14.358  0.1243 -0.2394  0.3382
22345W        W37814  10.052  15.955  11.647  0.0072  0.1884 -0.0637
22346W        W37815  17.414   4.632   3.906  0.2195  0.1071 -0.2710
22347W        W37816   6.975  11.300  15.298 -0.0271  0.0011 -0.5651
22348W        W37817   0.360   6.752  15.178 -0.1312  0.0905 -0.0185
22349W        W37818   3.609  10.744  14.670 -0.0653 -0.0577  0.0047
22350W        W37819   0.113   5.909   2.634  0.2716 -0.0796  0.2601
22351W        W37820   8.470   8.104   3.468  0.0002 -0.0551 -0.1848
22352W        W37821   4.444  17.775   2.408  0.0343  0.2092 -0.0565
22353W        W37822   0.366   2.082  11.984 -0.0508  0.1224 -0.2389
22354W        W37823   8.835  12.422  14.729  0.0132  0.0724 -0.1625
22355W        W37824   6.161   6.088  14.127  0.2764  0.2926 -0.2939
22356W        W37825   2.142   2.430  10.631 -0.1903 -0.0893  0.4726
22357W        W37826  12.238  17.320  15.228 -0.0439 -0.0361  0.2922
22358W        W37827   0.629  14.134  13.677  0.0660 -0.0859 -0.1528
22359W        W37828   5.094   8.682   3.611 -0.1256  0.0722 -0.0923
22360W        W37829  10.716   7.862  12.589 -0.1420 -0.2421  0.1012
22361W        W37830   1.965   4.351  13.750  0.4066  0.2847  0.4701
22362W        W37831  16.263  13.057  13.228 -0.1325  0.1215  0.2130
22363W        W37832   9.443   6.441  16.254  0.0288 -0.3388 -0.0088
22364W        W37833  15.748   7.102  14.475 -0.2059  0.1923 -0.1254
22365W        W37834  16.750   9.224   4.860  0.2568 -0.0784  0.1045
22366W        W37835   6.703   4.039   0.380 -0.0805  0.2045  0.2942
22367W        W37836   0.678   6.410   5.255 -0.0088 -0.0503  0.0365
22368W        W37837   3.897  17.917   1.713  0.2390 -0.1998 -0.1968
22369W        W37838   3.567   9.079  13.370  0.0904  0.0001 -0.1658
22370W        W37839  16.179  12.932  12.728  0.0225 -0.0450 -0.2629
22371W        W37840  16.161   2.116  11.075  0.0077 -0.3324  0.1899
22372W        W37841   2.832  12.504  15.309 -0.1404 -0.0328  0.3872
22373W        W37842  10.980  16.556   0.992 -0.2841 -0.2412  0.1181
22374W        W37843  10.266  15.323   1.018 -0.0434  0.0675  0.3391
22375W        W37844   2.541  17.264  12.317 -0.0238 -0.1469  0.1569
22376W        W37845  12.748   2.428   0.986  0.0303 -0.1541 -0.2771
22377W        W37846  17.763   5.051   2.595  0.0603  0.2400 -0.0419
22378W        W37847   7.862   2.549  12.474  0.1236 -0.1423 -0.1171
22379W        W37848  17.474  11.555  16.292  0.1723 -0.2321 -0.0148
22380W        W37849   6.574   7.302  11.922  0.0006 -0.1758 -0.0814
22381W        W37850  16.263  14.875  11.125  0.0180 -0.1168 -0.0757
22382W        W37851   2.538  15.796  11.413 -0.1776 -0.1099  0.0274
22383W        W37852   4.702   3.022  10.506  0.2733 -0.1011 -0.1291
22384W        W37853   0.129  17.982  11.834 -0.0556 -0.0958  0.0606
22385W        W37854  12.384  14.705  13.658  0.2099 -0.3510 -0.1202
22386W        W37855   0.196  13.529  11.145  0.1942  0.0124  0.1700
22387W        W37856   8.058   1.622  15.601  0.1504 -0.2309 -0.2517
22388W        W37857   8.936  10.161   2.029 -0.0415  0.0374 -0.0414
22389W        W37858   7.820  14.225  13.217  0.0672 -0.1942  0.2202
22390W        W37859  15.583  12.894   4.116  0.2695  0.3018  0.2733
22391W        W37860   9.812   0.602  16.073  0.0871 -0.1140 -0.0267
22392W        W37861   8.297   6.297  13.164 -0.0408  0.1909  0.0324
22393W        W37862   2.925  12.893  13.494  0.0312 -0.1424  0.1954
22394W        W37863   1.129   9.441   5.978  0.1262  0.0387  0.0502
22395W        W37864  11.121   4.014  15.249 -0.3040 -0.0725  0.1796
22396W        W37865   7.704  10.431  11.030 -0.1624 -0.2236 -0.1574
22397W        W37866   0.223   6.209  12.729  0.1371  0.1776  0.0189
22398W        W37867  12.263  11.682  12.044  0.0500  0.0106 -0.0090
22399W        W37868   7.100  17.927   3.139 -0.1750 -0.0934 -0.0946
22400W        W37869   5.068   4.434   4.600 -0.1818 -0.1400 -0.1395
22401W        W37870   0.068   9.799   4.394 -0.1450  0.0567  0.0125
22402W        W37871   6.514   3.532   2.274  0.1309  0.0288  0.0964
22403W        W37872  14.939  11.590  15.930  0.1012 -0.0140 -0.0300
22404W        W37873  10.420   4.686  14.160  0.3365  0.1895 -0.2073
22405W        W37874   6.262   5.070  13.887 -0.1885 -0.1752  0.0683
22406W        W37875   6.772  11.091   2.952  0.0321  0.2414 -0.0531
22407W        W37876   1.322   2.672   2.506  0.1295 -0.1773 -0.1697
22408W        W37877  15.405   9.956  15.177  0.0590 -0.1424  0.1040
22409W        W37878   8.219  14.807  16.274  0.4840 -0.0332  0.1109
22410W        W37879  12.794  10.853   3.202  0.0925 -0.0461 -0.0064
22411W        W37880  14.259  14.730  14.497  0.0264  0.0590 -0.2582
22412W        W37881   1.637  15.356   1.468 -0.2116 -0.0265 -0.4573
22413W        W37882   6.640  12.661   4.293 -0.4012 -0.0335 -0.2277
22414W        W37883   3.608  13.390   9.997 -0.3260 -0.1179 -0.0748
22415W        W37884  12.974   8.913  11.464 -0.1063  0.1088 -0.6675
22416W        W37885  15.797  11.614  14.233  0.0140 -0.1387 -0.0796
22417W        W37886  14.742   0.620  12.304  0.0901  0.1284 -0.2246
22418W        W37887   0.612   7.775   1.531  0.0622 -0.0608  0.0979
22419W        W37888  12.253  14.245  15.439 -0.0443 -0.1864 -0.0420
22420W        W37889  13.477   7.997   3.331 -0.2866 -0.0885  0.1737
22421W        W37890   4.671  16.267  12.890  0.0142 -0.0343 -0.3753
22422W        W37891  13.836  10.087  14.147 -0.1675  0.0744  0.0855
22423W        W37892  12.994   9.634  12.734 -0.1184 -0.3897 -0.1043
22424W        W37893  10.674  10.261   5.005  0.0744  0.2341  0.1426
22425W        W37894   5.700   8.610   2.078  0.1659 -0.3448  0.0921
22426W        W37895   8.431   4.656  11.584  0.0586 -0.2257  0.2082
22427W        W37896   3.465  12.163  12.278  0.1600  0.0866 -0.0696
22428W        W37897  12.627   3.423  10.685 -0.1726  0.0213 -0.0280
22429W        W37898   3.222  13.375   1.923 -0.5619 -0.2343 -0.1157
22430W        W37899   3.137   5.284  15.271  0.1741 -0.3819  0.3858
22431W        W37900  12.823   1.249   4.215 -0.1386 -0.0727 -0.0888
22432W        W37901   5.194   5.699   3.629  0.3924 -0.3979  0.3027
22433W        W37902  16.608  16.582  12.074 -0.4299  0.0762 -0.1021
22434W        W37903   6.508  13.312   3.731  0.0601  0.1173 -0.0013
22435W        W37904   1.483  10.296   4.309 -0.1711 -0.1816 -0.0890
22436W        W37905  16.440   7.113   4.028 -0.2752  0.0055  0.0990
22437W        W37906   3.132   3.010   3.200  0.1187 -0.2227 -0.3040
22438W        W37907  12.180  15.301   3.351 -0.2112  0.0600  0.1712
22439W        W37908  18.050   4.727  11.140  0.0835 -0.2458 -0.0810
22440W        W37909   2.381   0.433   0.978  0.0036 -0.1264  0.1140
22441W        W37910   5.645  11.004   1.782 -0.3314 -0.0109  0.0724
22442W        W37911   1.879   9.930  10.675  0.0781  0.2270 -0.1004
22443W        W37912   4.748  11.781  13.970 -0.1309 -0.1842 -0.0912
22444W        W37913   1.556   6.108  10.044  0.0140  0.1287 -0.2216
22445W        W37914   8.993  17.319   5.804  0.2940  0.0128  0.1978
22446W        W37915   6.597   5.458   4.949  0.0094  0.0260  0.1541
22447W        W37916   8.379  17.029   3.038 -0.1260  0.0234  0.0226
22448W        W37917  11.111   3.996  13.139 -0.1654  0.1429 -0.3360
22449W        W37918   6.276   6.149   3.805 -0.0899 -0.0070 -0.2680
22450W        W37919   8.869   2.508   3.566 -0.4245  0.4130 -0.0758
22451W        W37920  17.598   1.797  11.469  0.4000  0.0712  0.0027
22452W        W37921  15.255  14.786  10.917 -0.1506 -0.2131  0.2075
22453W        W37922  13.604  14.464  16.191  0.0988  0.0086 -0.0655
22454W        W37923   6.176  14.525   4.191 -0.1207  0.2493  0.1266
22455W        W37924   5.334   8.664   4.809  0.0062 -0.1479  0.0133
22456W        W37925  10.839   1.806  15.447  0.0121 -0.0313  0.1664
22457W        W37926  13.094   1.318   1.660 -0.0027 -0.0032  0.1925
22458W        W37927   2.608  16.739  12.180  0.2669  0.3466  0.1456
22459W        W37928   8.223  14.860  10.946  0.0720  0.0549 -0.0330
22460W        W37929   5.003  12.118   2.440  0.2011  0.0601  0.0244
22461W        W37930   1.049  14.830   2.752  0.3935  0.1955  0.2807
22462W        W37931  18.017  15.349   5.863  0.3294  0.1911  0.1885
22463W        W37932   3.809  14.906  11.024 -0.0145 -0.0655  0.2655
22464W        W37933   7.939   7.118  15.120 -0.1037 -0.0176  0.2409
22465W        W37934  10.305   5.203  12.802  0.1251  0.2406  0.1388
22466W        W37935  11.295   0.796   4.907  0.0543  0.0915  0.1684
22467W        W37936   2.647  11.770   3.508 -0.0622  0.0895 -0.2405
22468W        W37937  12.265   6.467   0.587  0.1991  0.2493 -0.0860
22469W        W37938  10.705   9.207  13.306  0.2713 -0.0758  0.0595
22470W        W37939   2.794   9.254  12.221  0.0552 -0.1948  0.1806
22471W        W37940  13.585  10.388  12.499 -0.2080  0.1012 -0.0878
22472W        W37941   0.020  14.726   4.168  0.0622  0.4739 -0.0686
22473W        W37942  17.323   8.419  13.544  0.2078 -0.1667 -0.1868
22474W        W37943  16.211   8.874  15.870  0.1240  0.0823  0.0277
22475W        W37944  16.165   5.549   4.863  0.1408  0.0362  0.1238
22476W        W37945   9.799   0.032   6.196  0.3201 -0.0341  0.1747
22477W        W37946  14.441  16.884  11.823  0.0805 -0.0087 -0.0255
22478W        W37947  12.707  11.891   0.521 -0.2085 -0.0142 -0.0179
22479W        W37948   3.994   1.258   0.078 -0.1753 -0.0680  0.2499
22480W        W37949   2.475  14.314  13.266  0.2025 -0.0210 -0.0899
22481W        W37950   6.961   8.993  14.213  0.0062 -0.2885  0.1215
22482W        W37951  13.894   3.058   2.543 -0.3341 -0.1032  0.1081
22483W        W37952  12.900   6.878  15.720 -0.1423  0.0228 -0.0659
22484W        W37953   1.873   3.596  12.973 -0.0260 -0.2700  0.1524
22485W        W37954  12.534   4.731   1.313  0.0239 -0.3187  0.1183
22486W        W37955  13.077   5.722  11.928  0.2086 -0.0063 -0.4014
22487W        W37956   6.006  11.139   0.093  0.0817 -0.1866 -0.1927
22488W        W37957  12.212   3.673   1.132  0.2149  0.2745 -0.1654
22489W        W37958   8.888   1.024   6.302  0.1345  0.0115  0.3034
22490W        W37959   2.959   4.647  13.334  0.3045  0.1869 -0.0956
22491W        W37960   8.714   6.811  13.879 -0.0279  0.3223  0.0266
22492W        W37961  17.512   2.083   3.401  0.0148  0.1103  0.0329
22493W        W37962   0.357  11.827  14.949  0.0560 -0.2252  0.1765
22494W        W37963   9.035  10.894  11.297 -0.1418  0.2984 -0.2646
22495W        W37964  16.058  17.509   5.384  0.1479  0.3300 -0.0373
22496W        W37965  12.468   6.572   2.445  0.2601  0.1600 -0.2780
22497W        W37966   0.674   9.870   2.557  0.2372 -0.0828  0.0686
22498W        W37967  18.032   8.923  13.939  0.4012  0.2861  0.2112
22499W        W37968   2.873  15.923  15.997  0.0388  0.3413  0.1644
22500W        W37969   1.770  10.774   0.699 -0.1883  0.0437 -0.1374
22501W        W37970  17.896  12.560  11.928 -0.1155  0.0166  0.1334
22502W        W37971   1.172   5.105   3.929 -0.0984  0.2438  0.0148
22503W        W37972   3.587  13.196  12.979 -0.1177 -0.0739  0.0274
22504W        W37973  15.824  16.971  14.056 -0.0987 -0.0131 -0.1389
22505W        W37974   7.079   1.976  14.661  0.2284  0.0453 -0.1852
22506W        W37975  15.000  13.982   2.122 -0.0356  0.0360 -0.1660
22507W        W37976  11.168   7.667  15.071  0.0793  0.0118 -0.0405
22508W        W37977   0.544   8.110  14.191  0.1172 -0.2642 -0.1423
22509W        W37978   9.646   7.461   1.827  0.0290  0.0706  0.1364
22510W        W37979  11.555  15.286  11.714  0.0854 -0.0277  0.2371
22511W        W37980  11.022   3.533   0.550 -0.1882 -0.0308 -0.2811
22512W        W37981   7.066  15.752  13.952  0.1369 -0.2526 -0.0527
22513W        W37982   0.053  17.284  16.127  0.1179  0.0168 -0.1873
22514W        W37983  16.430   8.898   1.009 -0.1080 -0.0579 -0.1113
22515W        W37984   0.620   4.081   3.906 -0.3523  0.1260 -0.0123
22516W        W37985  10.361   4.791  13.702  0.1591  0.0225 -0.1161
22517W        W37986  14.795   0.333  12.755  0.0936 -0.1457  0.1121
22518W        W37987  14.818   4.787  15.781  0.0857  0.5715 -0.2093
22519W        W37988  15.592  14.756   3.844  0.3215  0.1499  0.1320
22520W        W37989  13.563  16.468   1.767 -0.0937  0.2234  0.0976
22521W        W37990   2.135  13.380   1.061 -0.3129  0.2081 -0.1214
22522W        W37991   8.725   2.470   3.074 -0.0047 -0.2119 -0.4862
22523W        W37992  17.110   8.376   0.620 -0.0925 -0.1232 -0.0100
22524W        W37993   6.436   6.814  12.036  0.3308 -0.1861  0.0670
22525W        W37994  14.470   2.606  12.423  0.0208 -0.2411  0.0709
22526W        W37995  17.980   0.459   4.686  0.0186  0.0672  0.0221
22527W        W37996   3.584   9.589   0.261 -0.0771 -0.2558 -0.2738
22528W        W37997  10.405  16.429  14.556  0.0438  0.1076  0.0312
22529W        W37998  16.698   4.210   0.649 -0.1769  0.2683  0.2371
22530W        W37999   4.135   3.670  15.556 -0.0580  0.1020 -0.1593
22531W        W38000  10.460   5.453  15.835  0.1296 -0.1232  0.0190
22532W        W38001  17.136   5.402  12.968  0.3275 -0.0660 -0.1405
22533W        W38002   4.680   4.409   0.386 -0.1034 -0.3065  0.1500
22534W        W38003  12.025  15.367  11.490 -0.0183 -0.2906  0.0483
22535W        W38004   0.753   4.677  16.209 -0.2144 -0.2595  0.3267
22536W        W38005  14.788   0.315   1.297 -0.2538 -0.0458 -0.1606
22537W        W38006   7.884   1.609  16.087  0.2121  0.0126  0.2814
22538W        W38007   2.958  17.690   1.781 -0.0387 -0.0411 -0.0920
22539W        W38008   2.851   4.409  14.171 -0.4246  0.4770  0.0683
22540W        W38009   4.021  11.885   0.344 -0.2694 -0.0493 -0.0421
22541W        W38010  15.998   0.996  13.379  0.1287  0.2823 -0.2303
22542W        W38011  15.118   1.032  15.463 -0.1127  0.0299  0.0406
22543W        W38012  17.369   0.475   3.669  0.1351 -0.1261 -0.1261
22544W        W38013   7.333  18.007   5.176  0.0045  0.0265  0.0252
22545W        W38014  13.447   9.803  15.513  0.0158  0.1944  0.0828
22546W        W38015  13.414   1.200   2.972 -0.2138  0.1674  0.1975
22547W        W38016  10.799   2.732   0.248 -0.0019 -0.0371  0.1335
22548W        W38017  14.345   5.032   0.806  0.0240  0.0110  0.0193
22549W        W38018  14.820  15.568   4.115  0.1580  0.3533  0.2245
22550W        W38019   8.881   4.716  15.230  0.0869 -0.3059 -0.0345
22551W        W38020   9.840  13.763   2.617  0.3526 -0.1835 -0.0819
22552W        W38021   9.220  10.893  15.646  0.2958 -0.1481  0.0714
22553W        W38022  13.205   4.281  11.424  0.0804  0.2258  0.1047
22554W        W38023   3.476   8.326   2.001 -0.1127 -0.0780  0.1601
22555W        W38024  11.357   3.740   4.554  0.0973  0.0927 -0.0196
22556W        W38025   1.019  11.801   5.703 -0.0083 -0.1372  0.1409
22557W        W38026   1.076  12.329   5.755 -0.1106  0.4017 -0.0611
22558W        W38027   2.418  10.000  15.701 -0.0411 -0.0415 -0.0038
22559W        W38028   9.329   4.084  10.776 -0.0120  0.0101  0.1682
22560W        W38029   8.670   6.775   4.530 -0.0735  0.1893  0.0964
22561W        W38030   1.500   5.688  14.022  0.1312  0.0374 -0.3002
22562W        W38031   9.601  11.394  12.637 -0.1115  0.2612 -0.1074
22563W        W38032   8.080   0.097   3.981 -0.1294  0.1276 -0.2963
22564W        W38033   2.326  16.343  11.332  0.1595  0.0444 -0.0236
22565W        W38034  13.450  15.290  12.434 -0.1024 -0.1947  0.1492
22566W        W38035   1.002   1.416   2.735 -0.0466  0.0574  0.1556
22567W        W38036  11.708  13.116  15.404 -0.0604 -0.0446 -0.0117
22568W        W38037   8.016   0.358  13.144  0.1390 -0.0285  0.1380
22569W        W38038   4.628  11.486  12.247  0.1435 -0.1112 -0.1344
22570W        W38039   6.609   0.077   2.894 -0.0753  0.0976 -0.2699
22571W        W38040   0.203  16.396   4.843  0.2117  0.1730 -0.0240
22572W        W38041   1.931  10.025   3.339  0.2524 -0.0417  0.0838
22573W        W38042  12.961  11.661   3.844 -0.0011  0.1987 -0.0885
22574W        W38043  11.999   5.577   5.988  0.0063 -0.1668  0.1608
22575W        W38044  15.299   7.160  14.680 -0.0890  0.0116  0.4875
22576W        W38045  11.428  10.837   4.695  0.1392 -0.1093 -0.1251
22577W        W38046   9.643  13.163   0.601 -0.1922  0.1431 -0.0262
22578W        W38047  11.556  10.454  12.215 -0.2500 -0.1786  0.0807
22579W        W38048  12.754  11.377  15.026 -0.2787 -0.0492 -0.0211
22580W        W38049   4.137  14.957   2.409 -0.0149 -0.1666 -0.0810
22581W        W38050   6.531  11.233   0.856 -0.0632  0.0756 -0.0113
22582W        W38051  13.861   0.292   5.028  0.0552  0.0828 -0.1785
22583W        W38052  11.671  15.914  10.481  0.2152  0.0727  0.0074
22584W        W38053   5.580  17.233  12.503 -0.0596  0.1555  0.0154
22585W        W38054  11.557   6.893   5.582 -0.1121 -0.1316 -0.1209
22586W        W38055  15.813   7.890   3.553 -0.0848  0.1605  0.2049
22587W        W38056  17.245   1.424   3.997 -0.4111  0.0860  0.0586
22588W        W38057   2.440   4.074  12.566 -0.4318 -0.0824 -0.0864
22589W        W38058  17.619  13.587   5.191 -0.0208  0.2058  0.0223
22590W        W38059  10.062   2.179   1.948 -0.1594 -0.0873 -0.0953
22591W        W38060  17.415   9.429  13.591 -0.3035 -0.3024  0.1513
22592W        W38061  12.293  12.482   3.377  0.2405 -0.0165 -0.0053
22593W        W38062  15.886   3.341   4.659  0.0681 -0.2973 -0.0375
22594W        W38063   3.428   9.663   4.770 -0.0093 -0.0154 -0.0885
22595W        W38064   2.890  17.862   2.683 -0.0922  0.2194 -0.0114
22596W        W38065  11.552  11.099   2.490  0.0706 -0.1487 -0.1249
22597W        W38066   1.728  11.647  12.056  0.1038  0.0481  0.2735
22598W        W38067   8.575   4.484  15.525 -0.3605 -0.2645 -0.1924
22599W        W38068  18.028  13.309  12.569 -0.1425 -0.0563 -0.1400
22600W        W38069  13.400   3.923  14.330 -0.0008 -0.2942 -0.1445
22601W        W38070   1.917   1.782  13.842  0.1285  0.0772 -0.2345
22602W        W38071   6.763  16.094   1.997 -0.0644 -0.3480  0.0484
22603W        W38072   9.959   6.781   2.641 -0.1036  0.1603  0.0867
22604W        W38073  17.503  16.369   0.494  0.0941  0.0230  0.1646
22605W        W38074  10.565  14.776   1.979 -0.1618  0.2471 -0.0067
22606W        W38075  12.463  15.062   3.679 -0.0703 -0.1373 -0.2738
22607W        W38076  17.098  13.421   1.577 -0.0623 -0.3499  0.1519
22608W        W38077  11.753  13.229  14.148 -0.0202 -0.1717  0.1523
22609W        W38078   5.825  10.375   4.140 -0.2684 -0.0376  0.0264
22610W        W38079   5.032   1.510  14.319 -0.1775 -0.3004  0.1150
22611W        W38080  15.804  11.880   5.025  0.1439  0.1526  0.0916
22612W        W38081   5.576   0.745   2.327 -0.1531 -0.1462  0.1084
22613W        W38082  11.658   2.340   0.606  0.1854  0.0893 -0.4085
22614W        W38083   4.393   4.645  16.261 -0.2010  0.0792 -0.1453
22615W        W38084  10.774   6.929  12.413 -0.0882  0.1644  0.1215
22616W        W38085  15.558  16.638  11.755 -0.1135  0.1002  0.1393
22617W        W38086   0.967  17.734  12.663  0.0986  0.2221  0.0911
22618W        W38087  10.174   7.059   0.600  0.1423  0.1973 -0.3733
22619W        W38088   4.405  17.521   3.687  0.3281  0.2216  0.2907
22620W        W38089   4.483   7.506  13.834  0.0628 -0.0998 -0.1975
22621W        W38090   8.903   3.967   3.139  0.3279  0.1768 -0.0562
22622W        W38091  13.917   8.760   1.218 -0.0063 -0.2796  0.1100
22623W        W38092  14.506   7.173  11.665 -0.4492  0.1118  0.2363
22624W        W38093   9.154  13.556  10.146  0.1379  0.0027  0.0771
22625W        W38094   4.909   5.029   1.687 -0.1020 -0.0994  0.1871
22626W        W38095  10.248   7.110   4.416 -0.0780  0.0407 -0.3053
22627W        W38096   9.768  17.574  15.386  0.0331  0.2740 -0.0039
22628W        W38097  15.834   4.243   1.317 -0.0156 -0.0579  0.1255
22629W        W38098   8.477   3.441  13.106 -0.1638  0.0499 -0.0005
22630W        W38099  18.013   0.956  15.818 -0.1668 -0.2990 -0.0829
22631W        W38100   5.154   3.066   1.215  0.0596  0.2147 -0.1626
22632W        W38101  11.809   1.547   5.312  0.2588 -0.0677  0.2037
22633W        W38102  11.959  17.312  15.701 -0.1766  0.1365  0.0745
22634W        W38103  17.465  15.346   0.505 -0.1374  0.0879  0.0591
22635W        W38104   7.970  15.761  14.225  0.3284 -0.5401  0.0428
22636W        W38105   5.152  10.108  12.229  0.2149  0.1762  0.0244
22637W        W38106  10.210   5.851   2.618 -0.0235  0.1123  0.0914
22638W        W38107   4.955   6.741  13.860 -0.2144 -0.0376  0.1060
22639W        W38108  11.803   3.544  13.662 -0.2580 -0.0330  0.2655
22640W        W38109   7.178   6.461  12.391  0.0073 -0.3518 -0.0095
22641W        W38110   1.599   5.774  16.187  0.0982  0.1620  0.4874
22642W        W38111  11.454  13.256   1.367 -0.1798  0.3312 -0.2972
22643W        W38112   0.844  17.667  13.135 -0.2557 -0.0603  0.1081
22644W        W38113   2.392  11.349   2.051  0.2433  0.0959 -0.1364
22645W        W38114   7.124  14.098  16.196  0.3638 -0.0393  0.2139
22646W        W38115   9.197   1.797   1.211 -0.2415  0.0309  0.2336
22647W        W38116   1.062   3.543  11.973  0.0206  0.1912 -0.2604
22648W        W38117  16.124   8.476   1.874  0.0325  0.0285  0.0899
22649W        W38118   0.582  10.815   4.723 -0.0011 -0.1568  0.1190
22650W        W38119  17.974  17.744   2.837 -0.0677  0.1142  0.1169
22651W        W38120   7.007   8.498   2.722  0.2769 -0.2160  0.0718
22652W        W38121   6.972   8.648  11.796 -0.2378 -0.0194 -0.0888
22653W        W38122   9.317   4.957  15.340 -0.0424  0.0204  0.0090
22654W        W38123   7.282  14.359   0.761 -0.0107 -0.3135 -0.0310
22655W        W38124   3.734   2.332  12.885 -0.0435  0.1674  0.1891
22656W        W38125   6.830   3.928   4.580  0.1787 -0.0116  0.2443
22657W        W38126   2.768  17.071  11.028  0.0931  0.0844  0.0745
22658W        W38127   5.720  12.669   4.969  0.4258 -0.1200  0.1309
22659W        W38128  15.883  13.421  12.631  0.3030  0.0981  0.0860
22660W        W38129   6.585  17.382  11.893 -0.2211 -0.1448 -0.1259
22661W        W38130   8.486   0.425  10.994  0.2476 -0.1681 -0.1376
22662W        W38131   8.656   6.121   0.501 -0.1785  0.3110 -0.0878
22663W        W38132   5.490  16.411   4.651 -0.0493 -0.3313  0.1025
22664W        W38133   2.915   0.431   3.190 -0.1376  0.1028  0.0752
22665W        W38134   4.333   9.257   1.755  0.0794  0.2352 -0.2430
22666W        W38135  11.964  15.210   2.847 -0.0063  0.3931 -0.0715
22667W        W38136   6.187  13.913  14.445  0.3423  0.1599 -0.1336
22668W        W38137   1.711   6.293  12.152  0.1294 -0.0906  0.1266
22669W        W38138  16.354   3.636   5.514 -0.1040 -0.1512  0.2926
22670W        W38139   2.763  13.998  14.403  0.2726  0.0194 -0.0088
22671W        W38140  12.132   3.945   5.654  0.1488  0.2100 -0.2052
22672W        W38141   5.848  13.487  13.546  0.1304 -0.2433 -0.1543
22673W        W38142  13.030   7.878   4.529 -0.2975  0.1430  0.0479
22674W        W38143  11.647  11.347  15.637  0.1427 -0.2780  0.0825
22675W        W38144  12.486  10.762  14.157 -0.0734 -0.1656 -0.4915
22676W        W38145   6.419   4.850   3.668 -0.3307 -0.0685  0.0005
22677W        W38146  11.175   7.840   1.781 -0.3057 -0.1476  0.1320
22678W        W38147  17.045   5.867  14.548 -0.0483 -0.1424 -0.2508
22679W        W38148  11.445  14.618   5.159  0.0735 -0.4176 -0.1299
22680W        W38149   5.095   0.364  11.326  0.3931 -0.2158 -0.2877
22681W        W38150  15.665  10.913   5.493 -0.1563 -0.0306  0.0585
22682W        W38151   9.439   1.446   0.200  0.0650 -0.1184 -0.1874
22683W        W38152  12.813  14.170   0.986 -0.2555  0.0816 -0.2499
22684W        W38153   8.897   9.716   0.273 -0.1295 -0.1388 -0.0259
22685W        W38154   5.076  14.568  14.498  0.1811  0.1014  0.0640
22686W        W38155  14.162   2.932   4.200 -0.0061  0.1839 -0.1623
22687W        W38156   7.424  12.722   3.743  0.1402 -0.0013 -0.0324
22688W        W38157   2.107   6.415  12.424  0.1153 -0.0120 -0.1760
22689W        W38158  10.108  17.379   1.593  0.2242 -0.2229 -0.0138
22690W        W38159   2.368   6.423   4.369 -0.1105 -0.1680 -0.1074
22691W        W38160   6.217  10.318  12.005  0.4417 -0.2082 -0.0631
22692W        W38161   8.268   6.279   2.193  0.0107  0.1570  0.2526
22693W        W38162   4.919  16.240  13.407 -0.2447 -0.2298 -0.0105
22694W        W38163  17.021   6.975   2.554 -0.0072 -0.2048 -0.0585
22695W        W38164   7.920  17.012  12.160 -0.0457  0.0106  0.0875
22696W        W38165  10.639  12.586  16.111  0.2960  0.0566  0.0584
22697W        W38166   0.608   8.151  12.552 -0.0738  0.0440  0.1417
22698W        W38167   6.136   4.363   3.145 -0.2307  0.0668  0.0253
22699W        W38168   8.853   9.269   0.126  0.2151 -0.2078  0.1530
22700W        W38169  14.280   7.168  15.904  0.3707 -0.0741  0.0859
22701W        W38170  14.348  11.566  12.892  0.1289  0.0635 -0.0013
22702W        W38171  15.930  15.407   1.880  0.2674 -0.2888  0.2027
22703W        W38172   7.145   6.038   2.199 -0.1757 -0.1608 -0.1335
22704W        W38173  12.164   8.529  13.890  0.0800  0.0913 -0.2549
22705W        W38174  11.907   7.774   3.863 -0.0860  0.0162 -0.2960
22706W        W38175  12.218  15.219  15.739 -0.0090 -0.2893  0.0911
22707W        W38176   7.856  10.478  14.577 -0.0251 -0.0263 -0.0764
22708W        W38177  16.159   9.040   0.032  0.3376  0.0471 -0.1442
22709W        W38178   6.961  16.878  15.923 -0.0934 -0.1207  0.0290
22710W        W38179   0.364  15.779  13.086 -0.1699 -0.2329 -0.0770
22711W        W38180   0.548   8.510   3.208 -0.0072  0.1977  0.1291
22712W        W38181  14.160   9.874  14.694  0.1688  0.1990 -0.2019
22713W        W38182  10.016  14.079   0.918  0.1844  0.1518  0.3517
22714W        W38183   4.297   8.258  15.521 -0.1711  0.1409 -0.0711
22715W        W38184   6.839   2.133   3.312 -0.1116  0.0541 -0.1170
22716W        W38185  11.251   5.616   5.611  0.0726 -0.2239  0.1517
22717W        W38186   3.523  11.422   4.981  0.1141  0.1291  0.0379
22718W        W38187   3.281  15.002   3.436  0.0384 -0.3034 -0.3608
22719W        W38188   1.797   4.311   0.181  0.2500  0.1748  0.0595
22720W        W38189   3.574  12.405   3.834 -0.0579  0.1817  0.1560
22721W        W38190   6.247   9.787  11.971  0.0137 -0.0087  0.3806
22722W        W38191  14.861  12.642  13.999  0.4488  0.2578  0.1028
22723W        W38192   0.713  11.195   0.191 -0.0519  0.1110  0.1432
22724W        W38193  13.486   9.983  13.572  0.1190  0.0219 -0.0225
22725W        W38194  17.400  16.186  15.779 -0.1213  0.2952  0.1361
22726W        W38195  13.909  17.089   3.121  0.3917  0.2345  0.3150
22727W        W38196   8.365  11.040   4.245  0.2137  0.2042 -0.0424
22728W        W38197  10.707   4.445   0.848 -0.3560  0.0879 -0.2707
22729W        W38198  17.929  15.428  11.147  0.2499 -0.0102 -0.2098
22730W        W38199  17.546  12.336   2.786  0.2737 -0.1963  0.4597
22731W        W38200   1.266  15.809  11.514  0.0541  0.0567 -0.0357
22732W        W38201   5.143   8.374  13.795  0.0801  0.2302 -0.3403
22733W        W38202  17.841  10.288   5.709  0.0055 -0.0188  0.0551
22734W        W38203  12.682   8.900  11.992  0.2124 -0.2164 -0.1371
22735W        W38204   8.221   3.654   3.760 -0.1241  0.1318  0.0139
22736W        W38205  10.467  16.546  12.652 -0.0119  0.0926 -0.2040
22737W        W38206  14.469   2.946  13.557 -0.0974  0.2530 -0.0091
22738W        W38207   9.257   2.080   5.465  0.0758 -0.1927 -0.4003
22739W        W38208  10.328  11.395  13.774  0.1422 -0.0178  0.1246
22740W        W38209  11.898  14.333   3.788 -0.1787 -0.1758 -0.3623
22741W        W38210  14.264   6.428  12.288  0.0409 -0.2489  0.2812
22742W        W38211   9.422   7.976   2.618  0.0998  0.2247  0.0321
22743W        W38212  10.223  15.783  12.542  0.0459 -0.3332  0.2850
22744W        W38213   6.852  12.030  16.145 -0.0883 -0.1172 -0.2643
22745W        W38214  10.847   7.700   3.257  0.0472  0.2359 -0.1759
22746W        W38215  16.535  16.252  15.873  0.0520  0.3689 -0.0605
22747W        W38216  10.367  14.043   2.949  0.0393  0.0052  0.3341
22748W        W38217   6.415   1.970   1.291 -0.2647  0.0460  0.0097
22749W        W38218  13.555  13.834   0.411 -0.0740  0.0138 -0.1236
22750W        W38219  12.913   0.049  11.756  0.0345 -0.0489 -0.2227
22751W        W38220   8.707  17.908  11.826  0.3216 -0.0173  0.2308
22752W        W38221   9.365   6.949   4.757 -0.1357 -0.4495  0.0158
22753W        W38222  12.877  11.164  16.283  0.0335 -0.1127 -0.0967
22754W        W38223  10.658   8.381   5.241  0.3782  0.1124 -0.1587
22755W        W38224  17.759  18.077   0.597 -0.0688 -0.1265  0.0091
22756W        W38225  16.606   3.952   1.610 -0.2348  0.1792 -0.2142
22757W        W38226   4.216   5.708   3.335  0.0391 -0.0605 -0.1783
22758W        W38227  13.516   9.409  12.666 -0.4961 -0.0950  0.0988
22759W        W38228   4.730  13.354   5.513 -0.2839  0.2598  0.1045
22760W        W38229   9.069   4.613  11.456  0.0624 -0.2078  0.2095
22761W        W38230  15.722   7.670  12.374 -0.1067 -0.1659  0.1310
22762W        W38231  11.584   6.392  11.473  0.0444  0.2699  0.0525
22763W        W38232  13.581  10.568  14.291  0.0356  0.2354  0.1605
22764W        W38233   4.846   1.813  12.364 -0.1923  0.1458  0.0761
22765W        W38234   6.461   4.376  15.763 -0.0728  0.3272  0.3070
22766W        W38235   6.991   9.602   4.963 -0.1219 -0.0562  0.0364
22767W        W38236   6.580  11.309   5.625 -0.1894  0.0816  0.0129
22768W        W38237   3.585   5.486  12.598  0.0644  0.4159  0.1163
22769W        W38238   7.468   3.282   0.945 -0.1355  0.3338  0.0131
22770W        W38239   8.080   1.202  15.307 -0.0737  0.1079 -0.0032
22771W        W38240  17.161   6.549  15.219  0.1827 -0.0026 -0.3678
22772W        W38241  11.178   1.882  14.575  0.1015 -0.0943 -0.4157
22773W        W38242  14.768  14.055   3.869 -0.0923  0.1573 -0.1011
22774W        W38243   3.744   6.927  13.396 -0.0922 -0.0666  0.1613
22775W        W38244   6.251  11.949   5.239 -0.0588  0.0730  0.1191
22776W        W38245  14.381   3.871  13.590  0.1695  0.3922  0.1287
22777W        W38246   6.138   4.723  13.539 -0.0403  0.0573 -0.0323
22778W        W38247  13.774  17.021   1.266  0.0610  0.3779  0.0758
22779W        W38248  13.170   6.965   1.510  0.1772  0.0937  0.0325
22780W        W38249   4.852   6.085   2.714  0.0026  0.0697 -0.1040
22781W        W38250  12.766  16.684   2.581 -0.0710  0.1256  0.0965
22782W        W38251  11.833   4.411   2.235  0.1958 -0.0154  0.2667
22783W        W38252   6.027  16.122  15.461  0.1305  0.0845 -0.0142
22784W        W38253   1.029   3.537   3.083  0.1692 -0.0083  0.4235
22785W        W38254  13.882   0.888   5.925 -0.2463  0.0830  0.1295
22786W        W38255   9.710   0.628   2.633  0.3503 -0.3280 -0.2294
22787W        W38256  16.999   9.640  14.185  0.2379 -0.1361 -0.6106
22788W        W38257   3.058   6.189  12.411 -0.2691  0.0543  0.1162
22789W        W38258   0.147  10.292   4.093  0.1210  0.0096  0.2136
22790W        W38259  12.516   8.402  12.072 -0.0018  0.3094  0.1517
22791W        W38260   1.876   7.637   1.155  0.0970  0.1164  0.2114
22792W        W38261  13.062  13.485  14.014 -0.0313 -0.0160  0.0784
22793W        W38262  11.303   4.331  13.980 -0.0660 -0.3192 -0.0035
22794W        W38263   5.962   5.090   3.798  0.2582 -0.0751  0.0865
22795W        W38264  16.824   0.079   4.265  0.0784 -0.0547 -0.0200
22796W        W38265  10.487   7.252   2.156  0.0425 -0.3221 -0.0345
22797W        W38266   2.546  11.672   0.145 -0.0290  0.0119 -0.0920
22798W        W38267   6.000   6.428   2.161  0.3400  0.2619  0.0543
22799W        W38268   3.593   6.885   2.847 -0.2719 -0.2475 -0.1426
22800W        W38269   3.133   7.936   0.050  0.4981  0.0789  0.0958
22801W        W38270   5.708  15.653   4.412  0.0473 -0.1577 -0.2363
22802W        W38271  12.915   0.539   0.445  0.0712 -0.0517 -0.1730
22803W        W38272  14.629   4.587   2.549  0.0694  0.1993  0.0068
22804W        W38273  14.810   4.349  16.061  0.1219 -0.0862  0.0479
22805W        W38274   6.382  16.948   5.694 -0.1842 -0.1400  0.2085
22806W        W38275   8.686   5.030   0.887  0.0909  0.0420  0.1464
22807W        W38276   9.587  11.387   1.053 -0.1783  0.1407 -0.1259
22808W        W38277   1.489  12.051  15.539  0.2188 -0.3845  0.0033
22809W        W38278   9.134   3.182   1.549 -0.0205 -0.2590 -0.1365
22810W        W38279  12.030   9.288  14.303  0.0382  0.1673 -0.2026
22811W        W38280  13.594   2.938  15.427 -0.1232  0.2178 -0.2767
22812W        W38281  14.163   5.467   5.174 -0.1234 -0.1753 -0.0795
22813W        W38282  11.257   4.415  11.444  0.3355  0.0157 -0.0770
22814W        W38283  11.449   5.952   4.934 -0.2512  0.2512  0.1723
22815W        W38284   7.122   9.435  14.386 -0.3339 -0.0240  0.2071
22816W        W38285  13.796   5.337  13.661 -0.2907  0.2450 -0.1038
22817W        W38286   5.181  16.797  10.922 -0.0764  0.1370  0.1258
22818W        W38287   7.576  17.876   1.180  0.0637 -0.2183  0.2544
22819W        W38288   6.773   6.427  11.996  0.3786  0.1640  0.5717
22820W        W38289  16.820  16.912  14.230  0.0446 -0.1061 -0.1187
22821W        W38290   8.360   9.080  11.805 -0.0635 -0.0994 -0.1222
22822W        W38291  11.198   5.270  13.523 -0.2329 -0.1116  0.0681
22823W        W38292  12.297  10.419   2.069 -0.3038  0.1156  0.0192
22824W        W38293  17.583   0.943   0.664  0.0769 -0.1267  0.0794
22825W        W38294   4.336  11.022   1.600 -0.0373 -0.0459 -0.1330
22826W        W38295   8.485  12.855  14.856 -0.0442  0.1391 -0.1423
22827W        W38296   0.638  17.287   0.536  0.0209  0.4092  0.1749
22828W        W38297   5.479   5.633  11.742  0.0794  0.2401 -0.1872
22829W        W38298  13.138   9.058  12.434 -0.2969  0.3446 -0.2900
22830W        W38299   0.271   8.050  15.623 -0.3057  0.2553 -0.0956
22831W        W38300   5.193  17.652   3.006  0.0189 -0.2391 -0.0684
22832W        W38301  15.982  11.822  11.222  0.0662  0.0335  0.0528
22833W        W38302   4.326   3.288  12.164  0.2265  0.3362 -0.1925
22834W        W38303   6.600  14.546  13.803 -0.1997  0.1108 -0.0833
22835W        W38304   9.174   1.625   0.659  0.2147 -0.0451  0.2169
22836W        W38305   7.136  16.517   4.658  0.1227  0.3244 -0.1792
22837W        W38306   6.188   5.140  14.759 -0.0831 -0.1490 -0.2383
22838W        W38307  13.140   4.807   5.007  0.6441 -0.2888 -0.5214
22839W        W38308  12.946   6.918  11.085  0.2685 -0.3751  0.1750
22840W        W38309  17.716   5.443   0.256 -0.2270 -0.1985  0.2239
22841W        W38310   3.608   1.684   4.920 -0.1858 -0.0921 -0.1165
22842W        W38311   2.492  15.178  15.337  0.3676 -0.0353  0.3657
22843W        W38312  17.729   5.091  15.217 -0.1029 -0.0115  0.0810
22844W        W38313  16.550   3.077  14.304  0.0932  0.0086 -0.0071
22845W        W38314  11.171   5.432  13.036 -0.3139  0.1185  0.0662
22846W        W38315  14.665  11.929  13.811  0.1470  0.4202  0.0789
22847W        W38316   0.981  15.947  11.016  0.0210 -0.2330 -0.3498
22848W        W38317   2.166   3.189   2.842  0.0807  0.1094 -0.0279
22849W        W38318  17.912  11.765  12.409 -0.0728 -0.0298  0.0184
22850W        W38319   2.346   0.006  15.762  0.2049 -0.0401 -0.2193
22851W        W38320  14.952  17.484   4.214 -0.0242  0.1433  0.1063
22852W        W38321  13.901   8.495   0.357 -0.1570  0.1364 -0.1373
22853W        W38322   4.464   3.649   0.047  0.0418  0.0292  0.0142
22854W        W38323   5.537   3.331   3.162 -0.1731 -0.0818  0.0584
22855W        W38324  12.232   6.700   5.068  0.2878 -0.2250  0.1542
22856W        W38325   3.049  17.779   4.491 -0.0969 -0.0094  0.1081
22857W        W38326   9.037   5.342   3.166 -0.2156  0.0184 -0.1574
22858W        W38327  14.715  16.851  13.104  0.2608  0.0099  0.0932
22859W        W38328   4.314   6.639   0.122 -0.0819 -0.0861  0.0892
22860W        W38329  13.308  17.553  12.356  0.0940 -0.1296  0.0871
22861W        W38330  11.265  14.889   1.972  0.1847 -0.2872  0.0753
22862W        W38331   9.299   0.684  13.599  0.0593 -0.0175 -0.1524
22863W        W38332  15.213   9.053  14.140  0.0062 -0.3385 -0.2302
22864W        W38333   7.243   4.170   4.496 -0.2200  0.1942  0.0569
22865W        W38334   8.413  11.618  15.468  0.2961 -0.0096 -0.1059
22866W        W38335  17.902   6.201   4.578  0.0955 -0.0602  0.1482
22867W        W38336  16.401  17.115  15.742 -0.1550 -0.0927  0.2871
22868W        W38337  10.715  11.904   1.348  0.1084  0.3987  0.1303
22869W        W38338   2.636   8.319  14.966  0.0880 -0.4352 -0.0267
22870W        W38339   7.262   2.685  13.452 -0.1948 -0.0309  0.2944
22871W        W38340   2.766   0.708  15.947  0.4153 -0.0371 -0.3413
22872W        W38341   9.887   0.751  14.825 -0.1079  0.2232  0.1867
22873W        W38342  14.767   5.605  12.065  0.1022 -0.0359  0.0131
22874W        W38343  13.172  13.830   1.308  0.0436  0.0817  0.0593
22875W        W38344   6.428   9.922  10.952  0.3435 -0.2667  0.1471
22876W        W38345  13.121   5.634   5.199  0.2517  0.0123 -0.1310
22877W        W38346  13.831   5.366  14.636  0.0250  0.2011 -0.1256
22878W        W38347  14.184   8.543   3.118  0.0581 -0.0059  0.1838
22879W        W38348  10.031   6.341   0.775 -0.1377 -0.1596 -0.0172
22880W        W38349   0.404   6.916   2.509  0.0559 -0.0170 -0.2098
22881W        W38350  15.158   3.156   3.284 -0.0560  0.2440 -0.2894
22882W        W38351   0.975  11.920  12.602  0.1216  0.0637  0.0655
22883W        W38352   5.959   1.865  13.395 -0.0577 -0.0288 -0.0922
22884W        W38353  12.490   9.947   4.254 -0.2325 -0.0775  0.3582
22885W        W38354   1.699   7.515   2.748 -0.4248 -0.0172  0.1376
22886W        W38355   2.954   9.278  15.850  0.2790  0.1281  0.0243
22887W        W38356  17.397   2.232  12.350  0.2762 -0.0462  0.1509
22888W        W38357   3.154   8.036  11.665 -0.0099  0.5242 -0.1334
22889W        W38358   9.600   1.749   5.454 -0.2094  0.3535  0.0548
22890W        W38359  15.392   2.737   1.175 -0.0546 -0.2769  0.0291
22891W        W38360   5.755   5.024   0.926 -0.2031 -0.2029  0.2506
22892W        W38361  12.643   7.187   3.210  0.1636 -0.1074 -0.2619
22893W        W38362   5.993  17.269   2.999 -0.1717  0.1343  0.2113
22894W        W38363   7.385   9.979   4.034  0.3292 -0.0582 -0.0084
22895W        W38364   3.589  11.145   1.017 -0.1525  0.2789  0.1927
22896W        W38365  14.347   4.294  14.743 -0.0215 -0.2208 -0.0264
22897W        W38366  11.983   2.997   5.656  0.3805  0.1242 -0.3389
22898W        W38367  16.031   2.974   0.692 -0.1567 -0.2635 -0.1553
22899W        W38368   1.996   2.544   5.161 -0.2760  0.1452 -0.2259
22900W        W38369   5.710  16.245  14.042 -0.0941  0.0914 -0.1653
22901W        W38370  16.041  17.379  13.161 -0.0730 -0.1946  0.2185
22902W        W38371   4.645  10.421   3.658  0.3827 -0.1853  0.2441
22903W        W38372  12.961   1.703  14.075  0.1219  0.2466 -0.2595
22904W        W38373   6.027  15.683  11.831 -0.1917  0.1126  0.1246
22905W        W38374   5.541   0.138  11.239  0.1070  0.0245  0.1602
22906W        W38375   6.555  11.688   4.432 -0.2412  0.1240  0.3407
22907W        W38376  14.420  10.302  12.329  0.0329 -0.1302 -0.1287
22908W        W38377  12.352   6.879   2.796  0.0242 -0.0841  0.0136
22909W        W38378   4.233  13.331   4.146 -0.3359  0.1866 -0.0864
22910W        W38379   2.666  15.897   1.148  0.0174  0.3844  0.1925
22911W        W38380  13.187  13.201   3.276  0.2115 -0.0049 -0.2723
22912W        W38381   0.974  16.531  11.829 -0.0302 -0.1462 -0.0551
22913W        W38382  17.592   2.013   4.763 -0.0002  0.2442 -0.0359
22914W        W38383   1.298   6.973   5.295  0.1170  0.2573  0.2938
22915W        W38384  10.876  16.460  16.063  0.5207  0.1795  0.2983
22916W        W38385   4.113  17.766  11.869  0.3335  0.0754  0.1216
22917W        W38386   3.371  13.587  11.328 -0.1461 -0.1935 -0.1312
22918W        W38387   6.848   6.370   0.464  0.0729  0.1986  0.1792
22919W        W38388   1.496   1.727   3.599  0.0227  0.0442 -0.2666
22920W        W38389   1.763   6.050   1.976 -0.0716 -0.0456  0.0676
22921W        W38390   4.394  12.164  13.922 -0.0654 -0.0491 -0.0036
22922W        W38391   8.261  11.167  15.666 -0.2067 -0.1606 -0.1343
22923W        W38392   4.071  17.989   0.824 -0.2150  0.1655 -0.0456
22924W        W38393   0.778  14.633  12.487 -0.2463 -0.0801 -0.2143
22925W        W38394  12.620   5.787   1.931  0.1898 -0.0048  0.0817
22926W        W38395  16.728  13.556  10.655 -0.0035  0.1539  0.0063
22927W        W38396   3.616  17.359   1.265  0.2807 -0.0870 -0.1081
22928W        W38397   8.706   7.094   3.951  0.1764 -0.2063  0.1101
22929W        W38398   6.706  16.666   3.972 -0.2922  0.1129  0.1429
22930W        W38399   6.478   6.464   2.324 -0.0057  0.4421  0.0315
22931W        W38400   3.106   9.116  12.583  0.4120  0.0881 -0.1097
22932W        W38401   3.971  16.342   2.361  0.2050  0.0771  0.0428
22933W        W38402  11.700   8.165  11.802  0.2814  0.1332 -0.3110
22934W        W38403  10.908  16.136   3.640 -0.1839  0.0213  0.1619
22935W        W38404  11.283  17.290  11.595  0.0267  0.0027  0.2682
22936W        W38405  16.562   4.307  12.808  0.1505  0.2417  0.1500
22937W        W38406  16.948  12.226  11.767  0.2118  0.3861 -0.0439
22938W        W38407  16.401  15.417   1.760 -0.0397  0.0104  0.4238
22939W        W38408  16.995   8.793   6.291 -0.2797  0.2390 -0.0297
22940W        W38409  11.095  14.980  11.911  0.1615  0.0456 -0.2437
22941W        W38410  12.929  18.035   2.009 -0.1829  0.0303  0.0158
22942W        W38411  13.243  16.928   2.477 -0.2513  0.0400  0.0888
22943W        W38412  12.731   5.072  11.368  0.0643 -0.0059 -0.3558
22944W        W38413   6.575   4.246   5.352  0.0392 -0.1158  0.1764
22945W        W38414   3.980  10.836  13.340  0.4317  0.1065  0.1912
22946W        W38415  10.144   5.856  11.590  0.1689 -0.2135  0.1254
22947W        W38416   5.273  17.228  15.190  0.0722  0.3892 -0.1555
22948W        W38417   3.245   3.881  10.844  0.2448 -0.1395 -0.1881
22949W        W38418   0.984   0.138  15.753 -0.0441  0.1019 -0.1356
22950W        W38419  15.883   9.639   2.353 -0.2109 -0.0210 -0.1320
22951W        W38420   1.897   7.856   4.546 -0.0580  0.1333 -0.0212
22952W        W38421  11.184   6.514  15.468 -0.0318 -0.3252 -0.2484
22953W        W38422   2.190  17.941   4.877 -0.0793 -0.5824  0.2093
22954W        W38423  17.883   3.177   2.138  0.3589 -0.1512 -0.1453
22955W        W38424   8.917  16.511   3.531 -0.0915  0.0201  0.3678
22956W        W38425   6.531   6.998  15.826  0.0723 -0.1497 -0.0000
22957W        W38426  16.225   3.475   3.280  0.1138  0.1558 -0.0783
22958W        W38427   0.553  14.699   3.880  0.0620 -0.1657 -0.0842
22959W        W38428  12.792  10.823   5.966 -0.1720 -0.1327  0.2100
22960W        W38429   3.822   8.172  15.284 -0.0249  0.0137  0.2363
22961W        W38430   4.132   2.043  12.939  0.1460  0.1593  0.0660
22962W        W38431   9.522   0.414   4.742 -0.0101 -0.0377 -0.0970
22963W        W38432   0.155  12.723   5.818 -0.1970  0.0800  0.1435
22964W        W38433  11.557  15.617  12.658  0.0534 -0.2247 -0.3809
22965W        W38434   1.746   4.262   1.633 -0.1053  0.1842 -0.0526
22966W        W38435  10.784   7.666   0.338 -0.1903 -0.2303  0.1371
22967W        W38436   7.416   3.973   5.222  0.2258  0.0365  0.1075
22968W        W38437  13.749   6.718  12.362  0.2343 -0.2389  0.1086
22969W        W38438   3.899  12.442   9.771  0.1959 -0.0145  0.2602
22970W        W38439  12.741  10.418   0.966  0.0796  0.1791  0.1618
22971W        W38440   3.693   2.599  15.517 -0.0714 -0.1372 -0.1491
22972W        W38441  16.591  10.859   4.861  0.2004  0.1206  0.0624
22973W        W38442  14.333   3.105   3.723  0.0645 -0.0167 -0.0617
22974W        W38443   9.567  13.591   1.171 -0.2145  0.3882 -0.0448
22975W        W38444  15.551   1.640   0.114  0.0032 -0.0845  0.0726
22976W        W38445  12.455   7.423   3.619  0.0064  0.1941 -0.2407
22977W        W38446  17.178   7.996   2.867 -0.0326 -0.1858 -0.1622
22978W        W38447   6.331   6.037  11.642  0.0275 -0.1227  0.2131
22979W        W38448  16.370   6.313   1.434  0.1996 -0.1272  0.0674
22980W        W38449   8.826  10.824   4.136 -0.1792  0.1982  0.1715
22981W        W38450   7.682   4.928   3.409 -0.0706  0.1551 -0.2339
22982W        W38451   0.982   9.038   1.481  0.0236  0.1203  0.0347
22983W        W38452  11.811  14.565  12.422 -0.1333  0.0479 -0.1490
22984W        W38453   4.460  12.199   2.519  0.0498  0.1452  0.0595
22985W        W38454  11.284   5.917   2.969 -0.2573 -0.0061 -0.2093
22986W        W38455  11.539  13.611  13.850 -0.0071  0.4256  0.4495
22987W        W38456  16.384   8.310   3.312 -0.0618  0.1544 -0.0090
22988W        W38457   9.791   8.666   1.326  0.0623  0.1200  0.0130
22989W        W38458   8.588   7.287   4.488 -0.1918 -0.2609  0.1643
22990W        W38459   0.014   1.841   4.859 -0.1146  0.3206 -0.1503
22991W        W38460   9.453   5.283  13.530 -0.2539  0.0299 -0.0640
22992W        W38461  12.245  18.080   4.850  0.0984  0.4880 -0.1982
22993W        W38462  11.576  12.501   4.196  0.1380  0.0129 -0.0284
22994W        W38463   0.267  12.287  13.474 -0.0692 -0.0509 -0.1050
22995W        W38464   2.005   8.875  14.349  0.0537  0.0065 -0.0535
22996W        W38465   1.772   8.476  15.160 -0.1630  0.0822  0.2281
22997W        W38466  14.869  17.440   3.297 -0.2411 -0.3284  0.5411
22998W        W38467   4.673  12.208  11.676 -0.1851  0.0552  0.0772
22999W        W38468  16.409   4.585  15.280  0.2274 -0.2126 -0.0839
23000W        W38469   3.571   4.207  12.364 -0.4215 -0.0237 -0.0228
23001W        W38470   5.361   2.670   0.871  0.1070  0.1514  0.2273
23002W        W38471   9.036   0.863   3.495  0.0055 -0.0075 -0.2431
23003W        W38472  12.703   4.443   3.786  0.0542  0.0871  0.2395
23004W        W38473  11.822  17.623   1.565 -0.1510  0.2036 -0.0124
23005W        W38474   9.575  12.020  10.815 -0.1435  0.1822 -0.1967
23006W        W38475  11.361   6.975   2.018 -0.0663  0.3476 -0.2253
23007W        W38476   1.589  14.816   0.800 -0.1920  0.2757 -0.1035
23008W        W38477   5.229  15.458  11.874 -0.3871  0.0233 -0.1920
23009W        W38478  10.975  17.777  10.620 -0.1490 -0.1038  0.0557
23010W        W38479   3.683  15.961  10.907  0.0405  0.2306 -0.1321
23011W        W38480   3.871  15.341   0.138  0.2699 -0.1452 -0.3156
23012W        W38481  12.484  11.489   3.858 -0.1619 -0.0464  0.1213
23013W        W38482   7.105   5.485  11.097  0.1109  0.2340 -0.1307
23014W        W38483   6.846   6.625  14.031  0.3164  0.2439 -0.1090
23015W        W38484  13.230   6.010   5.886  0.0670 -0.1108  0.1224
23016W        W38485   7.959   9.702   4.919  0.0350 -0.0373 -0.5033
23017W        W38486   3.476  15.295  13.321  0.2174  0.0796  0.0508
23018W        W38487  17.928   6.228  13.670 -0.0171  0.2330 -0.0188
23019W        W38488  12.549   4.819  15.898  0.0691 -0.0809  0.1202
23020W        W38489   3.836   0.523  11.667  0.0324 -0.2041  0.0158
23021W        W38490  14.637   0.623  13.788  0.4320  0.1126 -0.1194
23022W        W38491   4.276   6.534  14.319 -0.2999  0.2140 -0.0267
23023W        W38492   3.191  12.725   0.371 -0.1828  0.0272  0.0858
23024W        W38493   7.908  14.081  13.865  0.0068 -0.1935  0.1480
23025W        W38494   1.723  10.312   0.446 -0.0365  0.0879  0.1719
23026W        W38495   5.267   6.349  11.537  0.0583  0.0344 -0.2257
23027W        W38496   8.806  17.283  13.515  0.0944 -0.1207  0.1006
23028W        W38497   4.639   1.811  14.401  0.0304  0.0183  0.0279
23029W        W38498   2.629  16.275   0.266 -0.1844  0.0671  0.5192
23030W        W38499  12.622   7.625   0.593 -0.2665 -0.1070  0.1156
23031W        W38500  17.780  12.931   4.601 -0.0469 -0.0132  0.0248
23032W        W38501   7.753   8.554  12.920  0.0096 -0.1274  0.2774
23033W        W38502   0.831   2.960  13.753  0.0782 -0.3914  0.3856
23034W        W38503  16.578   9.861  14.403  0.0265  0.0496 -0.0139
23035W        W38504   5.693  13.708   1.904  0.0620  0.0860 -0.2389
23036W        W38505  15.060   3.522  13.314 -0.0805 -0.0476 -0.0029
23037W        W38506   5.151  16.069  11.129  0.0265 -0.2948  0.2143
23038W        W38507   6.860  13.843  15.872  0.0416  0.3793  0.0893
23039W        W38508   8.882  15.223  15.539 -0.0262  0.0427 -0.1375
23040W        W38509  17.994  13.877   0.931  0.0224 -0.0708  0.2685
23041W        W38510   8.696  13.682   1.357 -0.1107  0.1802  0.2215
23042W        W38511   8.947  10.481   0.142  0.1431  0.1849  0.0650
23043W        W38512  17.790   1.007  12.589 -0.1680  0.0741 -0.1062
23044W        W38513   0.126   2.441   2.395 -0.1686 -0.4563  0.0104
23045W        W38514   4.270  17.931   5.218 -0.1520 -0.1694 -0.1944
23046W        W38515  12.652   0.262   0.840  0.1297 -0.0650 -0.1105
23047W        W38516   3.988   8.929  12.261 -0.4186 -0.1052 -0.1458
23048W        W38517   9.883   8.839   4.139 -0.2583  0.2392 -0.1419
23049W        W38518   9.244   4.587   1.175 -0.1808  0.2167  0.1438
23050W        W38519  15.433  10.593   3.475 -0.0056 -0.0458 -0.1094
23051W        W38520   9.949  11.469   1.387  0.0632 -0.1529 -0.2285
23052W        W38521  12.408   9.059   3.335 -0.3227  0.1103  0.1383
23053W        W38522  11.386  12.724  15.487 -0.0445 -0.2004 -0.1150
23054W        W38523  12.607  17.465   5.450  0.0032 -0.0546  0.1669
23055W        W38524  13.885  10.441  15.937 -0.1411  0.0432  0.0257
23056W        W38525   7.013  11.217  16.201 -0.0507 -0.0384 -0.1395
23057W        W38526  14.274  10.871   5.823 -0.4554 -0.1160  0.0324
23058W        W38527  14.403   5.071  15.872  0.2585  0.2699  0.0250
23059W        W38528  16.378   1.256  12.490 -0.2792 -0.1962 -0.0983
23060W        W38529   2.130  15.601   0.476 -0.0961  0.2467 -0.1352
23061W        W38530   9.281   4.771  14.021 -0.3376 -0.1789  0.0170
23062W        W38531   7.879  10.946   2.622 -0.0716 -0.3856  0.1583
23063W        W38532   4.854  14.802  16.276  0.1907  0.0214  0.1751
23064W        W38533   6.248  10.476   0.665  0.0726  0.1879  0.2149
23065W        W38534   1.057   3.545   0.482 -0.3302 -0.0893 -0.0715
23066W        W38535   4.690  12.126  13.143  0.2531 -0.0198 -0.0394
23067W        W38536   2.949   3.693  10.490  0.1866  0.0605  0.1055
23068W        W38537  16.881  16.490   3.875 -0.2393  0.1456 -0.1565
23069W        W38538   2.017  12.761  16.052  0.1649 -0.0667  0.1447
23070W        W38539   1.744  12.146  13.774 -0.1420 -0.1041 -0.0075
23071W        W38540   8.848  14.541  11.479  0.0767  0.1506 -0.1552
23072W        W38541   9.112   9.618  11.800 -0.2460 -0.3855  0.0120
23073W        W38542   7.864   7.414   1.535  0.2020 -0.0277  0.0559
23074W        W38543   7.386  11.070  11.588 -0.1454 -0.0229 -0.2601
23075W        W38544  12.814   7.839  14.813  0.1634 -0.2173  0.0641
23076W        W38545   4.582   1.897   1.099 -0.1682 -0.1284 -0.0431
23077W        W38546   1.826   8.276  13.185 -0.0611  0.1818 -0.0009
23078W        W38547   6.261  14.268  11.228  0.0725 -0.0101  0.2511
23079W        W38548  11.107  15.129   3.634  0.3474  0.3659  0.0571
23080W        W38549   6.130   3.470  12.260  0.3784  0.1790 -0.0341
23081W        W38550   5.540  10.032  14.416 -0.1235  0.0723 -0.1917
23082W        W38551   4.582   6.185   5.493  0.2612  0.0100  0.0513
23083W        W38552   1.738   0.632  15.095 -0.1641 -0.1314  0.0312
23084W        W38553   1.698  13.073   3.220 -0.1989  0.1606 -0.2535
23085W        W38554  10.444   9.605   0.112 -0.1656  0.2609 -0.2594
23086W        W38555   0.951   2.582   3.494 -0.1196 -0.2057  0.1240
23087W        W38556   9.689  15.179  15.751 -0.1251  0.0053 -0.2417
23088W        W38557   6.988  15.340  14.204 -0.1231  0.0050  0.0008
23089W        W38558   5.021   6.235  14.847 -0.0458  0.0312 -0.0405
23090W        W38559  10.841  13.476  13.240  0.1375 -0.1235  0.1955
23091W        W38560   7.322   5.474   3.186 -0.0998  0.1415  0.0278
23092W        W38561  18.095  16.371  15.097 -0.4834 -0.1187 -0.3272
23093W        W38562   9.524   6.836  13.092  0.1784 -0.1181  0.1109
23094W        W38563   3.020   5.725  13.194 -0.0722  0.1068 -0.1835
23095W        W38564  15.935  14.380   3.944 -0.6300  0.1136  0.1979
23096W        W38565   7.875   5.798   3.911  0.1072  0.2537  0.1873
23097W        W38566  16.816   2.736   5.451 -0.2624  0.3522  0.0890
23098W        W38567  16.564  11.656   4.344  0.1302  0.1214  0.1412
23099W        W38568   2.248   2.122  14.636 -0.3256  0.0099  0.1230
23100W        W38569  11.688   5.370  10.981 -0.0882  0.1154  0.0639
23101W        W38570  11.870   6.143   4.733 -0.3109  0.4100  0.1091
23102W        W38571   5.193   8.402   2.645 -0.0522  0.0357  0.3169
23103W        W38572   0.917   1.079   0.145 -0.2630 -0.2039  0.2036
23104W        W38573   5.662  14.007  15.272  0.4973  0.0620 -0.1235
23105W        W38574   3.029  10.015   0.763 -0.1199 -0.1519  0.1973
23106W        W38575   4.410   7.630  16.225  0.0893 -0.2212 -0.0410
23107W        W38576  13.076  12.239  15.271 -0.0536  0.0361  0.1092
23108W        W38577   7.570   0.303   4.265  0.0251  0.2233  0.0918
23109W        W38578   5.034   9.286  11.495  0.1390 -0.1917 -0.0851
23110W        W38579  12.622   4.165  13.813 -0.1717  0.0443 -0.0148
23111W        W38580   4.285   2.300   1.074 -0.1630  0.0078 -0.1751
23112W        W38581   6.900   9.523   1.325 -0.1612 -0.2026 -0.0062
23113W        W38582   8.156   6.681  13.970 -0.0446  0.2205  0.0377
23114W        W38583  17.360   4.504  13.741  0.0598  0.0209 -0.0403
23115W        W38584  13.102  10.459   4.647  0.2418 -0.1619 -0.0793
23116W        W38585   7.018   8.256  12.639  0.1998  0.2945  0.0270
23117W        W38586   1.554  17.003   0.833 -0.0976  0.0963  0.2408
23118W        W38587   3.989  13.644   2.781 -0.2787  0.4154 -0.1802
23119W        W38588   6.231  14.571   3.732  0.0060  0.1353  0.0365
23120W        W38589   9.881   3.838  14.039 -0.0434 -0.3731  0.0048
23121W        W38590   7.847   7.853  11.770  0.1086 -0.0200 -0.3911
23122W        W38591   9.544   3.476   1.323  0.2983 -0.0367  0.3257
23123W        W38592   8.049  14.425  14.855 -0.0753  0.3096  0.0833
23124W        W38593  12.182   3.943   1.651 -0.3339 -0.1270  0.1745
23125W        W38594   1.409  14.693   4.319  0.2105 -0.0450  0.1298
23126W        W38595   1.944   0.923   2.597  0.1368 -0.0293 -0.2015
23127W        W38596   3.549   9.024  14.545 -0.0959  0.3168  0.2518
23128W        W38597   6.669   1.073   3.064  0.0416  0.1256  0.2035
23129W        W38598   4.740   2.390  13.565  0.0580 -0.2188 -0.1311
23130W        W38599  11.497   4.379  13.266 -0.0425  0.2399  0.0068
23131W        W38600  15.256  17.453  15.910  0.1248 -0.0146 -0.1887
23132W        W38601  10.581   7.601  12.964  0.0921 -0.1191 -0.1414
23133W        W38602  15.699  12.436   2.076  0.1635  0.1351 -0.1559
23134W        W38603   3.272   1.339  13.633 -0.0563  0.0290  0.3226
23135W        W38604  10.987   0.766   2.380 -0.0156 -0.1520 -0.0673
23136W        W38605  12.909   2.374   4.903  0.1677  0.0854  0.0575
23137W        W38606  10.807   4.560   2.324 -0.2269 -0.3102 -0.1885
23138W        W38607  10.495   4.979   2.838 -0.1891  0.1201 -0.0611
23139W        W38608  15.316  12.377   3.476 -0.0614  0.0437  0.1381
23140W        W38609   8.450   4.339  14.605  0.1832 -0.0279  0.1610
23141W        W38610  15.678   0.087   0.994  0.2985  0.1009  0.0058
23142W        W38611  17.540  14.450  14.900 -0.0861 -0.1842  0.0968
23143W        W38612  13.649  15.152   2.022 -0.2023  0.0339  0.1454
23144W        W38613   0.601   0.131   0.074 -0.0175  0.2532 -0.0832
23145W        W38614   1.561  16.838   2.107 -0.2014 -0.1436  0.1597
23146W        W38615   3.070  12.670   2.399  0.0744  0.4615 -0.3431
23147W        W38616   8.974   8.341   0.711 -0.1609  0.0095 -0.0914
23148W        W38617   9.676   9.391  16.055  0.0225 -0.0121  0.0207
23149W        W38618   1.540  16.917  13.814 -0.1498 -0.0904  0.1671
23150W        W38619  15.506   8.477   3.471 -0.0658 -0.0129 -0.2077
23151W        W38620  13.243   7.636  13.650 -0.1255 -0.2277  0.1467
23152W        W38621   0.075  17.843  13.241 -0.1541  0.0882  0.2110
23153W        W38622  14.785   3.550  12.838 -0.1850  0.2338  0.1612
23154W        W38623  11.617  17.309   4.974  0.1884  0.0337  0.0462
23155W        W38624  17.336   1.649   0.135 -0.0535 -0.2407  0.2797
23156W        W38625  15.083   4.744   2.841 -0.3097  0.1567 -0.1321
23157W        W38626  15.583   7.094   4.280  0.2081  0.0808  0.0247
23158W        W38627   3.560  16.961   3.530  0.0913 -0.0959 -0.1564
23159W        W38628   3.956  15.250  13.147 -0.0557 -0.2666  0.3078
23160W        W38629   4.686   9.671   0.517 -0.1506  0.0120  0.2205
23161W        W38630   7.512   5.636  11.554 -0.1401  0.0107  0.2497
23162W        W38631  10.390   6.645  12.150 -0.1176 -0.0221  0.1611
23163W        W38632   7.620  13.981   2.016 -0.2798  0.2058 -0.0228
23164W        W38633   6.738  16.357   0.650 -0.0232 -0.2719  0.0733
23165W        W38634   5.580  10.957  11.594 -0.1141  0.1125 -0.2019
23166W        W38635   1.421   2.041   4.787  0.1668 -0.0471  0.1326
23167W        W38636   4.876   9.767  12.493  0.4047  0.0293 -0.2085
23168W        W38637  10.259   1.046  12.904 -0.0049  0.2015 -0.1784
23169W        W38638  12.925   2.220   5.396 -0.2080  0.1086  0.3405
23170W        W38639  12.935   2.495  12.738 -0.1497  0.0093  0.0802
23171W        W38640  17.282   1.243   4.510 -0.0944 -0.0056  0.1978
23172W        W38641   9.590  15.319  16.272 -0.1374 -0.1338 -0.1163
23173W        W38642   7.843   7.865   1.357 -0.0217 -0.0881 -0.0448
23174W        W38643  16.912   7.517   2.527  0.0966 -0.0226 -0.2400
23175W        W38644  16.216  13.037  15.865  0.2697 -0.2391 -0.0773
23176W        W38645   1.827  17.736   5.312 -0.1587  0.0961 -0.0113
23177W        W38646  15.418   7.259   1.064 -0.0210 -0.2202 -0.0910
23178W        W38647   8.729  11.845  12.312  0.0635 -0.2221 -0.0154
23179W        W38648   7.663   8.430  15.375 -0.0454  0.1044  0.1636
23180W        W38649  18.002   6.368   2.498  0.1548 -0.0821  0.0789
23181W        W38650   2.063   8.731  15.528 -0.2175 -0.3053  0.1062
23182W        W38651   2.150   6.489   1.937  0.0959 -0.1185 -0.1420
23183W        W38652  14.455  12.401   0.021  0.0574  0.1772  0.0025
23184W        W38653   7.610   9.104   1.372 -0.1206  0.1530 -0.1448
23185W        W38654   8.187  15.864  11.126  0.1318 -0.1100  0.3294
23186W        W38655  15.256  16.250  13.833  0.0557 -0.2091 -0.4844
23187W        W38656  14.981  12.951  14.780  0.2978  0.0666  0.3318
23188W        W38657  16.835  13.693   0.229  0.2013 -0.1301  0.0099
23189W        W38658  12.019  15.692  11.912  0.3455  0.0413  0.2428
23190W        W38659   4.616   9.043  13.244  0.0038  0.0785  0.0583
23191W        W38660  10.350   3.785  13.858  0.0948  0.1184 -0.0596
23192W        W38661  15.213   2.187   1.836 -0.0866 -0.1660  0.1044
23193W        W38662   3.651   0.976  14.959  0.0100  0.1100  0.3624
23194W        W38663  11.970  15.951  15.101 -0.0701  0.0626  0.0815
23195W        W38664   8.060  14.710   5.340  0.3419 -0.2940  0.2787
23196W        W38665  13.879  13.785  14.577  0.1609 -0.0779  0.5063
23197W        W38666   8.267   2.852  15.784 -0.2041  0.4043 -0.2437
23198W        W38667   9.690  18.061   4.661  0.1629  0.0704 -0.3732
23199W        W38668  11.803   6.469  12.779  0.0296  0.1689 -0.0294
23200W        W38669  10.038  17.625  13.528 -0.0792 -0.1068  0.2858
23201W        W38670   6.950   5.749  11.516  0.0720  0.0155  0.0471
23202W        W38671  14.005  16.998  14.204  0.0314  0.4261  0.0248
23203W        W38672  15.949   1.017   0.991  0.0268  0.0130 -0.0669
23204W        W38673   3.018  11.351  14.878  0.1322  0.1631 -0.1542
23205W        W38674  14.333   9.436   0.132 -0.2316  0.2042  0.5573
23206W        W38675  10.327  17.155   5.201  0.0394  0.3625  0.1350
23207W        W38676   9.537   8.305  12.033 -0.0175 -0.0531  0.1605
23208W        W38677  12.794  17.249   3.903 -0.0536 -0.0892 -0.3300
23209W        W38678   6.297   0.634  14.856 -0.0789  0.0718 -0.1524
23210W        W38679   4.615  17.863  11.880 -0.1155  0.0295  0.2088
23211W        W38680  10.469  13.561  13.578  0.0152 -0.1098  0.0182
23212W        W38681   1.071   1.440   1.041  0.0650 -0.0550  0.1377
23213W        W38682  15.771   1.061   3.964 -0.1133  0.2325  0.4822
23214W        W38683   2.755  12.289  14.880  0.1025  0.1513 -0.1018
23215W        W38684   5.638   0.973   5.466 -0.0889  0.3432  0.1426
23216W        W38685   3.598  12.225   1.907 -0.1947  0.2210 -0.1558
23217W        W38686  13.319   8.975  14.538  0.3562  0.0673 -0.0077
23218W        W38687  10.310  13.947   1.313  0.0643 -0.1579  0.1484
23219W        W38688  17.043  12.695  11.505  0.2348 -0.2841 -0.0836
23220W        W38689   1.948  16.057  13.072 -0.1840 -0.4177  0.2429
23221W        W38690  10.829   5.741  12.190 -0.0523 -0.2034  0.1987
23222W        W38691   7.654   8.370   5.589 -0.1656 -0.0943  0.3013
23223W        W38692   2.531  14.683   0.417 -0.2840  0.0223  0.0358
23224W        W38693  13.424   3.021  16.056  0.0870  0.1317 -0.0252
23225W        W38694  16.124  15.827   5.353 -0.1173 -0.1671 -0.0286
23226W        W38695   4.743   8.370  13.496 -0.0523 -0.0900  0.2032
23227W        W38696   1.902  13.996  15.696 -0.1355 -0.2936 -0.0212
23228W        W38697   0.988  13.010   5.297 -0.0414  0.1901  0.2269
23229W        W38698   5.083  12.733  14.838 -0.2026 -0.1917  0.0613
23230W        W38699   1.978   2.765  10.257  0.1263 -0.1405 -0.1679
23231W        W38700  10.100   0.364  15.505 -0.2633  0.3718  0.1586
23232W        W38701   0.164   1.893  15.551  0.2301 -0.0330 -0.1676
23233W        W38702  14.268   7.866   4.282  0.0529  0.1234  0.2005
23234W        W38703   5.771  13.553  15.005  0.0653  0.1817  0.2153
23235W        W38704  12.933  17.076   5.533 -0.1156 -0.2526  0.1550
23236W        W38705  10.352  12.339   0.191  0.0330  0.0164 -0.3774
23237W        W38706  17.784   0.037  10.934 -0.1168 -0.1483 -0.3133
23238W        W38707   8.907   6.374  11.189 -0.1846  0.0067  0.0472
23239W        W38708   2.577   3.336   4.816 -0.0960 -0.0280  0.1481
23240W        W38709   2.257   0.039   2.363  0.0805 -0.1561  0.2986
23241W        W38710  16.234   7.667  13.313 -0.5607  0.1607  0.0814
23242W        W38711   2.572   3.999  16.136 -0.3904  0.1853  0.0138
23243W        W38712   1.036   9.158  12.005  0.1065 -0.1956 -0.1548
23244W        W38713   3.434   5.670  14.481 -0.2165  0.0626 -0.1573
23245W        W38714   0.040  17.575   4.076 -0.4680  0.0400 -0.0542
23246W        W38715  16.875   3.792   5.503  0.1799 -0.1717 -0.1065
23247W        W38716   3.563   9.431   2.675  0.0798  0.0239 -0.2747
23248W        W38717   1.493  13.100   4.021 -0.1704  0.1240 -0.2509
23249W        W38718   9.286  15.562  15.719  0.0722  0.0012  0.1302
23250W        W38719  14.511  16.550   1.722 -0.2777  0.1759 -0.0791
23251W        W38720  16.208   9.775  12.049 -0.1437 -0.4142 -0.2001
23252W        W38721  17.507   8.864   4.278 -0.0980 -0.0242 -0.0162
23253W        W38722  15.824   5.496  13.033 -0.2053  0.0625 -0.2361
23254W        W38723   8.487   3.561   3.262 -0.0259  0.4145 -0.1452
23255W        W38724  10.077  16.432   1.290 -0.0184 -0.0916  0.0328
23256W        W38725   8.618  11.754   4.543 -0.0354  0.2613 -0.2481
23257W        W38726   8.061   0.267  15.131  0.0650 -0.1022  0.4515
23258W        W38727  17.056   5.621  12.534 -0.1989 -0.3311 -0.0259
23259W        W38728   7.641  16.012   3.077  0.0151 -0.0862 -0.0720
23260W        W38729   7.259   1.031  12.103 -0.1140  0.0603 -0.2562
23261W        W38730  14.943   2.841   9.991 -0.0605 -0.1493  0.4100
23262W        W38731   8.246  11.701   0.457  0.3373 -0.0929 -0.2608
23263W        W38732  12.861   9.892   5.961  0.0694  0.0237 -0.0046
23264W        W38733   3.129   8.211   1.531  0.0479  0.1439 -0.0409
23265W        W38734   3.086  12.834  11.713 -0.0619 -0.0184  0.0867
23266W        W38735   3.933   8.700   0.968  0.0803 -0.0907  0.2871
23267W        W38736   6.043   8.045  12.603  0.1362  0.0068  0.0491
23268W        W38737  12.322  17.661  12.982 -0.3685 -0.1821  0.0916
23269W        W38738   2.226   3.433  16.192  0.0831  0.0331  0.0668
23270W        W38739  12.736   6.880   0.425 -0.1977 -0.2275  0.1992
23271W        W38740   4.694   4.468  14.364 -0.2203 -0.0344  0.0143
23272W        W38741  10.148   4.760   1.049 -0.6332 -0.0443 -0.1476
23273W        W38742   6.895   0.059  11.184  0.0703  0.0277 -0.1915
23274W        W38743  17.819  13.925  15.720 -0.1037  0.1985  0.0580
23275W        W38744   9.702   1.240   3.915 -0.3197  0.0360  0.1594
23276W        W38745  17.594   2.539  16.260 -0.0183  0.0224 -0.2283
23277W        W38746  14.519   6.067   4.113  0.1365  0.1168 -0.2145
23278W        W38747  15.466  15.227   4.027 -0.0512  0.0439 -0.1202
23279W        W38748  17.571  10.227   3.436 -0.1074  0.1358  0.0617
23280W        W38749  15.766  11.556   3.316  0.1334  0.1619 -0.1025
23281W        W38750   9.616  12.274  11.437  0.0067  0.0658  0.1676
23282W        W38751  14.164  12.012  11.940  0.0528 -0.2880  0.1620
23283W        W38752   6.258  16.942  11.922 -0.1686  0.1551 -0.3123
23284W        W38753   6.438  15.689  12.268 -0.0691 -0.2877  0.3257
23285W        W38754  12.527  14.380   3.089 -0.0088  0.0107 -0.0994
23286W        W38755   4.244   3.910  15.169  0.0729  0.3726  0.0457
23287W        W38756   9.569   7.176   2.597 -0.2782 -0.0403  0.0867
23288W        W38757  14.727  17.672  13.394 -0.0983 -0.1571  0.3181
23289W        W38758   9.840   0.753  15.331 -0.1223 -0.0072 -0.2060
23290W        W38759   4.505   3.560   3.749  0.1178  0.1035 -0.3801
23291W        W38760   2.890   9.643   3.403 -0.3518 -0.0303 -0.0154
23292W        W38761   7.285   5.934  13.357 -0.0301  0.1219  0.0910
23293W        W38762  13.339  12.140  15.734 -0.2420  0.0207  0.0160
23294W        W38763   7.260   9.979  11.393 -0.2596  0.0010 -0.1558
23295W        W38764  16.383   6.768   1.691  0.4612  0.0188 -0.0140
23296W        W38765  15.843   4.467  10.116  0.0945  0.0791 -0.5185
23297W        W38766   8.916   6.510  14.346 -0.1244  0.0801  0.1360
23298W        W38767  16.542   8.625   1.484  0.1618  0.0595 -0.0284
23299W        W38768  17.924   6.128  14.537  0.0275 -0.2899  0.0298
23300W        W38769  12.424   0.317  12.491  0.1111  0.0260  0.0042
23301W        W38770   0.498  11.783   5.662  0.2997  0.0265 -0.1790
23302W        W38771   2.586  14.229   3.360 -0.0457  0.2094  0.1373
23303W        W38772  12.475  16.746   3.747  0.1954 -0.1229 -0.1066
23304W        W38773   0.800   3.168   5.336  0.2382 -0.2038  0.3905
23305W        W38774  11.905  12.828  14.417  0.0257  0.0460 -0.1007
23306W        W38775   6.187  15.852   3.957  0.1016  0.3534  0.1246
23307W        W38776  13.412   9.453   4.409  0.0119  0.1122  0.0568
23308W        W38777   9.880  17.689  16.108 -0.1326  0.0241 -0.2397
23309W        W38778   5.199  11.054   4.427  0.0620 -0.1948  0.0119
23310W        W38779  14.584   2.845  16.227 -0.0207 -0.0198 -0.1391
23311W        W38780  10.903   1.556  13.644 -0.0485 -0.0510 -0.0767
23312W        W38781  10.450  11.041  10.255 -0.1613 -0.1244  0.0562
23313W        W38782   1.328   3.111   2.961 -0.0711  0.0590 -0.2789
23314W        W38783  15.213  12.740   1.338  0.0244 -0.1763 -0.0959
23315W        W38784  14.275   4.610  14.032  0.1612  0.0208  0.0203
23316W        W38785  12.770   6.968  14.003  0.3556 -0.1145 -0.0039
23317W        W38786   2.348   4.060  14.850 -0.1724 -0.0298  0.0457
23318W        W38787  12.849  15.890  15.555 -0.1222  0.0165 -0.1928
23319W        W38788   8.105   5.489   2.840  0.1250 -0.0755  0.0878
23320W        W38789   9.854   6.678  11.184  0.0717  0.0217  0.1502
23321W        W38790   2.196   6.299   3.021  0.1778  0.2708 -0.2033
23322W        W38791  10.679   9.426   3.186 -0.1619 -0.3002  0.1023
23323W        W38792  14.653  10.027  11.506  0.1777 -0.0184 -0.1070
23324W        W38793   3.689   1.012  13.451 -0.3218  0.0063  0.1674
23325W        W38794   6.189  11.564  15.826 -0.2453 -0.0429  0.1962
23326W        W38795  12.016   1.129   3.048 -0.2105 -0.0808  0.1720
23327W        W38796   8.950   9.602  13.383 -0.0881  0.0151 -0.0158
23328W        W38797   0.122  12.986  11.798 -0.0809  0.0903  0.0808
23329W        W38798  17.473  11.854   3.053 -0.0813  0.0101 -0.1608
23330W        W38799   8.522  11.074   1.677 -0.1055 -0.0081 -0.3280
23331W        W38800  11.710   2.984   0.442 -0.0664 -0.2050 -0.4879
23332W        W38801  11.275  13.219  10.990 -0.3317 -0.0017  0.3200
23333W        W38802  16.010  16.333   0.677  0.1078  0.0886 -0.1911
23334W        W38803   1.257  12.113   0.565  0.1295  0.0453 -0.0955
23335W        W38804  13.120   1.736  13.298  0.1204  0.0943  0.0875
23336W        W38805   7.650   1.840   1.945 -0.0048 -0.1385  0.1727
23337W        W38806   3.350   9.031   1.578  0.0824  0.0531  0.1460
23338W        W38807  10.483   9.055   1.391 -0.0011 -0.0098 -0.2171
23339W        W38808  15.307   5.743   6.228  0.1141  0.0234  0.2126
23340W        W38809  16.882  13.668   2.894 -0.0778 -0.2063  0.0923
23341W        W38810   4.592  14.847   2.086  0.0349 -0.0409  0.2792
23342W        W38811   1.870   0.519  15.585  0.0721  0.0549 -0.3052
23343W        W38812   6.101   1.435  11.889  0.0610  0.1331 -0.0095
23344W        W38813   4.109   6.280   5.707  0.2411 -0.1405  0.0887
23345W        W38814   0.601   0.431   3.515  0.2099  0.1135 -0.0831
23346W        W38815   8.062   8.347  15.012  0.0495  0.1472  0.3200
23347W        W38816   5.936   0.049   1.008  0.0854 -0.1280 -0.1886
23348W        W38817  14.111  12.394  12.263  0.1244 -0.0668  0.2775
23349W        W38818   7.859   2.167  11.545  0.1964  0.1158 -0.2315
23350W        W38819  17.446  12.343  11.307  0.3458 -0.0768  0.2711
23351W        W38820   3.817   5.936   0.144 -0.0096 -0.0591  0.1837
23352W        W38821   5.552   8.790   0.083 -0.0829  0.1860  0.1261
23353W        W38822   4.720   9.400  15.740  0.1125 -0.0755 -0.0873
23354W        W38823  11.849   6.302   0.879 -0.0597 -0.1488  0.1117
23355W        W38824   0.595   6.668  14.197 -0.4838 -0.0700  0.0912
23356W        W38825   5.259  11.807  14.008  0.2111 -0.3829 -0.2581
23357W        W38826   3.889  16.124  11.747 -0.1091 -0.2816 -0.3041
23358W        W38827  10.277   2.124  13.110 -0.0432  0.1825  0.0146
23359W        W38828   7.157  16.048   2.913  0.0417  0.3764 -0.1487
23360W        W38829   1.023  15.200  15.637  0.4079  0.0212  0.1841
23361W        W38830   1.374   7.620  13.737  0.0129  0.0086 -0.4505
23362W        W38831   5.651  16.103  14.532 -0.2386 -0.1714 -0.2898
23363W        W38832  13.024  13.790   3.964  0.1613 -0.0140  0.3438
23364W        W38833  14.370   7.973  13.236  0.0661  0.1964  0.1278
23365W        W38834   3.153   1.419  16.313  0.1244  0.3705  0.0691
23366W        W38835  15.506   5.035  12.963 -0.1653  0.2074  0.3609
23367W        W38836   3.996   3.932   2.684  0.3719  0.1954 -0.1748
23368W        W38837  15.429   4.606   0.433  0.0336  0.1605 -0.2088
23369W        W38838  14.043   3.894  14.922 -0.0286  0.2588  0.1274
23370W        W38839   9.070  10.670   2.878  0.1744 -0.0746  0.0556
23371W        W38840  11.617  16.873   0.345 -0.0950  0.1262 -0.4845
23372W        W38841   8.451   6.039  11.209  0.1453  0.1351  0.3044
23373W        W38842  14.120  17.724  11.731 -0.2792 -0.0677 -0.2001
23374W        W38843   8.580   1.174  12.086 -0.1270 -0.2003 -0.2296
23375W        W38844  17.340   9.861   5.164  0.1340 -0.2451  0.1372
23376W        W38845  16.898   5.656   5.582  0.0820 -0.2698  0.2127
23377W        W38846  13.289  10.082  12.788  0.0407 -0.0713  0.2311
23378W        W38847  16.471   1.644  10.971 -0.0484 -0.0421 -0.0970
23379W        W38848  13.782  11.368   0.990 -0.0998  0.0892  0.2016
23380W        W38849  14.127  10.136   4.486 -0.2175 -0.1076  0.0032
23381W        W38850  10.073  17.865   3.457  0.0996 -0.2595 -0.0808
23382W        W38851   6.091   8.193   1.488 -0.1781  0.1197  0.0647
23383W        W38852   8.532   1.551  14.124  0.1912  0.2804  0.1686
23384W        W38853  16.954  10.448   1.749  0.2459  0.0898  0.0289
23385W        W38854   9.611  13.205   5.805 -0.0970  0.2651  0.1217
23386W        W38855   1.470   1.616  14.334  0.0333  0.0229 -0.0224
23387W        W38856   3.867  10.981   2.589  0.0145 -0.1412  0.1070
23388W        W38857   9.287   1.388  12.612 -0.3165 -0.3470  0.1182
23389W        W38858  10.514   8.510  11.460 -0.1651 -0.1525  0.1973
23390W        W38859   5.596  11.604   0.732 -0.0166 -0.1035  0.4777
23391W        W38860   9.532  10.293  12.952  0.1365  0.0278  0.0641
23392W        W38861  15.316  17.211   6.071 -0.1574 -0.1510  0.2021
23393W        W38862   4.138  11.038   0.179  0.0965 -0.0008  0.0737
23394W        W38863   0.900  14.821   4.573 -0.0318 -0.0895  0.0409
23395W        W38864   8.637   6.282  12.190  0.0295  0.3325 -0.1119
23396W        W38865   1.172   0.153  11.468 -0.0399  0.2988 -0.0816
23397W        W38866  15.988   4.314  13.975  0.1131 -0.2274 -0.1384
23398W        W38867  11.487  12.625  11.709 -0.0268 -0.0930  0.0612
23399W        W38868   9.422   8.614   4.142 -0.0663 -0.1288  0.1053
23400W        W38869   3.998  16.690   3.661  0.3887 -0.1613 -0.2333
23401W        W38870   8.716   2.931   1.660  0.1271 -0.1322  0.3725
23402W        W38871   4.413   1.233   3.874  0.0532  0.0330 -0.0473
23403W        W38872   4.728   3.299   1.364  0.1219 -0.0273 -0.3422
23404W        W38873  13.299   0.296  12.036 -0.0217  0.1902 -0.1709
23405W        W38874   6.728   0.812  11.835  0.0008  0.1846 -0.1994
23406W        W38875   8.494   2.890   3.236  0.0383  0.0539 -0.1527
23407W        W38876   7.837   0.740   5.594 -0.1896  0.0538 -0.1953
23408W        W38877   0.984  14.012  11.275  0.1604  0.1093  0.1097
23409W        W38878   5.170   7.515   3.869 -0.0047  0.1093  0.0303
23410W        W38879   6.929  13.348   4.164 -0.0586 -0.1230  0.1301
23411W        W38880  14.478   9.665  15.556  0.0018  0.0990 -0.2162
23412W        W38881   6.166   2.803   5.323 -0.0667 -0.1841  0.0468
23413W        W38882  13.351   0.238   4.831  0.1457 -0.1947  0.1039
23414W        W38883   3.420   3.887   2.217 -0.0926  0.0452 -0.0026
23415W        W38884  16.121   9.064  15.005  0.0819  0.1171 -0.1763
23416W        W38885  10.269   3.471  14.274  0.2768 -0.4190  0.1137
23417W        W38886   8.551  16.899   4.382 -0.1499  0.2451 -0.3756
23418W        W38887  15.172   2.445  12.216  0.2068  0.0294 -0.0863
23419W        W38888  11.906  16.293   2.934  0.1660  0.0212  0.1882
23420W        W38889  14.711   0.373   1.841 -0.0576  0.0493  0.0485
23421W        W38890   5.574   7.952   3.702 -0.0012  0.3504  0.0178
23422W        W38891   2.043   9.530   2.246 -0.0799  0.0311  0.1275
23423W        W38892  16.439   3.642  14.969  0.1473 -0.3169 -0.0797
23424W        W38893  10.156   1.056   4.304 -0.1079  0.1542  0.0240
23425W        W38894  17.095   5.351  11.630 -0.0530 -0.0214 -0.3688
23426W        W38895   5.871   3.811   0.274 -0.0119 -0.0253 -0.1367
23427W        W38896  10.342  11.340  13.279  0.2653 -0.0138 -0.1141
23428W        W38897   9.621   6.785  15.835  0.3309 -0.0411 -0.0628
23429W        W38898  17.510  18.043  13.642 -0.2554  0.0329 -0.5623
23430W        W38899   9.810   6.854  14.647  0.1972 -0.2005 -0.1030
23431W        W38900  15.953  10.936   0.954 -0.1125 -0.3301 -0.1487
23432W        W38901  12.048   9.310  13.415 -0.3953  0.2101  0.1050
23433W        W38902   5.543   3.963   1.127  0.1724  0.0485 -0.4545
23434W        W38903  14.025   9.792   1.309 -0.4821 -0.0554 -0.3734
23435W        W38904   5.352  12.256   2.845 -0.0498  0.0899  0.0157
23436W        W38905   4.838  13.742  15.328 -0.2079  0.1276 -0.2316
23437W        W38906   9.438  12.852   3.517  0.1249  0.0882  0.1108
23438W        W38907  15.390   1.933  12.111  0.0411  0.1480  0.2553
23439W        W38908   7.410  15.879  12.614  0.5037 -0.0572  0.0327
23440W        W38909   6.305   1.294   4.161  0.0036 -0.0916  0.0362
23441W        W38910   8.947   6.835  11.014  0.0621 -0.2852 -0.0348
23442W        W38911   1.529  11.011  13.220 -0.1250 -0.4016  0.1287
23443W        W38912  15.524   9.991   1.242 -0.3096 -0.0720 -0.0297
23444W        W38913  10.183   9.727   0.907  0.0641 -0.1525  0.2448
23445W        W38914  15.523   0.216   2.959 -0.0292  0.3552 -0.1506
23446W        W38915  11.723  15.276  16.303 -0.0034  0.1974  0.0587
23447W        W38916   4.949   5.122  14.134 -0.0960 -0.0081  0.0432
23448W        W38917   4.926   6.260  13.986 -0.0455  0.0925  0.1473
23449W        W38918  15.265  10.841   2.100  0.2646  0.1367 -0.0255
23450W        W38919  11.149   1.577  13.107 -0.1911  0.0378 -0.2422
23451W        W38920  16.145   6.517  11.629 -0.0344 -0.0222  0.1228
23452W        W38921  11.525   7.507  13.292 -0.0950 -0.1259 -0.3072
23453W        W38922   7.378   1.867   4.495  0.0848 -0.0317  0.0599
23454W        W38923  12.672  14.182  13.979  0.0807 -0.0732  0.1550
23455W        W38924   9.989  13.642  14.957 -0.2190 -0.1441  0.1728
23456W        W38925   9.719   2.522  12.054  0.0042 -0.0480  0.0364
23457W        W38926   9.985  13.280   1.011  0.4874 -0.2181  0.0954
23458W        W38927   1.869  17.252  15.166  0.3089 -0.1611 -0.0714
23459W        W38928   8.699  16.423  10.790  0.0686 -0.3275 -0.2285
23460W        W38929   6.087  14.260  15.046 -0.0244 -0.1159  0.2439
23461W        W38930   5.237   2.717  15.873  0.2008 -0.0806  0.0750
23462W        W38931   2.598  17.819   1.206  0.2330  0.2696  0.2441
23463W        W38932  16.222  14.813   2.606  0.2940  0.0789 -0.2855
23464W        W38933  14.289  16.367  15.418  0.0633  0.0356 -0.3155
23465W        W38934   9.457   3.506   6.009 -0.3248  0.4051 -0.1102
23466W        W38935   5.107   3.536  15.555 -0.0379 -0.3067  0.0189
23467W        W38936   0.576  11.637  12.782  0.1271  0.0092  0.0259
23468W        W38937  16.302   3.397  10.798 -0.1012 -0.1048  0.1163
23469W        W38938   7.098   3.241  11.534 -0.2126  0.1022 -0.1513
23470W        W38939  10.866   1.377   5.073  0.0509  0.1713 -0.0700
23471W        W38940  10.919   6.868   2.724 -0.0522 -0.4482  0.0177
23472W        W38941   4.358  10.652  11.618 -0.3587 -0.2262  0.0149
23473W        W38942   3.063  10.826   3.268 -0.0769 -0.3440 -0.0334
23474W        W38943   5.583   5.352   3.534  0.0790  0.4040  0.0586
23475W        W38944  12.526   2.222  13.653 -0.1004 -0.0789  0.1837
23476W        W38945  11.740   1.265  14.635  0.0890  0.1559  0.0219
23477W        W38946   3.060   2.209   3.682  0.0002  0.0708 -0.0892
23478W        W38947  10.695  17.479   4.903  0.2785  0.2863  0.2337
23479W        W38948   3.791  12.576  12.571 -0.0707  0.0036 -0.0987
23480W        W38949   8.795   4.862   2.376 -0.0549 -0.3331  0.1769
23481W        W38950  16.758  14.602  14.363 -0.0342 -0.3144  0.0743
23482W        W38951   0.504  11.460   1.118 -0.0423  0.4416 -0.1807
23483W        W38952   4.427   7.712  11.778 -0.1711 -0.0133 -0.2562
23484W        W38953  16.570  17.520   1.157 -0.0238 -0.1514 -0.0889
23485W        W38954   5.934   5.513  14.024  0.4235 -0.2104 -0.1080
23486W        W38955  13.674   2.957  11.052 -0.2880  0.1060  0.2166
23487W        W38956   1.610   5.399   3.004  0.1865 -0.0582  0.0392
23488W        W38957  17.937  17.754   1.341  0.1074  0.0305 -0.3064
23489W        W38958   7.383  16.712   2.180 -0.1598 -0.0365 -0.1414
23490W        W38959  13.387   0.717   3.048  0.2824 -0.4229 -0.1217
23491W        W38960  13.063   0.083   3.526 -0.3310  0.3524  0.1835
23492W        W38961   0.472  11.084  12.068 -0.0611 -0.0875 -0.0897
23493W        W38962   9.518  11.320  15.552  0.3771 -0.1790  0.1020
23494W        W38963   7.349  12.952  15.971  0.0783 -0.0241 -0.1988
23495W        W38964   6.153   0.973   1.987  0.0131  0.1493 -0.3990
23496W        W38965   1.484  13.705  14.776 -0.1457  0.0349 -0.0813
23497W        W38966  13.019   9.177   4.417  0.0429  0.2736  0.3586
23498W        W38967   6.500   2.851  14.194  0.2863  0.3042  0.0033
23499W        W38968  16.940  16.035   5.991 -0.3001  0.3060  0.3098
23500W        W38969  14.239   7.305  12.929  0.0673 -0.2728  0.2624
23501W        W38970   1.101   6.130   2.307 -0.0390  0.3378  0.0156
23502W        W38971   3.424   3.628   0.749  0.0856  0.0649  0.1202
23503W        W38972   3.953   1.060  10.950  0.2531  0.1112  0.1771
23504W        W38973   1.704  15.918  15.204 -0.0017 -0.2274 -0.0235
23505W        W38974  14.150  15.934   2.127 -0.1731  0.1518 -0.0685
23506W        W38975  16.442  14.431   3.834 -0.2587  0.5193  0.0590
23507W        W38976  16.340   5.986  13.520 -0.0696 -0.3584 -0.4344
23508W        W38977   4.918   8.751  12.250  0.2872 -0.1091  0.2198
23509W        W38978  10.850   3.854  15.659 -0.0769 -0.1435 -0.2386
23510W        W38979  14.714   0.804   1.530  0.1641 -0.1965  0.0071
23511W        W38980  11.545   4.284  15.265  0.2479 -0.0071 -0.3012
23512W        W38981   4.138  11.144  14.110  0.0376  0.1737 -0.0009
23513W        W38982   6.002  10.657  15.630  0.1473 -0.3296 -0.0096
23514W        W38983   2.318  16.887   4.818  0.1792  0.0912 -0.0977
23515W        W38984   4.264   8.600  15.864 -0.0168  0.1734 -0.0131
23516W        W38985  15.416   0.851   4.585  0.1701 -0.2467 -0.1347
23517W        W38986  12.057   3.912  15.670  0.1134 -0.0610 -0.1307
23518W        W38987  14.455   4.306   1.728  0.2718 -0.2705  0.0609
23519W        W38988   9.777  17.936   3.043 -0.1558 -0.1427  0.2214
23520W        W38989  12.400   8.198   1.561  0.0609  0.3088 -0.1676
23521W        W38990  11.003  15.006   1.550 -0.2658 -0.3496 -0.1368
23522W        W38991   3.603   5.388   2.572 -0.3678  0.1008 -0.0120
23523W        W38992   9.958   6.007  15.045 -0.1757 -0.1894 -0.2547
23524W        W38993   1.268  11.972  12.958  0.1964 -0.2490 -0.0386
23525W        W38994  10.062  11.958  12.130  0.1645 -0.1122 -0.0067
23526W        W38995  14.391   3.432  15.134 -0.1160  0.1045  0.0807
23527W        W38996  14.460   2.328   2.649  0.0135 -0.1001 -0.0145
23528W        W38997   2.609  12.774  13.079  0.1601 -0.0672  0.1017
23529W        W38998   0.447   7.848  10.988  0.1087  0.0549 -0.0687
23530W        W38999  17.574   8.993  13.187 -0.3717  0.1619 -0.0355
23531W        W39000  16.281   2.880   2.460  0.2250  0.0144 -0.1532
23532W        W39001   3.804   2.667  15.053 -0.2702  0.1265  0.1976
23533W        W39002  17.591   1.027  14.652  0.1509 -0.1215 -0.0235
23534W        W39003  14.976  14.478   4.674 -0.1380  0.2202  0.0052
23535W        W39004   7.477  14.179  13.569 -0.0683 -0.2092  0.2236
23536W        W39005  17.429   8.930  10.226  0.3505 -0.2029 -0.1671
23537W        W39006   4.499  10.868   3.963 -0.0070 -0.2611  0.0047
23538W        W39007   8.619   9.115   6.136 -0.3646  0.4808 -0.2868
23539W        W39008   8.725   8.620   3.261  0.0069  0.0568 -0.1495
23540W        W39009  11.648   4.137   0.320  0.2166  0.0170 -0.0751
23541W        W39010   9.974   1.106   3.520  0.1429  0.0842 -0.2968
23542W        W39011   9.797   0.201  14.386  0.1910 -0.0787 -0.0229
23543W        W39012  11.765   3.378   4.567 -0.1443  0.0946  0.0359
23544W        W39013   0.676   7.370   1.890  0.0164 -0.1689 -0.0343
23545W        W39014   1.173   6.704   0.698  0.2089 -0.0710  0.1157
23546W        W39015   2.874   1.554  15.478 -0.1754  0.0157 -0.0603
23547W        W39016  17.614   2.955  15.968  0.0619  0.0419  0.1466
23548W        W39017  10.337   1.144   4.898 -0.2729 -0.0244  0.1712
23549W        W39018  14.118  17.817  13.054 -0.0183 -0.0968 -0.1656
23550W        W39019  14.472  15.505  12.051 -0.0707  0.2806  0.0152
23551W        W39020   3.503  16.007   4.545 -0.1658  0.0903 -0.1102
23552W        W39021   3.025   2.140   1.778 -0.1282 -0.1178 -0.3377
23553W        W39022   7.139   5.780   2.804 -0.0682  0.1174 -0.1961
23554W        W39023   5.366   4.799  10.571 -0.1052  0.0238 -0.0068
23555W        W39024  17.181  17.493  11.160 -0.1867 -0.2425  0.1903
23556W        W39025   9.745  17.207   4.237  0.2422 -0.0438 -0.0373
23557W        W39026   3.645   5.609   3.106  0.1779 -0.2527  0.0327
23558W        W39027   4.538  12.427   0.054  0.1090 -0.2789 -0.0884
23559W        W39028  11.734   6.648   3.416  0.0159  0.0726 -0.2985
23560W        W39029   8.282   0.180   2.296 -0.1755  0.0763  0.0664
23561W        W39030   5.941  11.978  14.964 -0.0156 -0.0075  0.3670
23562W        W39031   9.892  16.085  14.702  0.2918  0.0796  0.5776
23563W        W39032  13.858   5.314   4.171  0.1095 -0.0685 -0.2092
23564W        W39033   9.503   3.427  12.121 -0.0597  0.2010 -0.2039
23565W        W39034  12.515   6.629  15.510 -0.0106 -0.1962 -0.0877
23566W        W39035   7.632   1.266   3.727 -0.0471 -0.0395  0.1721
23567W        W39036   1.122   7.533   4.093 -0.3567 -0.1106 -0.3148
23568W        W39037  13.985   7.452   5.031 -0.1404 -0.0219  0.3326
23569W        W39038   4.942   9.000  14.435 -0.2592  0.2787  0.1785
23570W        W39039   1.429   6.399   3.327 -0.0434 -0.0027 -0.0066
23571W        W39040  14.803   1.634  14.023  0.0860 -0.1443 -0.1781
23572W        W39041   5.062   2.063   5.259  0.1794  0.0374  0.0193
23573W        W39042  16.450   0.881   4.336 -0.2524 -0.1611 -0.0625
23574W        W39043  13.978   6.742   2.155 -0.1902 -0.0519  0.2037
23575W        W39044  15.043   4.378  13.607 -0.0058  0.0733  0.0495
23576W        W39045   6.578   8.854   2.412  0.1139 -0.0599  0.0233
23577W        W39046   7.862  14.358   0.774 -0.1813  0.1832 -0.1344
23578W        W39047  14.697   1.513   0.584  0.0968  0.0562  0.1038
23579W        W39048  14.465   4.227   4.668  0.1553  0.1379 -0.1245
23580W        W39049  14.771   7.112  14.733 -0.1241 -0.0163  0.1054
23581W        W39050   8.409   5.487   0.089 -0.0678  0.0968 -0.1210
23582W        W39051  14.852  11.444   2.384 -0.0751  0.2432 -0.1127
23583W        W39052   8.272  13.469  15.115  0.2935  0.0645  0.3666
23584W        W39053   8.280   7.383  15.431  0.2855  0.0337 -0.3175
23585W        W39054  16.932   1.339  15.268 -0.1905 -0.0277 -0.0256
23586W        W39055  17.118  10.001   2.809  0.0160 -0.2854 -0.0848
23587W        W39056  17.219   7.317   2.210 -0.0060  0.2057 -0.1397
23588W        W39057  10.514  14.812  15.268  0.4743  0.1900  0.1825
23589W        W39058  13.501  17.670   5.126  0.0620  0.1117  0.1317
23590W        W39059   2.756  17.003   2.360 -0.1307  0.0369 -0.0819
23591W        W39060  18.053  15.047  12.532 -0.0865 -0.2289 -0.2825
23592W        W39061   6.334   0.762   4.053 -0.2242  0.1054  0.0208
23593W        W39062   1.963   4.728  15.425  0.1383  0.0810  0.0583
23594W        W39063  13.944   2.385   3.368  0.2541  0.0920 -0.2049
23595W        W39064  16.531   2.702   4.277  0.1207 -0.2004  0.1050
23596W        W39065   7.114   0.258  10.818 -0.1784 -0.1881  0.1925
23597W        W39066  12.323   6.115  14.620  0.0624 -0.0933  0.1795
23598W        W39067  16.629   3.514   4.086 -0.2148 -0.2236 -0.0043
23599W        W39068  18.076  12.155   4.938 -0.1839  0.0770 -0.0800
23600W        W39069  11.847  12.010   2.299  0.0503  0.1020  0.1285
23601W        W39070  12.687   0.788  13.829 -0.1858  0.1669  0.3157
23602W        W39071   4.677   0.684  12.835 -0.1098  0.1260 -0.0182
23603W        W39072   3.988  16.672  14.901  0.1229  0.0356 -0.0018
23604W        W39073  13.746   6.153   5.795 -0.0409  0.0558 -0.1940
23605W        W39074   4.909   2.973   5.075 -0.0398 -0.0398  0.1070
23606W        W39075  12.204   5.195  11.379 -0.3785 -0.0101  0.2364
23607W        W39076  12.177   7.316  15.979  0.1716 -0.0198 -0.0092
23608W        W39077   4.022   1.684   1.882 -0.1622  0.2401  0.3040
23609W        W39078  16.809  16.614   5.256  0.0369  0.1845 -0.3414
23610W        W39079   7.219  10.703   3.480 -0.0190 -0.1620  0.0657
23611W        W39080   0.892   7.736   3.160 -0.2330 -0.2976  0.0172
23612W        W39081   0.505   4.674   2.625  0.2350 -0.3398  0.0793
23613W        W39082  10.937   1.676   4.623 -0.1602 -0.2766  0.2109
23614W        W39083   4.799  17.837  12.361  0.1699 -0.3359 -0.0304
23615W        W39084   7.795   8.002  12.797 -0.0619  0.0145  0.0253
23616W        W39085  17.253   8.921   3.332  0.0346  0.0073  0.1327
23617W        W39086  16.776   1.945  16.229 -0.2497 -0.0747  0.0413
23618W        W39087  15.332  13.084  13.217  0.1118 -0.1308 -0.1667
23619W        W39088   4.994   4.966  15.891  0.1939 -0.2778 -0.1637
23620W        W39089  15.993   6.126  11.326 -0.0250 -0.1281 -0.2573
23621W        W39090  16.059   1.580   0.976 -0.0768  0.0381 -0.1962
23622W        W39091   4.979  12.113   4.582 -0.2632 -0.2526  0.1041
23623W        W39092   7.438  17.653  15.718 -0.1061 -0.1875 -0.0150
23624W        W39093  10.507  16.358   2.451 -0.3109  0.0188  0.1549
23625W        W39094   8.145   4.117   4.062 -0.2528 -0.0077  0.1130
23626W        W39095   5.463  14.154  10.072  0.0662 -0.0638  0.0130
23627W        W39096   9.809   2.540  10.973  0.0528  0.0708  0.0565
23628W        W39097   6.767  17.615  14.255  0.0699 -0.0628  0.0042
23629W        W39098  14.322  10.118   6.219 -0.2578  0.1917  0.1775
23630W        W39099  12.953  10.881   0.808 -0.0482  0.1676 -0.0803
23631W        W39100  13.206   7.292  14.141  0.2145 -0.1371 -0.2931
23632W        W39101   6.776   2.746   5.147 -0.0816 -0.1800 -0.0355
23633W        W39102   8.894   7.291   5.443 -0.3582 -0.0192 -0.0351
23634W        W39103   1.669   0.691  13.331  0.0956  0.1478 -0.0472
23635W        W39104   1.654  14.880  12.278 -0.1047 -0.1965  0.1952
23636W        W39105  16.252   0.874  14.356 -0.3708  0.1048 -0.1561
23637W        W39106   2.736  16.087  14.919  0.1256  0.1911  0.2294
23638W        W39107  17.296   1.545   4.915  0.0502  0.1116 -0.0224
23639W        W39108  16.916   2.660   9.730  0.1303 -0.0268 -0.1331
23640W        W39109   7.206   6.726   0.159 -0.0477  0.1938  0.1010
23641W        W39110   5.447  16.654   1.745 -0.3094  0.3223 -0.2490
23642W        W39111  16.692  15.622   1.365  0.1171  0.2252 -0.0038
23643W        W39112  12.352   9.904   2.221  0.0204 -0.1180  0.1318
23644W        W39113   7.940   1.584  12.474 -0.0600  0.1424 -0.0941
23645W        W39114   9.114  12.794   4.852  0.0233 -0.3642 -0.0570
23646W        W39115   6.268  10.172   4.735 -0.0533 -0.0291  0.0739
23647W        W39116  15.761  12.538  12.596 -0.0249  0.3429  0.0131
23648W        W39117   3.492  11.653   5.412  0.1220 -0.2277 -0.0576
23649W        W39118   2.802   8.540   3.996  0.0246  0.1652  0.1683
23650W        W39119   6.344  15.936  13.299  0.2381 -0.1451 -0.1412
23651W        W39120   2.872   5.226   2.016  0.1751 -0.0485  0.1458
23652W        W39121  12.578   0.766   0.928  0.2430  0.0155  0.5033
23653W        W39122   8.485   9.459  15.680  0.2874  0.0976 -0.0003
23654W        W39123   3.913   7.223   0.102  0.1296  0.2463  0.3103
23655W        W39124  10.944   5.803  10.918  0.4645 -0.2952 -0.2831
23656W        W39125  11.965  17.983  11.235  0.0539 -0.0225 -0.2278
23657W        W39126   7.761   7.010  14.012 -0.0146 -0.2029  0.0591
23658W        W39127   5.284  15.680  14.209  0.0848 -0.2788  0.0981
23659W        W39128   7.156   9.237   0.954  0.2288  0.0299 -0.0435
23660W        W39129   1.592  11.175  13.977  0.2205  0.3147 -0.0500
23661W        W39130  17.080   9.110   4.546 -0.3426  0.0690  0.0360
23662W        W39131   9.267   3.741  13.477 -0.1314 -0.1802  0.0882
23663W        W39132   5.511  10.384   0.222 -0.2919  0.2126 -0.0977
23664W        W39133   7.177   5.877  16.164  0.4644  0.0053 -0.1036
23665W        W39134  10.609   4.620   5.139 -0.3489 -0.0106 -0.0558
23666W        W39135   2.117   0.284  12.076  0.2179  0.0770 -0.0863
23667W        W39136  15.746   9.715  14.720 -0.0338 -0.0043  0.0095
23668W        W39137   0.456   9.394   0.316  0.1075 -0.1577 -0.1590
23669W        W39138  15.271   2.255   4.468 -0.0629  0.0644 -0.1566
23670W        W39139  15.769   6.023   2.226  0.1132  0.1712 -0.0369
23671W        W39140  15.256   3.172  10.856 -0.0381  0.1492  0.1016
23672W        W39141  17.839  11.349   1.677 -0.0312  0.0798  0.1152
23673W        W39142  12.076  17.177   1.019  0.1613  0.0700 -0.2481
23674W        W39143   6.302  11.317  12.334  0.1642  0.1245  0.1226
23675W        W39144   7.100   2.609  14.007 -0.0349 -0.0441  0.2221
23676W        W39145  16.908   3.269  12.737  0.0960 -0.1750  0.0290
23677W        W39146   5.273   1.189  11.470  0.1866  0.1675  0.2123
23678W        W39147   1.114  10.101   2.413  0.1680 -0.0335 -0.0368
23679W        W39148  17.089  17.877  15.007  0.1713 -0.1255  0.1461
23680W        W39149  14.382   7.747  15.723 -0.0567 -0.2214  0.2879
23681W        W39150  13.465   2.138   2.726 -0.1193  0.0421  0.0184
23682W        W39151   3.806  15.101  11.874  0.2043  0.2767 -0.0755
23683W        W39152  16.021   0.640  10.903  0.2624 -0.0636 -0.1724
23684W        W39153   1.718   6.488  15.572  0.0935  0.1412  0.2262
23685W        W39154  14.187   2.646   1.771 -0.2037 -0.4794  0.2530
23686W        W39155   5.521  14.420  11.429 -0.0825  0.0502 -0.3147
23687W        W39156   4.680   0.858  14.427 -0.1709  0.1561  0.1266
23688W        W39157  10.300   3.216  15.939  0.2536 -0.4944 -0.0118
23689W        W39158   2.902   3.178   4.513  0.0050 -0.1738  0.1073
23690W        W39159   0.287  17.281   5.328 -0.2705 -0.2894 -0.0529
23691W        W39160  15.194  12.956   4.690 -0.1381  0.2631 -0.1713
23692W        W39161   9.120   5.931   0.739 -0.0298  0.1899 -0.0863
23693W        W39162   3.239  16.145  15.252 -0.1543  0.1610  0.3217
23694W        W39163   0.810  12.514  16.215 -0.0533 -0.3184  0.1927
23695W        W39164  11.456   2.132   1.448 -0.3079 -0.2893  0.1673
23696W        W39165   1.397   6.635  12.836 -0.1469 -0.0419 -0.0533
23697W        W39166  10.155   8.237   1.884  0.0298 -0.1873  0.0747
23698W        W39167   5.033   9.102   1.100  0.0722  0.0408  0.1630
23699W        W39168   4.822   7.479   3.121 -0.0236 -0.1026 -0.0301
23700W        W39169   0.260   3.731   3.683 -0.0823 -0.1996  0.1086
23701W        W39170  12.655  13.052  11.170 -0.1490  0.3127  0.2127
23702W        W39171   2.321  10.462  14.030 -0.2092  0.2203 -0.1045
23703W        W39172  12.249  14.746   1.147 -0.0427  0.1122  0.0704
23704W        W39173  17.100  17.373   4.787 -0.1101  0.2418 -0.0984
23705W        W39174  15.298  12.081  13.452  0.0644  0.0457 -0.0796
23706W        W39175   4.930   7.125  14.175 -0.1442 -0.0541  0.0238
23707W        W39176  14.981  18.080  16.313  0.0517 -0.1932 -0.0845
23708W        W39177  17.000   4.434  11.402  0.3099  0.0072 -0.0978
23709W        W39178  11.326   3.776   1.517 -0.0577 -0.2599  0.0653
23710W        W39179   9.518   5.186   3.421  0.4289 -0.2259  0.0911
23711W        W39180   8.051  10.592  11.833  0.4041 -0.1122 -0.0358
23712W        W39181   8.516   2.440  12.424 -0.0071  0.0419  0.1900
23713W        W39182   4.964  16.577   2.538 -0.2810  0.0884 -0.1516
23714W        W39183   5.934  15.745   3.249  0.0904 -0.3024  0.0549
23715W        W39184   5.822   7.291  10.767 -0.2153 -0.1064 -0.2406
23716W        W39185   1.499  11.853  15.076  0.0545  0.2683 -0.0653
23717W        W39186  13.577   8.824  16.040 -0.1605 -0.0767 -0.1186
23718W        W39187   3.462  14.422   2.712  0.0588  0.1908 -0.1674
23719W        W39188   9.773   3.676  13.494  0.1438 -0.1629  0.1305
23720W        W39189  10.726   8.593   4.327 -0.2448  0.1846  0.1251
23721W        W39190   6.400   6.609   2.865 -0.1631  0.0680  0.0055
23722W        W39191  10.226   8.200  12.468  0.2262 -0.0387 -0.0685
23723W        W39192   2.346  15.356  14.840  0.1806 -0.1467  0.0449
23724W        W39193   3.917   7.749  12.843 -0.0783  0.2007  0.1182
23725W        W39194   7.780   6.922   1.167 -0.0223  0.0555  0.0101
23726W        W39195  14.230   0.669   1.023  0.2217 -0.1382 -0.1684
23727W        W39196   8.215  12.711  11.610 -0.3849  0.0915  0.0860
23728W        W39197  11.514   3.709  15.193  0.0497  0.3187  0.2815
23729W        W39198  12.730  17.916   2.739 -0.0655 -0.0276 -0.0554
23730W        W39199   8.141   8.585  15.976  0.0148  0.2051 -0.0761
23731W        W39200   9.296  16.195  14.076  0.0653  0.2740  0.1949
23732W        W39201   3.534  17.337  12.776  0.1660 -0.1198  0.1269
23733W        W39202  16.924   8.415  12.762  0.2044 -0.0204  0.0915
23734W        W39203  14.210   2.768  15.703 -0.1144  0.0961 -0.1282
23735W        W39204   2.160  12.114   5.590 -0.0795  0.1169 -0.2076
23736W        W39205   2.679  10.023  15.223 -0.1574  0.2249 -0.1095
23737W        W39206  14.243   8.971  10.786  0.2402  0.0794 -0.0518
23738W        W39207   0.203  16.027  12.049 -0.0803  0.1206  0.2785
23739W        W39208  17.757  10.564  15.431 -0.0431 -0.1187  0.0503
23740W        W39209   8.966  10.041  15.783 -0.1111  0.1851 -0.2464
23741W        W39210  16.924   7.954   5.060  0.1319 -0.1041 -0.2860
23742W        W39211   3.215  12.450   1.526 -0.0499  0.0231 -0.0826
23743W        W39212  11.549  12.417   2.835 -0.3123 -0.1187  0.0341
23744W        W39213   2.127   2.474  12.884 -0.0635 -0.2571  0.0831
23745W        W39214  16.770   5.959   1.641  0.3036 -0.1890 -0.2847
23746W        W39215   7.613   9.912  15.755  0.1072  0.0812 -0.4227
23747W        W39216  16.172  14.739   1.217  0.2148 -0.3917  0.2339
23748W        W39217  11.142  15.038  14.093 -0.0014 -0.0146 -0.0500
23749W        W39218  10.520   3.172  13.024  0.2274  0.0165  0.1774
23750W        W39219   5.909   0.470  12.024  0.1689  0.2601  0.0720
23751W        W39220   6.021   6.593   4.604  0.2628 -0.0792  0.0986
23752W        W39221   6.291   9.218   3.651 -0.0121 -0.1082  0.0585
23753W        W39222   0.204   7.445  13.231 -0.0997  0.0955 -0.0386
23754W        W39223   6.706   9.190  16.058  0.0029  0.1131 -0.2837
23755W        W39224   5.423  12.085  14.359 -0.1943 -0.0812 -0.0529
23756W        W39225   7.782   0.734  15.062 -0.1589  0.1163 -0.1567
23757W        W39226  17.815  10.638  14.345  0.1593 -0.1176 -0.0641
23758W        W39227   0.448   5.864   0.639  0.0301 -0.2707 -0.0300
23759W        W39228  12.419   4.345   0.023  0.1359 -0.1533 -0.0524
23760W        W39229   8.948   8.866   3.987 -0.0047 -0.1460 -0.2997
23761W        W39230   7.383  17.506  11.023  0.3215 -0.2162 -0.0515
23762W        W39231   9.557   7.991   0.100 -0.3025 -0.0881 -0.3020
23763W        W39232  14.156  15.069   2.009 -0.0163 -0.4393 -0.3619
23764W        W39233  11.703   4.316   0.779 -0.0909 -0.0716 -0.0703
23765W        W39234  17.460  17.093  14.905 -0.3351  0.1176  0.2910
23766W        W39235   7.068  16.597   3.072 -0.3577 -0.1705  0.0705
23767W        W39236   5.423  12.479  15.239  0.4301  0.2209  0.2166
23768W        W39237  16.526   9.458   2.779  0.1865 -0.3276 -0.0943
23769W        W39238   6.591  17.333  15.795  0.0580 -0.2066  0.4293
23770W        W39239   3.941  17.283  15.815  0.0317  0.1866 -0.2828
23771W        W39240   6.254  10.649  15.185  0.2819  0.3124  0.1740
23772W        W39241  12.890  14.903   1.844 -0.0144 -0.0960 -0.3121
23773W        W39242   0.039  13.128  13.232  0.1679 -0.2751  0.2167
23774W        W39243  10.631   3.932   2.261  0.1474 -0.3434 -0.1151
23775W        W39244  16.423  15.664   3.728  0.0861  0.1185 -0.3054
23776W        W39245  10.119   0.522  13.435 -0.1179  0.1014 -0.0118
23777W        W39246  13.694  15.747   3.464 -0.0537 -0.0151 -0.0075
23778W        W39247   1.438   8.421   2.781  0.1942  0.2179  0.0426
23779W        W39248   8.585  17.361   4.843 -0.0797  0.0761  0.0621
23780W        W39249   7.907  12.905  15.831 -0.0314  0.2980 -0.0708
23781W        W39250   6.372   5.508   2.944 -0.1336  0.0540  0.1263
23782W        W39251  12.782   5.524  15.617 -0.1762  0.0131 -0.3753
23783W        W39252  12.675   3.999  12.860  0.1327  0.1388 -0.2126
23784W        W39253   9.726   5.527   0.360  0.0536  0.1475 -0.2963
23785W        W39254  13.269   8.192   5.578 -0.1344 -0.0082  0.0941
23786W        W39255   6.590  10.073   0.596 -0.0237  0.2054 -0.1790
23787W        W39256   6.218  17.853   2.974 -0.2082 -0.1371 -0.2004
23788W        W39257   2.405  16.692  11.021 -0.0265 -0.0875  0.1776
23789W        W39258   9.024  10.198   2.844  0.4047  0.1664 -0.2134
23790W        W39259  13.089  14.120   4.465  0.0560 -0.0646  0.2999
23791W        W39260   5.229   5.804  12.141  0.3836  0.3282 -0.1010
23792W        W39261   5.967  11.481   1.037 -0.1055  0.2231 -0.1281
23793W        W39262  13.366  15.647   0.101  0.0053 -0.0331 -0.1954
23794W        W39263  12.933   4.478   4.691 -0.3364 -0.0082  0.1551
23795W        W39264   6.632  10.309  15.184 -0.2609  0.0923 -0.2156
23796W        W39265  11.105   2.985   2.937 -0.2964 -0.0649  0.0828
23797W        W39266  13.678   1.286  11.449  0.1565  0.0152  0.0858
23798W        W39267   2.725  11.690  11.981  0.1192 -0.4608 -0.1133
23799W        W39268   8.354  15.830  16.088 -0.0270  0.1232 -0.0889
23800W        W39269   7.233  16.376  16.071 -0.1655 -0.1226 -0.2579
23801W        W39270  15.076  10.654  15.828 -0.3170  0.0290  0.0138
23802W        W39271   1.855  14.430  12.121 -0.2962  0.1816 -0.0198
23803W        W39272   3.296  10.610   1.486 -0.0885  0.1848 -0.0838
23804W        W39273   8.465   3.843  13.915  0.3132 -0.0395 -0.1458
23805W        W39274  15.578   2.519   4.817 -0.2509 -0.1937 -0.3862
23806W        W39275   2.884  15.224   4.701  0.1677  0.1275 -0.0290
23807W        W39276   5.638  15.461   4.891 -0.3036 -0.0017  0.0731
23808W        W39277   7.096  12.276   3.177 -0.2360 -0.0421  0.0270
23809W        W39278   2.337  11.724   2.763 -0.0774  0.2132 -0.2349
23810W        W39279  17.304  13.956   0.088  0.0217  0.1656  0.3411
23811W        W39280   2.226  17.920  12.354 -0.0156  0.1164  0.0765
23812W        W39281   8.680  13.342  14.784 -0.1889  0.3880  0.1064
23813W        W39282   4.877   0.973  15.457  0.0766  0.2144 -0.0665
23814W        W39283   4.160   4.982   1.569 -0.1682 -0.0467 -0.3154
23815W        W39284  10.951   3.192  14.911  0.0540  0.0969 -0.0708
23816W        W39285   2.951  16.219   3.800 -0.1528 -0.0779 -0.0957
23817W        W39286   4.569  14.539   4.782  0.1100 -0.1398 -0.0432
23818W        W39287  11.496  16.770  15.336  0.1309 -0.3336 -0.0440
23819W        W39288   8.067   3.167  12.200 -0.0283 -0.0091  0.1039
23820W        W39289   4.956   3.970  15.681 -0.4475  0.1629 -0.2239
23821W        W39290   6.724   5.083   6.199  0.1266 -0.1314  0.0876
23822W        W39291   2.927   4.714   0.948 -0.0842 -0.0179 -0.1883
23823W        W39292  13.150  10.636   4.174  0.0171 -0.1225 -0.0206
23824W        W39293  14.380  15.242  14.488  0.2417 -0.0687 -0.2066
23825W        W39294   7.596  11.943   4.855 -0.0124 -0.1262  0.0841
23826W        W39295   9.026  10.615  10.799  0.0593 -0.1044  0.1723
23827W        W39296  16.617   4.230   5.429  0.2279 -0.1412 -0.0917
23828W        W39297  15.887   0.852   5.564  0.0192 -0.2287 -0.0209
23829W        W39298  12.800   9.172   0.258 -0.0548  0.1284  0.1086
23830W        W39299  12.390   1.803   4.647  0.1948 -0.1281 -0.0271
23831W        W39300  14.228  15.577   0.546 -0.0121 -0.1073  0.2904
23832W        W39301   6.500   5.257  14.272 -0.0672 -0.1035 -0.2168
23833W        W39302  14.743   5.100  12.164  0.1455  0.3096 -0.1926
23834W        W39303  12.353  12.495  12.536  0.3868  0.0865 -0.0778
23835W        W39304   1.663   1.815   4.061 -0.2178 -0.0870  0.2392
23836W        W39305  16.475  12.345   5.514 -0.2102  0.0785  0.1930
23837W        W39306   6.592   3.454   4.690 -0.1585 -0.0496 -0.0917
23838W        W39307   9.332  17.853   5.474 -0.4400  0.1365 -0.1164
23839W        W39308   8.129   2.015   4.621 -0.1649  0.0025  0.1235
23840W        W39309  11.138  16.350   5.809  0.0309  0.1367 -0.0010
23841W        W39310   9.955   0.526   0.780 -0.1402  0.1942  0.2307
23842W        W39311   1.498  16.431  13.475  0.2695 -0.0232 -0.0471
23843W        W39312  11.965   8.897   1.488 -0.2363 -0.1816 -0.0234
23844W        W39313  17.684   6.072  11.496 -0.1940  0.0017  0.1408
23845W        W39314  15.252  16.053  15.338  0.2920 -0.1800 -0.0593
23846W        W39315   8.061   1.394  13.885 -0.1371  0.2199  0.0159
23847W        W39316   3.908  13.595  12.889 -0.0948  0.1561 -0.2112
23848W        W39317   0.825   4.666  13.031  0.1416 -0.1444  0.0556
23849W        W39318   4.099   7.213  11.315 -0.0461  0.1640  0.1921
23850W        W39319  16.880   8.727   2.292 -0.1066  0.1197 -0.0265
23851W        W39320  11.092   5.706  10.418  0.1468  0.2387 -0.0613
23852W        W39321   2.680  17.679  12.549 -0.1942 -0.1169  0.3371
23853W        W39322  11.085  11.378   0.560 -0.1021  0.3275  0.2109
23854W        W39323   1.959   9.561  15.093  0.1490 -0.1055 -0.1195
23855W        W39324  15.291   2.386   5.427  0.0426 -0.3472  0.2499
23856W        W39325   6.345  14.230  15.893 -0.0955 -0.0868  0.3496
23857W        W39326   7.488   6.599  12.731 -0.0689  0.1182 -0.1187
23858W        W39327  11.467   1.263   4.911 -0.1348  0.0542 -0.4192
23859W        W39328   8.792   5.008  12.219  0.0519  0.1379 -0.1901
23860W        W39329  15.701  11.777  13.541  0.0754  0.0028 -0.2449
23861W        W39330   4.861   4.419  12.237  0.1237 -0.2913  0.0141
23862W        W39331   6.647  11.122  14.402  0.1008 -0.1095  0.0897
23863W        W39332  16.312   2.272   3.321 -0.4328 -0.0601  0.0732
23864W        W39333   7.849  13.910   2.953 -0.0214  0.0192  0.0472
23865W        W39334  13.678  14.536  15.282 -0.0979  0.0150  0.2830
23866W        W39335  12.226  14.587  15.784  0.1603 -0.0054  0.3078
23867W        W39336  17.244  13.902   4.739 -0.0206  0.2363 -0.2581
23868W        W39337   8.733   2.639  11.523 -0.0528  0.3094 -0.1361
23869W        W39338   8.347   8.043   5.415  0.0156  0.1283  0.0351
23870W        W39339  16.449  11.551  14.684  0.0505  0.1862 -0.1215
23871W        W39340  13.481  13.579  15.245  0.1050 -0.1101 -0.0761
23872W        W39341  16.687   7.549  11.817  0.0423 -0.2398 -0.0006
23873W        W39342   2.225   7.651   0.735  0.2637 -0.2755  0.1158
23874W        W39343   2.625  14.810   4.827  0.1552 -0.2807  0.2685
23875W        W39344   2.954   1.961  13.934  0.1759 -0.0104 -0.0005
23876W        W39345  15.494   8.189   4.852  0.0597 -0.1903 -0.3338
23877W        W39346  14.436  12.324  11.600 -0.0306 -0.0474 -0.1782
23878W        W39347  16.085   3.185  12.676  0.1446 -0.0369  0.0915
23879W        W39348  12.808   6.013   0.911  0.0113 -0.0433 -0.2722
23880W        W39349   6.357   2.532   3.762  0.0007 -0.2732  0.3294
23881W        W39350   2.804  14.875   4.293 -0.0553 -0.1585 -0.0194
23882W        W39351   7.819   5.121  10.463 -0.3810  0.2994  0.4365
23883W        W39352   6.259   4.032   2.096  0.1461  0.2013  0.1160
23884W        W39353   6.616   4.321   0.821 -0.1114 -0.0932  0.2264
23885W        W39354   3.146  11.043  14.001  0.0444  0.1246  0.2586
23886W        W39355   8.527   8.994   0.551  0.1301 -0.1053  0.1882
23887W        W39356   8.865  10.610  14.551  0.0714 -0.0934  0.0680
23888W        W39357  17.778  16.161   2.604  0.2139  0.1968 -0.0178
23889W        W39358  11.594  17.351   5.760 -0.0850 -0.0285  0.1784
23890W        W39359  16.431  10.166  13.076  0.0994 -0.1054 -0.0391
23891W        W39360   8.171  14.021   2.053  0.1319 -0.0373 -0.1373
23892W        W39361  14.214  16.548   0.457 -0.0726 -0.1950 -0.0398
23893W        W39362  13.913   9.496  12.361  0.2993 -0.0765 -0.0065
23894W        W39363   6.309  11.065  11.164  0.0542 -0.1132  0.2521
23895W        W39364   7.499  13.657   1.084  0.0690 -0.1878  0.1016
23896W        W39365  10.257  10.594   3.600 -0.1914  0.2503  0.1176
23897W        W39366   6.721   8.690  12.304 -0.0781 -0.1815  0.0810
23898W        W39367  10.933  15.114   4.553 -0.0157 -0.0051 -0.0269
23899W        W39368  10.760   9.013  14.423  0.0257 -0.2230  0.0420
23900W        W39369  17.171  10.812  14.933  0.0087  0.2328  0.0008
23901W        W39370  12.181  10.989  11.442 -0.1825  0.4381 -0.0823
23902W        W39371   3.445  16.162  12.037  0.1260 -0.1963  0.1003
23903W        W39372  14.303   3.459   2.380 -0.1549 -0.0275 -0.0251
23904W        W39373   6.632  15.656  14.998 -0.0479  0.3728  0.0708
23905W        W39374  17.236   3.580  13.473 -0.0080 -0.0620 -0.2105
23906W        W39375   5.162   3.606   2.959  0.0901  0.0427  0.3576
23907W        W39376   3.549  12.146   3.207 -0.0507 -0.4136 -0.1669
23908W        W39377   9.120  14.406   1.806 -0.0355 -0.0675  0.3232
23909W        W39378  11.211   9.334   4.616 -0.0362 -0.1171 -0.5775
23910W        W39379  15.428  15.637  13.534  0.1935  0.0505  0.2240
23911W        W39380   0.708  15.366   2.094  0.1038 -0.0946 -0.1107
23912W        W39381  14.016   8.859  11.415  0.2283  0.1216  0.1033
23913W        W39382  13.190   3.480   2.652 -0.2046  0.0779 -0.0243
23914W        W39383   9.853  14.902  15.338 -0.0431  0.1910  0.2931
23915W        W39384  10.587  15.265  11.106 -0.0404 -0.0408 -0.0425
23916W        W39385   3.024   6.654   3.658  0.1424 -0.0409 -0.2154
23917W        W39386  13.373   6.672   1.073 -0.0990 -0.4212  0.0252
23918W        W39387   3.260   9.359  14.107  0.0487 -0.0422 -0.2155
23919W        W39388   6.159   0.111  14.151  0.0859 -0.0486 -0.0702
23920W        W39389   9.215  14.739  12.620  0.0366  0.1059 -0.3045
23921W        W39390   2.781   6.184  15.595 -0.2302 -0.1739 -0.2309
23922W        W39391   1.521  12.183  12.279  0.0609  0.0555  0.0146
23923W        W39392  11.586   8.910  13.293 -0.2872  0.1541  0.2435
23924W        W39393  15.224   1.182   2.196 -0.0706  0.1573 -0.0800
23925W        W39394  10.695   1.421   4.010 -0.1286 -0.0621 -0.0384
23926W        W39395   3.056  10.992  15.231 -0.1833 -0.0003 -0.1140
23927W        W39396   1.816  10.394   2.047 -0.0428 -0.0286 -0.1390
23928W        W39397  14.262   0.454  12.354 -0.0232  0.1514 -0.0686
23929W        W39398   6.322  10.809  12.071 -0.2083 -0.0541 -0.0898
23930W        W39399   9.723   0.823   4.354  0.1555 -0.1499  0.3175
23931W        W39400   6.223   3.664  15.897 -0.2299  0.0898 -0.0954
23932W        W39401   5.175   7.536   0.578  0.1325  0.0607 -0.3198
23933W        W39402   1.178  12.866  16.216 -0.1027  0.1827  0.0522
23934W        W39403  14.720   6.602  12.145 -0.0680 -0.1603 -0.2108
23935W        W39404   3.912  12.223  14.330  0.0007  0.1216 -0.0036
23936W        W39405  13.844   7.111   4.693  0.1463  0.0404  0.1942
23937W        W39406  10.563  14.964   3.596  0.0261  0.0934  0.2762
23938W        W39407  14.182   3.725  12.540 -0.1152 -0.0371  0.1697
23939W        W39408  17.955  12.277  13.743 -0.0247 -0.1345  0.1704
23940W        W39409   5.553  15.347   0.180 -0.0191  0.0643 -0.0138
23941W        W39410  15.677  18.007   4.434 -0.1736  0.3605 -0.0743
23942W        W39411   9.116   0.424  11.458 -0.1768  0.0685 -0.2320
23943W        W39412   6.751  12.640   5.305  0.1033 -0.1560 -0.0188
23944W        W39413  17.320   6.825   4.585 -0.1414 -0.0217 -0.0890
23945W        W39414   8.585   6.700  14.784  0.0553 -0.0788 -0.0367
23946W        W39415  14.251  13.646  11.469 -0.0567 -0.0399  0.0164
23947W        W39416   7.792   2.339  11.042 -0.1748 -0.2350 -0.1053
23948W        W39417  11.052  18.052  14.213 -0.1979  0.3203  0.1506
23949W        W39418   4.861   7.624   4.426 -0.1454 -0.0571  0.0840
23950W        W39419  12.340  15.586  15.411 -0.2148 -0.1168  0.0933
23951W        W39420  13.444   4.653  13.178  0.1763 -0.1146 -0.0717
23952W        W39421   0.611   8.773  13.088  0.1904  0.0753  0.1326
23953W        W39422   4.944  10.470   3.152 -0.0381 -0.1726 -0.1088
23954W        W39423   3.348  10.125  12.619  0.1980 -0.2978  0.0337
23955W        W39424   1.964  14.110   4.529  0.1538 -0.0752 -0.0667
23956W        W39425  11.275   7.266  15.296  0.2104  0.1291  0.2148
23957W        W39426  10.322   0.746   3.443 -0.0115  0.0593  0.0107
23958W        W39427   5.163   5.354   1.977  0.0233 -0.1162  0.0238
23959W        W39428   7.191  18.037  11.654 -0.0659 -0.0652 -0.0647
23960W        W39429   7.462  14.796   0.432  0.1054 -0.2186  0.0111
23961W        W39430  15.176   5.804  14.727 -0.0985 -0.0204 -0.1774
23962W        W39431  10.728   4.557   3.589 -0.0343  0.2580 -0.1156
23963W        W39432   4.856  11.831   3.518 -0.2338 -0.1444  0.0495
23964W        W39433  11.651   1.177   6.326 -0.3671  0.1470 -0.0265
23965W        W39434  12.723   8.299  16.042  0.0822 -0.2313 -0.0010
23966W        W39435   5.393  16.223  12.587  0.0024 -0.2778  0.0107
23967W        W39436  16.596  17.354   2.761  0.0950  0.1700  0.1870
23968W        W39437   6.761  17.895   2.470 -0.0600  0.1580  0.0789
23969W        W39438   2.228   9.516  13.055  0.1370  0.1951  0.2776
23970W        W39439   5.216   4.113  14.103 -0.0484  0.0648 -0.0071
23971W        W39440   6.794  15.839  11.438 -0.4746 -0.0017  0.1739
23972W        W39441  15.444   8.101  12.350  0.1594 -0.3326 -0.2881
23973W        W39442  11.342  17.537   1.346  0.1688 -0.0897 -0.1715
23974W        W39443   0.472   7.519   1.149 -0.2181 -0.0137  0.1994
23975W        W39444  17.849  14.641  12.234 -0.0925 -0.2894  0.1100
23976W        W39445  17.255   0.849  12.302  0.1513  0.0745 -0.0096
23977W        W39446   0.721   7.780  15.080  0.0826 -0.1557 -0.1122
23978W        W39447  11.138  14.439   5.632  0.1118 -0.2155  0.1130
23979W        W39448  16.761   6.306  11.300 -0.0282 -0.0127 -0.0207
23980W        W39449   6.160   5.320  12.979 -0.1368 -0.0929 -0.1045
23981W        W39450   9.838   0.284  15.077 -0.2394  0.2038 -0.2983
23982W        W39451   8.913   7.859   2.633 -0.1817 -0.2079  0.3390
23983W        W39452  12.872  11.654   1.478  0.2413 -0.0836  0.0160
23984W        W39453  17.262   5.001  10.786  0.1196  0.0608 -0.1525
23985W        W39454  16.011  15.328  11.292  0.0884  0.1336 -0.1499
23986W        W39455   4.913   4.163  14.865  0.2820  0.3788 -0.0555
23987W        W39456   0.466  15.246   1.167 -0.0396  0.2180  0.2415
23988W        W39457   2.757  15.518  15.691  0.0415  0.1922 -0.0283
23989W        W39458   2.639  10.670  12.600  0.2053 -0.1521 -0.5407
23990W        W39459   0.174  18.068   0.351  0.0919 -0.2864  0.0721
23991W        W39460   9.005   0.504   0.406 -0.2592 -0.1704  0.0930
23992W        W39461  16.809  14.562  11.691  0.0061  0.0085 -0.0952
23993W        W39462  14.351  13.475  15.365  0.0291 -0.1632 -0.0421
23994W        W39463   3.055   1.249  15.119 -0.0056  0.0780 -0.1653
23995W        W39464   1.687   2.848  12.983 -0.0888  0.1511 -0.0472
23996W        W39465  14.787   8.129   1.318 -0.1303  0.3804 -0.1349
23997W        W39466   2.022   1.139  12.362  0.0566  0.1016 -0.1862
23998W        W39467   9.744   4.807  12.649 -0.1962  0.0209 -0.0817
23999W        W39468  10.771   3.211   0.085 -0.0065  0.2868 -0.0664
24000W        W39469  11.798   9.660  11.313  0.0749 -0.1224 -0.3335
24001W        W39470   5.078   5.958  13.370 -0.3035  0.0199  0.0305
24002W        W39471  16.999  12.286   0.204  0.2464 -0.1155 -0.1373
24003W        W39472  11.563   1.098   5.379 -0.0874 -0.2245  0.0952
24004W        W39473   8.301   5.633   4.634 -0.1419  0.2298 -0.2314
24005W        W39474   5.330  17.022  15.943 -0.0525  0.1201 -0.1427
24006W        W39475  15.001   0.154   3.013  0.0075  0.0937  0.0535
24007W        W39476   8.765   9.821   0.748  0.0799 -0.3465 -0.2783
24008W        W39477   8.090  16.418  11.720 -0.1693  0.1549 -0.0516
24009W        W39478   8.022  15.756  15.271  0.1211  0.0737  0.0094
24010W        W39479   0.491  16.933  12.530 -0.0203 -0.1504 -0.0194
24011W        W39480  10.356  15.930  14.573  0.0273 -0.1277  0.1768
24012W        W39481  17.827   7.811  14.511 -0.0444 -0.0527 -0.2485
24013W        W39482  16.003   7.018   5.005  0.4878  0.0516 -0.1664
24014W        W39483  14.970  15.105   3.993 -0.1339 -0.0328  0.0513
24015W        W39484   3.982   6.577  14.901  0.1431  0.0665  0.0588
24016W        W39485   1.327   9.448   1.264  0.1637  0.0737  0.1144
24017W        W39486  12.750   5.954   3.252 -0.0785 -0.1228  0.1550
24018W        W39487   5.124  11.307   0.691 -0.1264 -0.0955 -0.0930
24019W        W39488  12.576   1.562  14.452 -0.2084 -0.0423 -0.1523
24020W        W39489   7.696  16.205   2.110  0.0317 -0.2667  0.0187
24021W        W39490  16.315   9.427  15.981 -0.4229  0.1054  0.1815
24022W        W39491   3.358   4.641  11.574  0.2050 -0.2081 -0.0816
24023W        W39492   7.486  15.966  15.866 -0.0095  0.2237 -0.2598
24024W        W39493   6.008   5.493   3.270 -0.0912 -0.1685  0.2914
24025W        W39494   0.370   6.405   2.356 -0.0562  0.3536  0.2184
24026W        W39495   2.077  17.382  12.117 -0.0688 -0.1415  0.1190
24027W        W39496   9.242   5.647   0.355 -0.1712  0.0910 -0.1333
24028W        W39497   3.139   7.582  14.577  0.3644  0.0653 -0.2042
24029W        W39498  17.177  16.018   4.652 -0.2014 -0.1734  0.0693
24030W        W39499  18.013  16.628   2.508  0.0016  0.0209  0.1320
24031W        W39500  10.319   9.222  11.984 -0.0583  0.0170 -0.0428
24032W        W39501   1.245  16.494  12.269  0.3207  0.0330 -0.1053
24033W        W39502   8.668  11.338  12.324 -0.0476  0.0926  0.0134
24034W        W39503   0.044  11.673  15.633  0.0193 -0.2635 -0.1477
24035W        W39504   2.027   9.152   2.666 -0.0197 -0.1015 -0.1895
24036W        W39505  17.660   2.760  13.511 -0.4271  0.1260 -0.1065
24037W        W39506  10.745   1.736   2.589  0.1744  0.1330  0.0455
24038W        W39507  17.515  11.585  15.804 -0.1456 -0.0057 -0.1431
24039W        W39508   9.645  14.447   1.716 -0.0972  0.0359 -0.2454
24040W        W39509   6.811   7.214   0.834  0.2097 -0.0434  0.0860
24041W        W39510  15.002   6.176   4.251  0.1365 -0.3250  0.0156
24042W        W39511  12.661  15.767   3.151 -0.3140  0.0546  0.1129
24043W        W39512   2.537   3.686   1.185 -0.1972 -0.2304  0.2512
24044W        W39513   6.736  11.938  12.121 -0.1298 -0.0000 -0.1033
24045W        W39514  14.391  14.431  13.690 -0.0420  0.2080  0.0870
24046W        W39515   0.545  17.285  13.878 -0.0479  0.1822 -0.0873
24047W        W39516  13.369   6.515   1.529  0.2865 -0.0717  0.1590
24048W        W39517   0.510   8.897  12.597 -0.2257 -0.1285  0.0407
24049W        W39518  17.627   3.497   5.505  0.0026  0.1728 -0.0845
24050W        W39519  11.431  16.857   5.820 -0.2327  0.3088  0.1442
24051W        W39520  10.370  17.588   6.044 -0.3475 -0.1459 -0.0195
24052W        W39521  15.607   2.574   1.730  0.3881 -0.1041 -0.2049
24053W        W39522  10.757  13.753  14.495  0.0124 -0.1182 -0.2184
24054W        W39523   6.761   4.934  16.059 -0.2037 -0.0950 -0.0861
24055W        W39524   4.046   9.388   2.220  0.0756 -0.1952  0.3980
24056W        W39525   1.009   9.467  11.504 -0.2388 -0.1332 -0.0279
24057W        W39526   8.046   9.503  11.620 -0.0557 -0.2321  0.2187
24058W        W39527   7.391   5.870   0.601 -0.0268 -0.1697 -0.0477
24059W        W39528   2.048   3.304   1.953 -0.1387  0.0691 -0.2487
24060W        W39529   9.763   2.659  15.399 -0.2629  0.0908 -0.1867
24061W        W39530  11.147  17.357   3.178 -0.2956  0.1791  0.0276
24062W        W39531   4.310   9.509  13.324 -0.1615 -0.0574 -0.0637
24063W        W39532   1.583   1.123   4.801  0.0011  0.2049 -0.1927
24064W        W39533   7.389  10.004   5.020 -0.0874  0.1719  0.3120
24065W        W39534   4.854   4.178  13.118 -0.0035  0.3031 -0.1270
24066W        W39535   0.047  13.509   1.666  0.0575  0.0116  0.0215
24067W        W39536  14.552  16.937   3.432 -0.0801 -0.1046 -0.0392
24068W        W39537  15.903  14.271  14.596  0.1821  0.2794 -0.0982
24069W        W39538   8.433   2.936  11.857 -0.0311 -0.2271 -0.2186
24070W        W39539   2.112   9.816  16.178 -0.1128 -0.1122 -0.3053
24071W        W39540   6.587   1.097  13.055  0.1068  0.2557  0.0881
24072W        W39541  12.502  17.574   0.261 -0.0347 -0.0287  0.0958
24073W        W39542  10.456  16.750   5.461 -0.1755  0.0005  0.0280
24074W        W39543  10.803   8.649   1.149  0.1190  0.0890  0.0679
24075W        W39544  12.219  14.466   1.852 -0.2419 -0.2618  0.2031
24076W        W39545  12.854  16.552   0.965  0.0185  0.0209 -0.0846
24077W        W39546  10.959   6.477   4.103  0.0633 -0.1979 -0.0528
24078W        W39547  12.806  12.474  12.344  0.0919  0.0171  0.2707
24079W        W39548  13.764   3.875  16.063 -0.0022  0.1682  0.1777
24080W        W39549  10.528  10.022  13.960 -0.2096 -0.0888 -0.0874
24081W        W39550  10.176   8.744  13.980  0.0032  0.0652 -0.0734
24082W        W39551   1.682  16.218   1.077 -0.0194 -0.0400 -0.0584
24083W        W39552  17.042   2.897  11.856 -0.2473  0.1870 -0.2476
24084W        W39553  15.339   9.656   1.512 -0.1037  0.3315  0.1303
24085W        W39554   0.606  11.538   3.343 -0.2657 -0.2480 -0.0102
24086W        W39555   9.568   3.543  14.947 -0.0215 -0.1730 -0.1104
24087W        W39556  10.826  13.660   0.416 -0.3287  0.2359 -0.0939
24088W        W39557   3.994  10.040   1.397 -0.1139  0.2902  0.0736
24089W        W39558   1.003  14.674   6.216 -0.0034  0.1534 -0.2614
24090W        W39559  17.539   3.591  12.071  0.1871  0.2138  0.0965
24091W        W39560  15.697   7.720  15.940  0.1239  0.2082 -0.1720
24092W        W39561  16.793   6.047   2.259  0.0769 -0.0725  0.3126
24093W        W39562   4.420   8.423   5.396  0.1330  0.1518 -0.1182
24094W        W39563   0.781  10.366  11.635 -0.0727 -0.0107 -0.0299
24095W        W39564  14.443   9.045   4.384  0.1876 -0.1763 -0.1857
24096W        W39565  12.403  11.010  14.637  0.2790  0.0545  0.3586
24097W        W39566   6.767  11.053   4.742 -0.2248 -0.1154 -0.4752
24098W        W39567   5.766   7.032   1.114 -0.0162 -0.0972  0.1366
24099W        W39568  12.179   8.508   1.260 -0.1661 -0.0204  0.1976
24100W        W39569   7.662   2.666  13.750 -0.0775  0.0804 -0.0005
24101W        W39570   5.740  15.385  11.648  0.0838 -0.0244 -0.0268
24102W        W39571  16.804   7.904   5.607 -0.1060 -0.1207  0.3734
24103W        W39572   7.165   7.228   2.574 -0.1338  0.1631 -0.1545
24104W        W39573  11.880  14.324   0.839 -0.4940 -0.0245  0.0186
24105W        W39574  12.604   4.247   4.387 -0.0396  0.1012 -0.0441
24106W        W39575   7.518   7.955  15.477  0.3250 -0.1921 -0.0017
24107W        W39576  11.623   0.202   4.212 -0.1814  0.1847  0.2990
24108W        W39577  11.288   5.284  11.872  0.2965  0.2085 -0.2637
24109W        W39578  17.723   8.890  11.400  0.1048 -0.1098 -0.0189
24110W        W39579  17.778   4.195   0.330 -0.1682 -0.0065  0.1025
24111W        W39580  16.174  11.784   4.648 -0.3293 -0.0791  0.1134
24112W        W39581  17.719   0.371   3.297  0.1188 -0.0519  0.2712
24113W        W39582  15.095   7.734  14.081  0.0260 -0.2147  0.2702
24114W        W39583   3.723  17.167   0.783  0.1403  0.2877  0.1505
24115W        W39584  13.806   9.502   0.073  0.0005 -0.0013  0.0411
24116W        W39585  11.513   9.431  14.090  0.0120 -0.2595 -0.2415
24117W        W39586  14.625  12.284  14.217 -0.1154  0.4929 -0.1369
24118W        W39587   4.886   3.731  13.933  0.0311  0.2082 -0.0577
24119W        W39588   9.277   2.377  12.620  0.0254  0.0738 -0.0425
24120W        W39589  13.474  16.430   6.188  0.1706 -0.0101  0.0613
24121W        W39590   6.190   4.239   0.458 -0.2134 -0.1013 -0.1772
24122W        W39591   6.158   9.870  14.475 -0.1901  0.2117  0.2346
24123W        W39592   5.442   4.887   5.057  0.3213 -0.0544 -0.2691
24124W        W39593  13.540  16.088  11.308 -0.1018 -0.2906 -0.2316
24125W        W39594   0.052  18.048  14.757 -0.1282  0.1064 -0.0171
24126W        W39595   2.016  17.255  13.653 -0.1137  0.0916 -0.1879
24127W        W39596  13.496  13.096  13.404  0.1826 -0.0829 -0.0880
24128W        W39597   1.090   5.052  16.044 -0.2444  0.3717 -0.2892
24129W        W39598  13.018   1.465   3.028 -0.0932 -0.2113  0.0159
24130W        W39599  12.890   5.231  11.986  0.2403 -0.1681 -0.1285
24131W        W39600   3.964   4.591  10.873 -0.0205 -0.3846 -0.1301
24132W        W39601   6.954  14.589   4.774  0.1340 -0.1456  0.1275
24133W        W39602   7.476  15.965   1.683  0.0253  0.0853 -0.1063
24134W        W39603  15.857  16.844  12.366 -0.0439 -0.0807  0.1647
24135W        W39604   4.488  10.921  13.080  0.1364  0.1246  0.0295
24136W        W39605  15.205   0.226  15.922 -0.4174 -0.1363  0.0036
24137W        W39606  10.794  15.846  13.821 -0.0740  0.1114 -0.1268
24138W        W39607   7.735   1.745  11.945 -0.0299 -0.0544  0.1629
24139W        W39608  17.521   0.973  13.887 -0.0530 -0.1909 -0.0840
24140W        W39609   9.742   7.347  12.340  0.3681 -0.1190  0.0339
24141W        W39610   1.048   9.049   3.857  0.0227  0.0479 -0.1137
24142W        W39611   2.605   6.604   3.946 -0.0398  0.0674 -0.0565
24143W        W39612   8.217  10.693   1.768  0.0706  0.1562 -0.0353
24144W        W39613   2.484   4.800  13.247  0.3195 -0.0468  0.0273
24145W        W39614   6.297  11.450   1.397  0.1162 -0.0577 -0.1138
24146W        W39615   2.767   3.363  14.549 -0.1778  0.0086 -0.1040
24147W        W39616  15.898   5.844   5.235  0.1328 -0.1398  0.0731
24148W        W39617   0.177   2.458  12.265  0.0054 -0.1330 -0.2766
24149W        W39618  14.530  17.549   0.845  0.0619 -0.1193  0.0175
24150W        W39619   3.301   9.488   3.738 -0.0244 -0.1107  0.1672
24151W        W39620   6.854   3.284  15.380  0.3846 -0.3310 -0.1438
24152W        W39621  17.325  14.159   3.620 -0.1274  0.0389 -0.4209
24153W        W39622   1.004   5.556   2.315  0.0877  0.1400 -0.2766
24154W        W39623   4.545  15.888   3.181  0.0119  0.0526  0.1964
24155W        W39624  10.852   7.095  13.442  0.0554  0.0029  0.0454
24156W        W39625  11.634  15.689  14.112  0.0148 -0.3114 -0.0054
24157W        W39626  17.964   3.546  15.399 -0.1811 -0.0623 -0.1184
24158W        W39627  10.293  10.749   0.700  0.0766 -0.2229 -0.1582
24159W        W39628   8.287  16.950  14.692 -0.1246  0.3318 -0.3619
24160W        W39629   0.114  10.140   1.114 -0.2829 -0.3105  0.1603
24161W        W39630  10.854   3.804   1.370 -0.0196  0.1398 -0.1350
24162W        W39631   7.399   1.312  15.740  0.1873  0.0374 -0.0193
24163W        W39632  14.753   2.771  14.481 -0.0650  0.1917  0.2731
24164W        W39633   6.271  10.008   2.141  0.0572 -0.0463 -0.1807
24165W        W39634  13.037  14.718   5.193  0.2863  0.1599  0.0639
24166W        W39635  14.774  11.530  14.580 -0.4176  0.1185  0.1906
24167W        W39636  12.619  10.740   1.944 -0.0840 -0.1337 -0.2136
24168W        W39637   3.425   3.289  12.714 -0.1420  0.0670 -0.0667
24169W        W39638  14.271  14.728   3.545  0.0018 -0.0481 -0.2131
24170W        W39639   1.649   6.118   2.491  0.3344  0.1205  0.3474
24171W        W39640   0.197  10.045   5.426  0.0447 -0.1642  0.4054
24172W        W39641   3.052  11.936   1.454 -0.0877  0.3935  0.1567
24173W        W39642   1.560  12.219  13.282  0.0109 -0.4181 -0.0800
24174W        W39643   9.446  16.169  14.910 -0.1238  0.2350  0.1238
24175W        W39644  10.538  14.466  13.563 -0.0381 -0.1528 -0.2012
24176W        W39645  13.237  13.565  12.507 -0.2794  0.2381 -0.1091
24177W        W39646  11.124   7.244   3.064 -0.2793 -0.0262  0.0995
24178W        W39647  17.155   2.576   0.886  0.0764  0.2144 -0.0936
24179W        W39648   0.593   7.260   4.933 -0.2464 -0.0147  0.0059
24180W        W39649   7.822  10.680   3.506 -0.1003  0.0833  0.1484
24181W        W39650   5.375   8.175  15.043  0.1596 -0.1215 -0.0708
24182W        W39651   8.200   2.632   1.686  0.0515  0.1045  0.3530
24183W        W39652   5.152   3.319  14.904  0.3285 -0.0769 -0.1381
24184W        W39653   9.571  15.846   3.637 -0.1337 -0.2079 -0.1611
24185W        W39654   2.792  13.066   0.149  0.3147  0.1022 -0.1400
24186W        W39655   3.068  14.820   0.396 -0.3790 -0.0476 -0.1361
24187W        W39656  15.622   9.641   4.285  0.1975  0.1057  0.0123
24188W        W39657   7.281  10.881   4.416 -0.0655 -0.3694  0.0417
24189W        W39658   1.307  13.142   0.343 -0.0963 -0.1655 -0.0121
24190W        W39659  10.857   0.757   5.234 -0.3892 -0.0547 -0.3198
24191W        W39660   7.565   7.503   0.587 -0.0285  0.1324 -0.3775
24192W        W39661   9.718  16.498   1.789  0.1906  0.1421  0.3139
24193W        W39662   6.955   3.664   3.397 -0.2204  0.2558 -0.2051
24194W        W39663  10.314  13.381  15.923 -0.1028  0.3447 -0.0139
24195W        W39664   7.723  17.972  13.078 -0.2078  0.1856  0.0376
24196W        W39665  11.134   8.342  13.172 -0.0480  0.1049  0.1953
24197W        W39666   0.153  15.065   3.817  0.2723 -0.1039  0.1299
24198W        W39667  16.538   0.943  16.101 -0.1760 -0.1743 -0.0523
24199W        W39668   3.156   5.314   1.612  0.1020  0.0173  0.0143
24200W        W39669  12.802  14.122   2.161 -0.1170 -0.0865 -0.2081
24201W        W39670  10.740   9.364   4.926  0.1030  0.0381  0.1537
24202W        W39671   7.557  12.758   0.144  0.2188  0.2463 -0.0376
24203W        W39672   7.422   9.009  14.401  0.0650  0.0439 -0.1889
24204W        W39673  16.963   4.056   5.898 -0.0581  0.1933 -0.2336
24205W        W39674   8.814   9.624  13.950  0.1135 -0.1426  0.0325
24206W        W39675   1.759   6.701  13.752 -0.0648 -0.3411 -0.3469
24207W        W39676  14.653   0.070  11.939 -0.1438 -0.0628 -0.0381
24208W        W39677  14.702   8.416  13.520 -0.0132 -0.0213 -0.1626
24209W        W39678  16.928   9.810  11.706 -0.2791 -0.0442  0.0928
24210W        W39679   3.460   4.229   1.840 -0.1742 -0.1860  0.0175
24211W        W39680   4.196  15.196   4.631  0.0531 -0.0357 -0.4960
24212W        W39681  15.490   5.826   3.487  0.4538 -0.3057  0.3246
24213W        W39682   5.804  17.181   2.445 -0.3071 -0.1641  0.2551
24214W        W39683   2.494  15.407  16.080  0.0825 -0.0148 -0.2866
24215W        W39684  10.547  14.940   2.872  0.0975 -0.0016 -0.1630
24216W        W39685   4.737   6.375  14.470  0.3136  0.0351  0.1809
24217W        W39686  11.288  14.112   6.050  0.0915  0.0719 -0.0409
24218W        W39687   3.056   0.140   4.581 -0.0135 -0.0847  0.0968
24219W        W39688   0.698   1.392  13.605  0.0573  0.2123  0.2084
24220W        W39689  17.119   9.185   1.524 -0.0694 -0.2012  0.0046
24221W        W39690  14.427  17.308  12.796 -0.1393  0.1303  0.1279
24222W        W39691  11.129   1.663   0.760  0.0350 -0.2682 -0.0961
24223W        W39692   3.824  12.088   0.860  0.3224  0.0043  0.2433
24224W        W39693  10.174  17.944  12.139  0.1586  0.1860  0.0269
24225W        W39694   1.980   4.219   3.772  0.2822 -0.0761 -0.0239
24226W        W39695  12.557  12.638   3.041 -0.2633 -0.0199  0.3011
24227W        W39696  14.215  14.630  12.479  0.0514  0.0755  0.0316
24228W        W39697   0.794   9.366   5.604 -0.0465  0.0071  0.2788
24229W        W39698  15.100  14.946   4.878 -0.0221 -0.0485 -0.1591
24230W        W39699   2.624  16.116  12.104 -0.1740 -0.2344 -0.2516
24231W        W39700  10.440   5.379  12.320 -0.1068  0.3941 -0.0257
24232W        W39701   4.882   0.466   3.511 -0.2543  0.0834  0.0061
24233W        W39702  14.667   9.806  16.020  0.0859 -0.0906  0.0699
24234W        W39703   2.734  13.637   2.778  0.0504  0.2949  0.3855
24235W        W39704   6.255  11.064   1.756 -0.0158 -0.1403  0.1005
24236W        W39705  12.173  16.322   3.711 -0.1852  0.1733  0.0680
24237W        W39706  17.823   7.248  11.035  0.0047 -0.4342 -0.0505
24238W        W39707  15.502  17.128  14.369 -0.0808 -0.1460 -0.1750
24239W        W39708   3.417   6.787   4.431  0.0005 -0.2129 -0.2822
24240W        W39709   9.309  17.931   2.916 -0.0588 -0.1491  0.3387
24241W        W39710   6.625   9.134   1.072  0.4074 -0.0243 -0.2409
24242W        W39711  13.431   2.431   4.099  0.0872  0.0084 -0.0003
24243W        W39712  10.736   1.444  14.499  0.1104 -0.0163  0.0115
24244W        W39713   0.493  11.322   5.391  0.3973 -0.1449  0.1341
24245W        W39714   8.076   0.626  14.122  0.0838  0.2742 -0.1400
24246W        W39715   7.750   9.246   5.616  0.2870 -0.0992 -0.1534
24247W        W39716  10.577  12.492  15.577 -0.0141  0.2941 -0.2801
24248W        W39717   4.531   5.549  15.819  0.0412 -0.0743  0.0739
24249W        W39718  14.394  11.390   2.106 -0.1488 -0.0152  0.0646
24250W        W39719  15.374   6.702  16.255 -0.2242  0.2127  0.0932
24251W        W39720  12.047   3.945  11.265 -0.0519 -0.0706 -0.1046
24252W        W39721  13.672   9.906  14.628 -0.0747 -0.1887  0.2331
24253W        W39722  12.969   8.337   0.149 -0.1836 -0.1456  0.2429
24254W        W39723  10.689   8.268   3.908 -0.0715  0.0302  0.0414
24255W        W39724  10.777   7.547   5.516 -0.0976  0.0455  0.1884
24256W        W39725   6.269  16.164   1.922  0.1271  0.4202 -0.1697
24257W        W39726   4.112  16.719  13.504 -0.1578  0.1603 -0.1328
24258W        W39727   1.301   2.691  14.359 -0.0472  0.0198  0.2505
24259W        W39728  13.345  16.850  15.645 -0.1151 -0.0400  0.0686
24260W        W39729  14.796   3.489   0.842  0.2370 -0.2798  0.1531
24261W        W39730   9.819  10.284  12.562  0.0093  0.0581 -0.2079
24262W        W39731  10.697   9.548   4.483 -0.0816  0.2190  0.0526
24263W        W39732   4.923   6.839  11.614 -0.1128 -0.2116 -0.0360
24264W        W39733  15.333   9.778   0.854 -0.0059 -0.0904  0.0794
24265W        W39734   7.121   1.736  15.933  0.2143  0.0814 -0.0371
24266W        W39735  13.958   6.852   2.793  0.1610  0.2728  0.1149
24267W        W39736  11.888   5.775  13.962  0.0593 -0.0895  0.0952
24268W        W39737  11.899  10.497  15.086  0.2549  0.2380  0.0747
24269W        W39738   3.988  16.550   1.061 -0.2764 -0.0323 -0.1138
24270W        W39739   3.190   0.764  15.002  0.0430 -0.0598  0.2309
24271W        W39740   3.431   7.719  12.683 -0.2326 -0.1540  0.1233
24272W        W39741   2.795  14.819   2.238 -0.2772  0.1542 -0.1735
24273W        W39742   7.079  13.949   3.940 -0.0710 -0.0092  0.1684
24274W        W39743   3.872   4.730   3.011 -0.1539 -0.0516  0.0017
24275W        W39744  14.468   3.895   5.918 -0.4836  0.2101 -0.2771
24276W        W39745   2.580   1.298  16.277  0.0566 -0.0341 -0.3999
24277W        W39746  17.971  10.156  15.108 -0.1617 -0.1462 -0.0830
24278W        W39747  18.050   5.998   2.057  0.3046  0.2497 -0.1387
24279W        W39748  11.808  10.987  15.981  0.2304  0.2277 -0.0619
24280W        W39749   2.279   8.675  14.933  0.0995 -0.1622 -0.2289
24281W        W39750   4.220  11.692   2.486 -0.1012  0.0853  0.0754
24282W        W39751  16.494  13.679  12.214  0.0273  0.0784 -0.0646
24283W        W39752   4.087  11.464   3.624 -0.2111 -0.3910 -0.1451
24284W        W39753  15.545   1.155   3.069  0.3415 -0.3215 -0.0670
24285W        W39754  12.085  14.754   4.573  0.1059  0.1146 -0.1017
24286W        W39755   4.617   7.965   5.402  0.0588 -0.0783  0.1706
24287W        W39756   8.869   0.576   1.219 -0.0218  0.1872 -0.2705
24288W        W39757   4.050  10.547   3.339 -0.0645 -0.1418  0.1783
24289W        W39758   6.456   5.044  12.661 -0.2195 -0.0276 -0.2372
24290W        W39759  17.547   4.042  16.164  0.0133  0.2204  0.0877
24291W        W39760  17.013   1.835   2.185  0.0070 -0.0666 -0.1971
24292W        W39761   8.868   4.793   5.036 -0.0335  0.0851  0.2757
24293W        W39762   7.628  16.499   0.013  0.0421  0.4343  0.1065
24294W        W39763   8.262  13.956  11.606  0.0788 -0.2179  0.1467
24295W        W39764   9.219   3.310  15.727  0.0608 -0.2518  0.1606
24296W        W39765   0.055   9.283   3.704  0.0935  0.0839  0.0436
24297W        W39766  15.596   2.527  13.513 -0.2114 -0.1239 -0.2882
24298W        W39767   5.994  10.122  12.423 -0.0773  0.1020 -0.1108
24299W        W39768  15.315   1.692  13.862  0.1971  0.2043  0.3095
24300W        W39769   9.248   7.522   3.462  0.2592  0.3080 -0.3485
24301W        W39770  16.920  14.548  15.652 -0.1314 -0.0354 -0.0248
24302W        W39771   0.026  15.197  11.555  0.2725 -0.1475  0.0740
24303W        W39772   1.275   6.304   2.829  0.0356  0.1313 -0.1357
24304W        W39773  12.000  15.706  15.973 -0.1428  0.0030 -0.1307
24305W        W39774   5.633  12.818   4.482 -0.0491  0.0025 -0.0400
24306W        W39775  10.092   0.597  12.932  0.0490  0.1593 -0.2203
24307W        W39776  14.345   3.544   2.899 -0.0063 -0.0820  0.1797
24308W        W39777  12.703   3.653   6.416 -0.0278  0.0140  0.1118
24309W        W39778   6.787  11.030   0.329 -0.0767 -0.0139 -0.1566
24310W        W39779   6.651  12.394   0.745  0.0672 -0.0726 -0.0095
24311W        W39780  15.202  14.030  11.409  0.2388  0.0133 -0.1669
24312W        W39781   8.043   7.139  13.040 -0.2283  0.4162 -0.3569
24313W        W39782   1.066   4.348  14.638  0.0357 -0.0433  0.3120
24314W        W39783  14.519   6.909   1.344  0.1360 -0.1863 -0.0783
24315W        W39784  10.789   8.935   2.895 -0.1037 -0.2902 -0.1449
24316W        W39785   5.607   6.346  15.505  0.1704 -0.2538  0.1409
24317W        W39786   0.603  13.990  15.678 -0.0222 -0.0159 -0.1254
24318W        W39787  15.187   2.492  13.075  0.0439 -0.0966  0.2568
24319W        W39788   0.347  10.799   2.784  0.0748  0.0519 -0.0273
24320W        W39789   3.217  14.436   9.964 -0.1112 -0.3635  0.0523
24321W        W39790   7.959  14.097  11.245 -0.0823  0.3751  0.1016
24322W        W39791   4.723  13.568  14.511 -0.0054 -0.1968  0.0652
24323W        W39792   6.840   5.601  14.190 -0.0289 -0.2836  0.0840
24324W        W39793  15.804  15.840  11.295  0.1291 -0.2404  0.1718
24325W        W39794   9.872  16.077  15.749 -0.0735  0.0796 -0.2299
24326W        W39795  12.320   0.474   1.232 -0.0870 -0.1350  0.0107
24327W        W39796   8.734   6.176  15.693  0.2902  0.0474  0.0783
24328W        W39797  11.045  11.581   1.070  0.2415 -0.1082  0.2195
24329W        W39798   1.028  11.123   1.044  0.1010  0.1610 -0.0141
24330W        W39799   3.258   8.856   0.392 -0.2064 -0.0205  0.1815
24331W        W39800   8.368  10.199   4.218 -0.0886  0.0812 -0.2108
24332W        W39801   5.594   8.060   1.362  0.2364  0.0162  0.0006
24333W        W39802  17.383  16.424   3.879 -0.0857 -0.0391  0.0765
24334W        W39803   8.547  16.442   1.868 -0.3999  0.1865  0.1782
24335W        W39804  15.382   3.350   0.197  0.1457 -0.0904 -0.1217
24336W        W39805   4.431   4.133  14.734  0.3475 -0.3186  0.2050
24337W        W39806   2.754   3.060   3.615 -0.0025  0.1212  0.0009
24338W        W39807   0.623  18.026  11.638 -0.2992 -0.1394 -0.0691
24339W        W39808   0.993  10.303  13.127  0.0349  0.3017  0.0834
24340W        W39809   7.336   8.028  15.005 -0.2743  0.0386  0.0263
24341W        W39810   9.035  12.079  10.596  0.3046 -0.2546  0.2261
24342W        W39811   2.858   6.876   2.344 -0.1061 -0.0194  0.0501
24343W        W39812   7.111  14.604  13.918 -0.2260 -0.2941  0.2221
24344W        W39813   0.275   8.916   0.095 -0.1763  0.0717  0.0783
24345W        W39814   5.382   1.466   4.445 -0.0675  0.0073 -0.0866
24346W        W39815   7.110  12.274  13.829 -0.2544  0.2374 -0.0146
24347W        W39816  16.765   6.553  14.041  0.0744  0.1523  0.1732
24348W        W39817  12.799   8.690   2.602 -0.1820  0.1330  0.0479
24349W        W39818   9.820  11.657  15.821 -0.1171  0.2199 -0.1811
24350W        W39819  18.058   5.108   3.884 -0.0002 -0.0746  0.1484
24351W        W39820   8.781   8.651  12.485 -0.1240 -0.0111  0.2088
24352W        W39821  16.444   2.795   0.409  0.1929  0.1007 -0.0034
24353W        W39822   3.065   2.798  10.856  0.0444 -0.0832 -0.0473
24354W        W39823  14.545  17.973   2.089 -0.3342  0.2094  0.0548
24355W        W39824  16.100  15.856  14.261 -0.1257  0.5187  0.3380
24356W        W39825   0.961   1.379  12.613 -0.1322  0.1196 -0.0743
24357W        W39826   9.065   1.045  14.843  0.1753  0.0190 -0.0870
24358W        W39827  12.649  12.261  13.193  0.1864  0.0007  0.2506
24359W        W39828   1.235   7.473   5.215  0.1368 -0.1877  0.0284
24360W        W39829   3.945   7.200   2.624 -0.0970  0.1820  0.0655
24361W        W39830  15.015   7.028  11.981 -0.0718  0.1286  0.0216
24362W        W39831  11.602   8.522   2.156  0.2678  0.2820  0.2805
24363W        W39832  16.454   8.635  13.670  0.0852 -0.0214  0.0462
24364W        W39833   8.415  13.159  13.875  0.1332 -0.1975  0.0576
24365W        W39834  11.148  13.153  12.486 -0.0498 -0.0328  0.0436
24366W        W39835  13.712  12.877   1.649 -0.1826  0.1789 -0.0195
24367W        W39836  15.740   5.540   1.650 -0.1666  0.0372 -0.1442
24368W        W39837   9.691  15.790   2.547 -0.1627 -0.1337  0.0187
24369W        W39838  18.016  12.095   2.873  0.0635 -0.0525 -0.1916
24370W        W39839  10.592   0.142  12.756  0.1979  0.1140  0.0501
24371W        W39840  16.523   6.424  15.551 -0.0162 -0.1060 -0.1499
24372W        W39841  15.566   2.919   3.095  0.1154 -0.2287  0.0520
24373W        W39842  16.936  12.764   4.171 -0.1372  0.0940  0.1247
24374W        W39843  10.472  13.460   1.128 -0.1995  0.0848  0.1711
24375W        W39844  17.364   8.672   1.571 -0.4530  0.4089  0.2593
24376W        W39845   9.296   4.958  12.936  0.4075 -0.1429  0.3501
24377W        W39846   1.100   8.348  12.076  0.0442  0.0823 -0.1274
24378W        W39847   2.859   3.875   4.748  0.0851 -0.1072 -0.2448
24379W        W39848   2.258  11.456  12.154 -0.0130  0.5394  0.2713
24380W        W39849   9.839  17.344   6.084 -0.1062 -0.1254 -0.2876
24381W        W39850   3.920   7.795   5.348  0.1871 -0.1647 -0.0378
24382W        W39851   8.778   5.671   4.539  0.2811 -0.0119  0.0654
24383W        W39852  13.806   0.901   3.411  0.1029  0.1630 -0.1126
24384W        W39853  16.413   7.697  14.949  0.0432  0.2045  0.1652
24385W        W39854  17.254   3.301   5.203  0.0169  0.0013 -0.2061
24386W        W39855   9.616  16.813   0.596  0.1302  0.1138 -0.1080
24387W        W39856   4.634   1.882  13.071  0.0527 -0.4802 -0.1207
24388W        W39857   2.394   1.635   4.601 -0.0805  0.2373  0.0183
24389W        W39858  15.791   7.055   5.486 -0.1432 -0.2263  0.6116
24390W        W39859  12.909  10.494  13.659  0.0315  0.0953 -0.2237
24391W        W39860   2.213   9.776   1.611 -0.1210 -0.0915 -0.3834
24392W        W39861  11.418   7.511  12.799 -0.0523 -0.1497 -0.1966
24393W        W39862  12.088   7.040   3.714 -0.0493 -0.1992 -0.3542
24394W        W39863   7.639  14.025  16.108 -0.3390  0.1780  0.1856
24395W        W39864   8.040   6.594   5.694 -0.1782 -0.2220  0.1545
24396W        W39865   2.230  14.595   1.542  0.1234  0.1159 -0.0412
24397W        W39866   3.106   8.405  15.998 -0.0083  0.1999  0.0860
24398W        W39867  13.373  11.057  14.370 -0.1985 -0.1062 -0.0772
24399W        W39868   9.256   9.692   4.733  0.2741 -0.1838  0.1598
24400W        W39869   9.409  10.656   4.917 -0.2881 -0.1738 -0.0789
24401W        W39870  17.508  14.109  15.261 -0.0993 -0.0775 -0.1806
24402W        W39871   3.848   1.354   5.293  0.0923  0.0261  0.1871
24403W        W39872  11.230   4.226   2.869  0.0747 -0.0010 -0.3292
24404W        W39873  14.781   9.240   0.987 -0.0114 -0.0442  0.0064
24405W        W39874   3.053   5.429  12.788  0.1497  0.1809  0.0248
24406W        W39875  13.537  11.109  13.198 -0.2416  0.0536  0.2811
24407W        W39876   2.480  12.435  12.413 -0.1713  0.1195 -0.2331
24408W        W39877   4.694   5.864  13.693  0.0267 -0.1207 -0.0173
24409W        W39878   1.508  11.467  15.818 -0.2634  0.2154 -0.0775
24410W        W39879  17.607  16.556   2.863 -0.1045  0.2863 -0.1137
24411W        W39880   4.134  12.441   5.704  0.0569 -0.0757 -0.3021
24412W        W39881  14.171  10.536  10.743  0.1417  0.0962  0.3873
24413W        W39882  17.526  10.430  12.301 -0.1096 -0.1050 -0.2549
24414W        W39883   9.827   1.624  11.876 -0.1772  0.4030 -0.1418
24415W        W39884   6.630   2.956   0.668 -0.0653 -0.0260  0.1201
24416W        W39885   5.060   8.859   2.852  0.1061 -0.1581  0.2108
24417W        W39886   5.658   1.037   1.876 -0.0343  0.1111  0.1090
24418W        W39887  14.357   6.315  16.222  0.0024  0.4678 -0.0585
24419W        W39888   6.460   9.888  12.465  0.0379  0.0756 -0.1778
24420W        W39889  13.187   7.104  12.095  0.1036 -0.0912  0.2902
24421W        W39890   1.069   2.143  10.861  0.1988 -0.2014  0.3253
24422W        W39891   1.079   6.589   4.974 -0.2505 -0.1737  0.2132
24423W        W39892   9.522  16.848  13.090  0.0930 -0.2093 -0.2054
24424W        W39893  12.194  12.246  15.245  0.1763 -0.0484 -0.2383
24425W        W39894  13.499  15.100   3.014 -0.2589 -0.2446 -0.1847
24426W        W39895   3.201   1.795  11.854 -0.0296 -0.1338  0.0462
24427W        W39896  13.955   6.496   4.478 -0.1572 -0.0689  0.0486
24428W        W39897  11.394  15.968   3.329  0.2508  0.0394  0.1862
24429W        W39898   6.414  11.832  16.260 -0.0585  0.0305  0.4333
24430W        W39899  15.105  15.198  12.332 -0.2391 -0.0158  0.0427
24431W        W39900   3.343  14.283   3.958  0.2622 -0.0751  0.0438
24432W        W39901   3.748  11.404   0.212 -0.2110 -0.1532 -0.2515
24433W        W39902   1.413   4.103  14.445  0.0464 -0.2474 -0.1386
24434W        W39903   9.439   5.689   3.367  0.1138  0.1427 -0.1784
24435W        W39904  13.415  12.444   0.836  0.3998 -0.0390  0.1006
24436W        W39905  14.660  16.253   5.216 -0.0132  0.2671  0.1714
24437W        W39906   4.792   7.640  12.700 -0.0171 -0.2253  0.4558
24438W        W39907   3.860   7.601  11.509 -0.1270 -0.0333  0.2917
24439W        W39908   0.666   8.989   0.531 -0.1600 -0.0030 -0.2688
24440W        W39909   4.043   1.533  12.148 -0.1988 -0.1813  0.1548
24441W        W39910  17.530   6.508   3.156  0.1641  0.1287  0.0593
24442W        W39911  16.465  12.913   3.511  0.1596 -0.0102  0.1102
24443W        W39912   5.473  16.496   5.580 -0.4334  0.0896  0.0411
24444W        W39913   4.798   7.911  15.237 -0.0799  0.0726 -0.0610
24445W        W39914   0.440  17.480   3.217  0.0732  0.2658 -0.2121
24446W        W39915  12.831   1.420   4.687 -0.2009  0.0213  0.1863
24447W        W39916   9.673  10.417   1.456  0.1216  0.0407 -0.3174
24448W        W39917   8.744  11.178   1.235  0.0650 -0.1039 -0.0215
24449W        W39918  13.760   7.900  14.620  0.2156  0.1507 -0.3187
24450W        W39919  16.014   0.925   0.517  0.1306  0.1374  0.0879
24451W        W39920  17.765   4.950   3.102  0.1904 -0.2067  0.2300
24452W        W39921   3.342   9.499  15.634  0.1716 -0.2906 -0.2406
24453W        W39922   7.121   4.772   5.595  0.3606 -0.0402  0.2849
24454W        W39923  15.547   8.256  15.069 -0.0110 -0.1332 -0.0179
24455W        W39924  15.567  13.886  11.047  0.1208 -0.0715  0.0808
24456W        W39925  13.189   9.402   3.918  0.1663 -0.1012 -0.3581
24457W        W39926  10.208   4.791   1.893  0.0456  0.1897  0.2313
24458W        W39927  13.792  13.353   0.465  0.0073 -0.0215 -0.1026
24459W        W39928  10.750  14.967  13.308 -0.0114 -0.2894  0.2226
24460W        W39929  16.142   9.158   2.598  0.1932  0.1612 -0.1334
24461W        W39930  11.112  15.380  12.465 -0.1751 -0.2211 -0.0494
24462W        W39931  11.261  10.355   2.099  0.0913 -0.0400 -0.0561
24463W        W39932  17.399   2.110  15.221  0.0711 -0.0568 -0.1615
24464W        W39933   4.088  10.050  15.498 -0.0017 -0.1524 -0.1805
24465W        W39934   1.788   3.716   9.866  0.0805 -0.2573 -0.1650
24466W        W39935   9.788  17.539   4.606 -0.2390 -0.0261 -0.2736
24467W        W39936  16.411   2.083   1.931 -0.3162  0.4895 -0.1746
24468W        W39937  10.275   5.778  15.517  0.2392  0.3294 -0.0061
24469W        W39938  12.851  12.821   3.899  0.0969  0.0834 -0.0256
24470W        W39939  10.003  15.043  14.510  0.1269  0.1405  0.1328
24471W        W39940  14.374   2.511   5.036 -0.1575 -0.0287  0.2446
24472W        W39941  12.314   4.296   2.494 -0.0045 -0.1674 -0.0667
24473W        W39942  12.823  11.317   4.880  0.0513 -0.1773 -0.0948
24474W        W39943   1.126   8.670   4.186  0.1095 -0.1748 -0.0668
24475W        W39944   4.455   0.634  13.331 -0.0253 -0.1869  0.0859
24476W        W39945   7.168  16.984  10.374  0.1700  0.0133  0.0813
24477W        W39946   9.884  12.352   1.488 -0.0804 -0.3878  0.1756
24478W        W39947   7.431  12.523   5.373  0.2255  0.0024 -0.3092
24479W        W39948   1.611   9.296  11.327  0.0624  0.1243 -0.1230
24480W        W39949   7.759   7.420   1.049 -0.1146  0.1541 -0.1924
24481W        W39950  15.908  10.732  11.023 -0.2271 -0.0583  0.1848
24482W        W39951  17.813   9.488  11.372 -0.1828  0.1370 -0.4798
24483W        W39952  10.368   3.651  11.671  0.0158 -0.1004  0.0303
24484W        W39953   2.456  12.472   9.960  0.1916  0.0646 -0.2480
24485W        W39954   6.972   8.162   4.417  0.2041 -0.1813  0.1391
24486W        W39955  18.078   9.104   5.022 -0.0920  0.2631  0.1020
24487W        W39956  18.064  13.794  12.443  0.0018  0.0815  0.0408
24488W        W39957   6.379  10.831   1.219  0.0087  0.0210 -0.3803
24489W        W39958  15.820  13.154   3.479  0.2576  0.3441 -0.0411
24490W        W39959   4.667   4.327   1.330 -0.1409 -0.0706  0.0386
24491W        W39960  12.013  15.375  14.313 -0.0776 -0.0415 -0.0156
24492W        W39961  12.970   9.659  13.263 -0.3404 -0.2307  0.2742
24493W        W39962  13.207   8.395   3.207 -0.1864 -0.4199  0.0623
24494W        W39963  10.412   0.538   1.407 -0.0645 -0.2885  0.2991
24495W        W39964   7.461  17.067  12.884  0.1513 -0.1061 -0.2352
24496W        W39965   2.094   9.289   0.071 -0.1434 -0.2087 -0.2671
24497W        W39966   8.143   9.086   2.814 -0.0727  0.1858 -0.0487
24498W        W39967   4.351   8.710  15.119  0.0488 -0.1515  0.0701
24499W        W39968  16.641   6.764  11.441 -0.3413 -0.4277  0.1672
24500W        W39969   6.553   2.370  12.849 -0.2681  0.1038 -0.1686
24501W        W39970   8.113   0.901   1.105 -0.0443  0.1490  0.3852
24502W        W39971   3.409   3.756   1.232 -0.0000  0.0246 -0.0219
24503W        W39972   2.149  17.396  14.139 -0.0301 -0.0422 -0.0096
24504W        W39973   9.819  17.754  12.479 -0.2612 -0.2700 -0.0287
24505W        W39974  15.636  16.191   5.263 -0.0879 -0.0025 -0.2954
24506W        W39975   3.222   8.751   5.767 -0.0556 -0.1327  0.0532
24507W        W39976  15.084  14.624  15.053  0.0402  0.4121 -0.1191
24508W        W39977  18.083   2.904  10.948 -0.0050 -0.1789  0.2874
24509W        W39978  11.322   0.649   5.526  0.3798  0.0134  0.2876
24510W        W39979   7.106   0.341  14.431 -0.0369  0.1092  0.1879
24511W        W39980   5.086   3.079   4.246  0.0225 -0.1310  0.2176
24512W        W39981  15.321  12.062   4.452  0.3937  0.1278  0.0914
24513W        W39982   5.470   5.171  12.152  0.0671  0.0185  0.0996
24514W        W39983   7.446  16.040   0.194 -0.0475 -0.3074  0.2260
24515W        W39984  17.371  12.030  12.832 -0.3409  0.0313  0.0384
24516W        W39985   3.567  14.900  15.555 -0.0073 -0.1331 -0.0770
24517W        W39986   9.774  17.113  10.406  0.0806  0.0028 -0.0787
24518W        W39987  11.604  14.938  12.126 -0.0946  0.0497 -0.0644
24519W        W39988   4.949  17.324  16.238 -0.0861  0.0925  0.1379
24520W        W39989   8.635  12.166  15.176 -0.1765 -0.0632 -0.0818
24521W        W39990   1.100   8.594   0.639 -0.0723 -0.3147  0.0487
24522W        W39991   0.462   0.086  15.522 -0.2099 -0.1968 -0.3700
24523W        W39992   7.507  15.201  13.392  0.1534  0.2948  0.0025
24524W        W39993  12.391  10.619  11.131 -0.1668  0.0678 -0.2053
24525W        W39994   7.025  16.195  12.859 -0.0491  0.1880 -0.4017
24526W        W39995  12.208  12.987   3.094 -0.2514  0.1201  0.2452
24527W        W39996   9.804   2.854   2.026  0.0665 -0.0509  0.0492
24528W        W39997   7.692   3.995  14.139  0.2833 -0.2584 -0.0619
24529W        W39998  11.388   2.523  14.366  0.0178  0.0238 -0.1702
24530W        W39999   6.688   8.229   3.025 -0.1038  0.3187  0.3195
24531W        W40000  13.264  15.759  13.744  0.0286 -0.0464  0.1052
24532W        W40001  15.181   6.270  12.649 -0.0007 -0.1984  0.1283
24533W        W40002  17.924   9.171  15.623  0.2690  0.1743 -0.0504
24534W        W40003  16.596   6.783   1.203 -0.0313 -0.3237  0.0553
24535W        W40004   2.855   6.266   5.079  0.1237  0.0211 -0.4054
24536W        W40005   1.799  15.306   1.984 -0.0328  0.1886 -0.1654
24537W        W40006   7.456   3.343  11.979  0.0543  0.1548  0.0604
24538W        W40007   6.959  15.590  12.736  0.1570 -0.1552  0.4794
24539W        W40008  12.813   2.766   4.563 -0.2071 -0.1776  0.4023
24540W        W40009   1.080   3.658   1.669  0.2730 -0.1190 -0.0669
24541W        W40010   0.041   6.377  15.433 -0.2153  0.2191  0.1337
24542W        W40011   6.602  17.185   2.961  0.0386 -0.1259  0.1268
24543W        W40012  11.403   4.919  10.702 -0.1638  0.2901 -0.0939
24544W        W40013   0.992  16.376  12.850  0.0591 -0.1603 -0.0288
24545W        W40014   2.284   3.960   2.564  0.0790 -0.0358  0.1725
24546W        W40015   2.175   5.002  15.087  0.0800  0.3450 -0.0006
24547W        W40016   7.846  17.187  14.710 -0.4457 -0.1376  0.1250
24548W        W40017   4.765   6.063   1.267  0.1032 -0.0898  0.3482
24549W        W40018   1.815  12.771  12.027  0.1769  0.1702  0.0900
24550W        W40019  11.521  11.868   3.152  0.1533 -0.3657 -0.1790
24551W        W40020  10.730   6.948   4.809  0.0164 -0.0340  0.2673
24552W        W40021   1.952   5.896   0.901  0.0848  0.1214  0.1225
24553W        W40022   3.251  15.690  15.736 -0.3047 -0.0541 -0.0773
24554W        W40023   0.365  11.980   3.984 -0.1243  0.0088 -0.0267
24555W        W40024  16.731  15.234  12.700 -0.1170 -0.1023 -0.1748
24556W        W40025   4.596   6.865  16.087  0.1147 -0.1253 -0.0499
24557W        W40026   3.453  14.664   3.111  0.0385 -0.1394 -0.1565
24558W        W40027   4.779   1.164  11.463  0.0391  0.0145 -0.1355
24559W        W40028   0.134   9.040   1.209  0.2734  0.0234  0.0512
24560W        W40029  10.820   6.408   3.564 -0.1369 -0.1985 -0.2653
24561W        W40030   5.839   0.850   3.827 -0.5601 -0.2573 -0.0569
24562W        W40031   3.461  16.451   2.380 -0.1422 -0.1295 -0.1686
24563W        W40032   6.653   8.119   1.682 -0.0911  0.2481 -0.0639
24564W        W40033   3.799  14.673  15.155  0.0348  0.2285 -0.1305
24565W        W40034   8.038   7.702   2.674  0.0327  0.0285 -0.1562
24566W        W40035  13.794   6.357  12.003  0.0013  0.0089 -0.3195
24567W        W40036  11.843   6.032   3.375 -0.1572  0.0668 -0.0858
24568W        W40037  11.677   1.360   2.057 -0.1394  0.0475  0.2264
24569W        W40038   4.335  14.046   3.138 -0.0488 -0.1787 -0.1109
24570W        W40039  13.503  11.490  14.025 -0.0343  0.1290 -0.0463
24571W        W40040   8.178   6.214  15.664 -0.3424  0.1513  0.1017
24572W        W40041   7.325  16.911   1.066  0.2122  0.3245  0.1976
24573W        W40042   2.251   7.256  11.273  0.1455  0.1573 -0.2729
24574W        W40043  12.859   7.194  14.863  0.1754  0.2053 -0.0629
24575W        W40044   8.781  12.712  10.396 -0.0353  0.0678  0.0744
24576W        W40045   9.147  16.012   1.080  0.2282  0.3060  0.1675
24577W        W40046   8.632  11.868   5.026  0.2853 -0.0894  0.3359
24578W        W40047  16.998  15.123   1.418 -0.0289 -0.1193 -0.1093
24579W        W40048   6.625   2.716   2.583 -0.1457  0.0581  0.0621
24580W        W40049   1.546   5.254   5.225 -0.0649 -0.0586 -0.0264
24581W        W40050  13.896   3.412   3.137 -0.1418 -0.1031  0.0022
24582W        W40051   2.560  11.295   0.809 -0.0876 -0.5343  0.1726
24583W        W40052  15.141  15.738   0.720  0.0365 -0.2328 -0.0313
24584W        W40053   6.151   6.835  13.434 -0.1394 -0.1098  0.1168
24585W        W40054  14.945   5.386  15.085 -0.2359 -0.3146 -0.0332
24586W        W40055  16.234   7.667  12.429  0.0900  0.1180 -0.2279
24587W        W40056  14.540  18.041  12.423 -0.0286 -0.2125  0.2431
24588W        W40057   0.935  17.326  11.882  0.1158  0.1628  0.1985
24589W        W40058  10.840   9.493  11.742  0.0912  0.0732 -0.0972
24590W        W40059   9.475  17.154   3.311 -0.0207  0.1066  0.0953
24591W        W40060  15.418  10.443  12.267 -0.1015 -0.0318  0.0191
24592W        W40061  11.495  12.718  14.119  0.3773  0.0552  0.0059
24593W        W40062   7.137   1.199   1.903  0.2271  0.1465  0.0132
24594W        W40063   1.586  12.362   1.840  0.0279 -0.0088  0.0002
24595W        W40064   5.765   6.028   2.377 -0.2530  0.0366 -0.2273
24596W        W40065  17.512  16.054   3.019 -0.2138  0.3141  0.0211
24597W        W40066   3.522  16.864  12.820 -0.0097 -0.2239  0.0795
24598W        W40067   9.777   7.581  10.862 -0.1195  0.2029  0.4527
24599W        W40068  14.574   1.879   3.468 -0.0401  0.2528 -0.1815
24600W        W40069   2.680  13.189  11.977  0.2401 -0.1356  0.2573
24601W        W40070   0.662  10.197   0.037 -0.0260 -0.3374  0.0468
24602W        W40071  13.083   5.267  12.520 -0.1444  0.1835 -0.1051
24603W        W40072  11.575   0.073  14.177  0.0201  0.0095  0.3383
24604W        W40073   3.971  12.192   1.582  0.3992 -0.2956 -0.0919
24605W        W40074   2.740  12.298   5.415  0.0155  0.0182  0.3425
24606W        W40075  10.742  12.032  10.737  0.0795  0.0259  0.1117
24607W        W40076   9.123  15.103  15.994  0.3157  0.0467  0.0185
24608W        W40077   9.546  10.223  14.902 -0.0814 -0.0494 -0.2781
24609W        W40078   3.923  12.666  13.537 -0.0740  0.2041  0.0693
24610W        W40079  13.313  14.189   5.035 -0.0100 -0.1423 -0.1371
24611W        W40080  10.151   3.669   3.953 -0.1178  0.1990 -0.3502
24612W        W40081   9.901   4.514   2.740 -0.0290  0.0583  0.0169
24613W        W40082  12.232  14.248  11.202  0.1285 -0.2228 -0.1874
24614W        W40083  13.098  10.580   1.754 -0.3726  0.0857 -0.0578
24615W        W40084   7.745   5.354   3.724 -0.1328 -0.2110  0.1898
24616W        W40085   1.485  11.696  12.581 -0.1056 -0.3137 -0.1953
24617W        W40086   7.539   3.827   2.360 -0.0091 -0.0357 -0.3472
24618W        W40087   2.834   3.915  12.850  0.3315  0.2172  0.5503
24619W        W40088  11.543  13.738  12.931  0.2287  0.0487 -0.1604
24620W        W40089  14.118   7.053   1.702 -0.1264 -0.0229  0.0729
24621W        W40090  13.913   0.063   3.917 -0.2024  0.0681 -0.1686
24622W        W40091  15.894  10.566  12.504  0.0581  0.0828 -0.0367
24623W        W40092   9.254  13.950  12.656  0.0250 -0.2103  0.3822
24624W        W40093  12.778  15.723   5.455 -0.0844  0.0220 -0.2281
24625W        W40094   9.522   1.998  14.398  0.0330 -0.0945 -0.2166
24626W        W40095  17.554   4.366  14.965  0.1474  0.3095  0.2071
24627W        W40096  14.077  14.922   1.220 -0.0166  0.0187  0.2139
24628W        W40097  11.749   7.324   3.981 -0.2926  0.0135  0.0006
24629W        W40098   2.389  13.870  15.686 -0.2848 -0.1438 -0.3382
24630W        W40099   4.151  12.255   5.144 -0.1330  0.0018  0.2682
24631W        W40100  11.123  17.200  12.773 -0.0573 -0.1033 -0.1659
24632W        W40101  17.214  11.961   1.039 -0.0663 -0.0513 -0.1560
24633W        W40102   8.554   8.334  13.344 -0.1706 -0.0070  0.0635
24634W        W40103  11.834   3.848   4.373 -0.1287 -0.1045 -0.0555
24635W        W40104  15.004   3.722   5.714 -0.0976 -0.0072  0.0942
24636W        W40105   4.982   0.590  13.268  0.1772  0.0528  0.0827
24637W        W40106   9.883   7.867   2.163  0.0732  0.0736 -0.1092
24638W        W40107  13.595   6.042  14.309  0.1455  0.0375 -0.0055
24639W        W40108   3.692   3.380   4.248  0.0855  0.1162  0.0955
24640W        W40109   9.006   0.049   2.308 -0.1050  0.1820  0.1369
24641W        W40110   1.535   6.300  14.006 -0.1520  0.0465  0.1597
24642W        W40111   7.175  17.897   4.271 -0.1905  0.0492 -0.0139
24643W        W40112  10.491   0.033  15.629  0.1567  0.1114  0.3502
24644W        W40113  15.700  15.089  11.702  0.3128 -0.0245  0.1673
24645W        W40114   7.944   7.965  15.345 -0.2521  0.3029 -0.2632
24646W        W40115   5.606  14.286   0.197 -0.1879 -0.1457 -0.1850
24647W        W40116   9.079   1.294  15.269 -0.0104  0.1578 -0.0400
24648W        W40117   0.194  17.623   0.534 -0.0693 -0.1108 -0.0551
24649W        W40118   6.334   8.446  14.665  0.0050  0.2497  0.4317
24650W        W40119  14.018   2.408  13.812 -0.1410 -0.0407  0.0669
24651W        W40120  10.916  12.254  14.435  0.1689 -0.1211 -0.2758
24652W        W40121  13.533   7.349   5.886  0.0227  0.0630 -0.2320
24653W        W40122   9.277   5.636  14.483 -0.3291 -0.1467 -0.1695
24654W        W40123  16.171  14.916   1.721  0.1368  0.0470 -0.2215
24655W        W40124   7.612   9.211   3.650 -0.0124  0.1423 -0.2540
24656W        W40125   7.584  12.047   0.789  0.2626  0.2085  0.0570
24657W        W40126   2.834   3.604   1.856  0.0064 -0.0313 -0.2262
24658W        W40127  14.570   7.579  10.530 -0.0127 -0.0375  0.1531
24659W        W40128   0.478  13.492  12.438  0.3152 -0.0034 -0.5344
24660W        W40129  10.028  12.285  15.040 -0.1621  0.1539  0.2198
24661W        W40130   0.258   5.525  13.920  0.0705 -0.0599 -0.0786
24662W        W40131   9.073  16.948   0.781 -0.0769 -0.1302 -0.0026
24663W        W40132  13.135  11.660  16.070  0.0432 -0.0362  0.4860
24664W        W40133   0.793  10.574  13.702 -0.3086 -0.1075  0.0782
24665W        W40134   7.010   8.636   5.345  0.0791 -0.0580  0.0428
24666W        W40135  11.447  14.175  16.282  0.0274  0.0831  0.1120
24667W        W40136   8.163   7.770   1.748  0.1140  0.2709  0.3766
24668W        W40137  17.337   2.635   4.396 -0.1698  0.0721  0.1079
24669W        W40138  17.004  17.027  13.389  0.0892 -0.0536  0.0431
24670W        W40139   7.208   8.190   5.285  0.0333  0.1900 -0.1533
24671W        W40140  15.293   2.002  13.458  0.1722  0.0422  0.2317
24672W        W40141   5.266   1.192  15.657 -0.1014 -0.0661  0.0465
24673W        W40142   4.059  14.848  12.453 -0.0448 -0.2286 -0.1045
24674W        W40143   4.264   8.213   4.108 -0.1141 -0.3393 -0.1099
24675W        W40144   4.095  12.219   3.974  0.0246  0.0840 -0.0369
24676W        W40145  13.706  11.335  10.390 -0.1618 -0.2222 -0.0086
24677W        W40146   0.405   2.312   0.914 -0.1193 -0.1092 -0.1101
24678W        W40147  17.676  17.334  15.329 -0.0148 -0.0542  0.0953
24679W        W40148   0.049   6.657   2.061 -0.0675  0.2408 -0.0822
24680W        W40149   2.395  13.166   5.064 -0.2766  0.3960 -0.0780
24681W        W40150  16.715  13.742   4.535 -0.0364  0.0390  0.1009
24682W        W40151   0.689   6.263  12.894  0.0095 -0.1508  0.0628
24683W        W40152  14.018   6.442  12.765 -0.0055 -0.3328  0.3927
24684W        W40153   9.475  10.239  15.772  0.1149 -0.1405 -0.0474
24685W        W40154   4.255  14.872  15.103 -0.1748 -0.0462  0.1924
24686W        W40155  11.029   6.402   1.264  0.1848  0.1021 -0.1042
24687W        W40156  16.514   5.509  12.629 -0.0592 -0.1116 -0.2233
24688W        W40157   3.690   8.695   1.421  0.1394 -0.0397  0.2771
24689W        W40158  10.930   5.755   1.051  0.0597 -0.0692  0.1431
24690W        W40159  12.055   7.531  15.080 -0.0756 -0.0056 -0.1898
24691W        W40160  17.097  16.740   2.377 -0.1197  0.2080  0.1092
24692W        W40161   3.902   7.150   1.340 -0.1501 -0.1885 -0.0756
24693W        W40162   1.639   1.545   5.094 -0.2868  0.0228 -0.0604
24694W        W40163   5.598  16.555   3.354 -0.0467 -0.1678 -0.0497
24695W        W40164  16.757   2.607   1.691  0.1242 -0.0465  0.1518
24696W        W40165  11.283  12.554   0.708  0.1694  0.1368 -0.0784
24697W        W40166  13.535  16.331  13.789  0.0504  0.1384  0.0342
24698W        W40167   6.171  11.567  11.028 -0.1799  0.1412 -0.1405
24699W        W40168  18.069   9.729  12.881 -0.1563 -0.0948  0.0188
24700W        W40169   2.935  17.042  15.184 -0.1226  0.0279 -0.0540
24701W        W40170  10.146  11.376  14.629 -0.0207 -0.0494  0.2875
24702W        W40171   4.806  12.597   2.443  0.0571 -0.3055 -0.1018
24703W        W40172  15.518   2.598   4.135  0.0845  0.1216  0.0249
24704W        W40173  16.170   1.851   4.078  0.1097  0.3241  0.3516
24705W        W40174   1.566   0.531   4.897 -0.0672 -0.0750 -0.1359
24706W        W40175   0.467   8.525  16.124 -0.1739  0.1523 -0.0066
24707W        W40176  15.976  15.078  14.011  0.0810 -0.1861 -0.2356
24708W        W40177   7.559  11.233   2.003  0.0710  0.1107  0.1817
24709W        W40178   6.258   4.784   6.048 -0.0335 -0.0873 -0.1232
24710W        W40179  14.684  17.803   4.563  0.0289 -0.3693 -0.1499
24711W        W40180  14.654   0.733   3.795 -0.0855 -0.0179  0.0401
24712W        W40181   7.371   5.527   5.146  0.3974 -0.0811  0.3382
24713W        W40182  11.904   8.053   1.288  0.1011  0.0304 -0.1939
24714W        W40183  15.996   5.382  12.520 -0.4903  0.2140  0.0220
24715W        W40184   3.458   8.769  12.962 -0.0261  0.0253  0.2860
24716W        W40185   8.904  18.052  13.138  0.1982 -0.0577 -0.0146
24717W        W40186  14.340   8.167   2.850  0.0783  0.0873 -0.0572
24718W        W40187   0.455  13.458  11.713 -0.0447 -0.0310 -0.0153
24719W        W40188   5.740  15.467   3.822 -0.0038  0.1189 -0.3558
24720W        W40189   4.319   1.515  15.632 -0.1504  0.1829  0.0487
24721W        W40190  14.421   3.105  12.051 -0.1444 -0.2229 -0.0770
24722W        W40191   8.992   7.029  12.932  0.3911 -0.3260 -0.1639
24723W        W40192  12.762   8.687   3.201 -0.0451 -0.0468  0.0160
24724W        W40193   5.101   0.667  13.800  0.0796 -0.2401  0.1023
24725W        W40194   7.944   8.480  12.421  0.0224 -0.2059  0.1224
24726W        W40195  17.683   3.702  13.716  0.0283 -0.0688  0.1657
24727W        W40196  13.397  15.945  15.002 -0.2088 -0.0599  0.1956
24728W        W40197  10.628   4.891   4.461  0.0088 -0.0300 -0.1771
24729W        W40198  13.785   3.820   3.838 -0.0526  0.2958 -0.1955
24730W        W40199   0.614  12.005  12.141 -0.1424 -0.2590 -0.0115
24731W        W40200  15.596  13.641  11.553  0.3989  0.1716 -0.2329
24732W        W40201   1.441  17.282   4.038  0.1284 -0.2220 -0.0282
24733W        W40202  14.174  17.937   2.405 -0.0363  0.0022  0.0684
24734W        W40203   9.039  12.389  14.255  0.0087  0.0433  0.1837
24735W        W40204   3.802  10.436   0.621 -0.1948 -0.0824  0.1231
24736W        W40205  10.657  11.071   2.255 -0.4123  0.4158  0.2043
24737W        W40206   0.781  14.670   1.813  0.1422 -0.2917  0.1077
24738W        W40207  15.728  14.999   4.379  0.2335  0.0943  0.3267
24739W        W40208  13.818  12.424  10.916  0.0368  0.0334  0.2090
24740W        W40209  13.505   6.838  16.251 -0.0817  0.1901  0.1347
24741W        W40210  17.852  16.217   3.368  0.1578 -0.2397 -0.0377
24742W        W40211  12.293   1.015   3.527  0.0753  0.0465  0.0621
24743W        W40212  14.399   5.995  11.413  0.0277  0.0399  0.1992
24744W        W40213  12.659   4.789   3.083  0.2970 -0.2879  0.2144
24745W        W40214  13.881  11.556  12.724 -0.2224 -0.1817 -0.0760
24746W        W40215   0.987  16.893  16.025  0.2522 -0.2163 -0.0480
24747W        W40216  16.634  16.051  15.349  0.0953 -0.1394  0.5854
24748W        W40217   1.001   6.620   2.479  0.1180 -0.0577 -0.3203
24749W        W40218   1.053  11.201   4.093  0.2662 -0.0475  0.1503
24750W        W40219  10.522   6.652  11.549  0.0297 -0.3939 -0.2458
24751W        W40220   5.749   8.693  11.313  0.2834 -0.0204  0.0922
24752W        W40221   9.044  16.267  14.531 -0.1555 -0.1368  0.1441
24753W        W40222   5.147   6.179   5.605 -0.1346 -0.1897 -0.0570
24754W        W40223  17.032  15.910   2.774 -0.1261  0.1334  0.1640
24755W        W40224   7.082   4.995   4.368 -0.0054  0.2070 -0.2291
24756W        W40225   3.521   8.901  11.883 -0.0167 -0.1718 -0.2946
24757W        W40226  12.093   6.570  14.708  0.0313  0.2362 -0.3652
24758W        W40227  10.736   7.792  11.229  0.0637 -0.0269  0.1179
24759W        W40228  17.257   8.178   1.097  0.1150  0.0908  0.2097
24760W        W40229  15.968   4.107  12.131  0.1326  0.1676  0.0786
24761W        W40230   3.972   5.392  12.893 -0.0331 -0.1553 -0.1349
24762W        W40231   5.458   6.370  11.059  0.1162  0.0439  0.0452
24763W        W40232   0.428  12.512   6.226 -0.1510  0.1593 -0.0401
24764W        W40233   9.979   9.251  14.912  0.1557 -0.1175  0.0769
24765W        W40234  13.224   3.967   5.485 -0.0967 -0.0706 -0.3182
24766W        W40235   5.583   2.265   1.745  0.1108 -0.3307  0.0305
24767W        W40236  13.025   7.900  11.812 -0.1550  0.0691 -0.1474
24768W        W40237   3.506   2.298   3.435 -0.1946  0.0673 -0.1439
24769W        W40238  16.112  16.288   3.181  0.0183 -0.3760 -0.0416
24770W        W40239  16.342   4.091  14.956  0.1531 -0.1435  0.1064
24771W        W40240   1.653   3.392   4.264  0.0315  0.0709 -0.2740
24772W        W40241  17.183  17.541  12.517 -0.0186  0.0584  0.0174
24773W        W40242   0.802   5.873   1.916 -0.1312 -0.1042  0.0471
24774W        W40243  14.148   4.324   2.710  0.2193  0.1043 -0.3295
24775W        W40244   0.657  13.424   3.801  0.0376 -0.0183 -0.1196
24776W        W40245  17.393   5.706  10.837  0.0513 -0.1676 -0.1414
24777W        W40246  17.383   6.930  12.897 -0.0455 -0.1810 -0.1658
24778W        W40247  11.507   7.495  11.010 -0.0628 -0.0031 -0.0912
24779W        W40248   5.139  16.534  13.054 -0.0407 -0.1923 -0.0011
24780W        W40249   9.286   5.272   2.428  0.0297 -0.2216  0.1479
24781W        W40250  10.080   0.115  12.762 -0.3365  0.4011  0.0401
24782W        W40251  15.664   1.442  11.982 -0.2012 -0.0363 -0.4294
24783W        W40252  11.396   7.025  13.158 -0.1163  0.0989 -0.0102
24784W        W40253  15.858  14.105   4.755  0.1168 -0.0938 -0.2552
24785W        W40254   5.407  12.319   0.262 -0.0685  0.0775  0.1464
24786W        W40255  17.705   1.435  12.819  0.0341 -0.0148 -0.1408
24787W        W40256   1.219  17.856   2.365 -0.0018 -0.2866 -0.1802
24788W        W40257   7.954   7.427   0.155  0.4504  0.0630 -0.0221
24789W        W40258   8.992   0.708   1.720 -0.1083  0.1884 -0.0978
24790W        W40259   9.217   2.530   2.365 -0.0195 -0.2557  0.1070
24791W        W40260  10.927  13.019   3.224  0.3000 -0.4625 -0.1119
24792W        W40261   4.692   0.580   1.853 -0.1870 -0.0458  0.2957
24793W        W40262   8.092   6.195   5.386 -0.1444  0.0318  0.1732
24794W        W40263   0.886  14.123  15.111  0.0009 -0.1317 -0.0693
24795W        W40264   0.615  14.397  15.412 -0.1305  0.1236  0.0134
24796W        W40265   3.958  12.993   1.388 -0.0110 -0.0323 -0.1007
24797W        W40266  15.935  10.463  13.388 -0.2634 -0.3511  0.2644
24798W        W40267  16.890  15.004  11.968 -0.1946 -0.2188  0.2743
24799W        W40268   9.756   9.327   2.072 -0.0523  0.0160 -0.0583
24800W        W40269  11.798   4.182   2.654  0.0647  0.1839 -0.2747
24801W        W40270  16.449   0.030  12.459 -0.2536  0.2442 -0.0252
24802W        W40271   0.796   0.760   4.322 -0.2958  0.2464 -0.0483
24803W        W40272   3.734  14.711  14.401  0.0815 -0.4127  0.1093
24804W        W40273   6.565  14.383   4.518  0.0672  0.1739 -0.0823
24805W        W40274  15.274   1.814   2.183  0.0882  0.1380 -0.2161
24806W        W40275  12.676   9.754   5.087  0.1219  0.0407 -0.3558
24807W        W40276  15.241  10.551  14.980  0.1683 -0.1879 -0.1731
24808W        W40277  12.001  11.964   4.514  0.0762  0.2013 -0.2607
24809W        W40278   4.043  13.969   2.305  0.1384  0.1177 -0.3024
24810W        W40279   3.403   7.930  15.462  0.1081  0.2689 -0.1482
24811W        W40280  16.754  12.183   4.216  0.1749 -0.0054 -0.0425
24812W        W40281  15.695  17.173   2.709  0.3005  0.2862 -0.1727
24813W        W40282   6.977   9.161   5.109  0.1510 -0.0569  0.1192
24814W        W40283   7.811   1.076  10.974  0.0069 -0.3973  0.2259
24815W        W40284  11.417  16.780   1.109  0.0700 -0.2172  0.0674
24816W        W40285  17.646  11.309  12.480  0.1090  0.0242 -0.1046
24817W        W40286   1.511  10.184  11.514  0.0072 -0.1632  0.0911
24818W        W40287   1.711  14.998   2.360  0.3052 -0.0026 -0.1191
24819W        W40288  10.661   8.991  11.511 -0.0788 -0.2821 -0.1737
24820W        W40289  10.377   1.128  14.285  0.0164  0.2393 -0.1083
24821W        W40290  16.412   3.259  13.520 -0.1267 -0.1632 -0.0940
24822W        W40291  17.951   7.312  15.550  0.3452 -0.4679  0.2835
24823W        W40292   1.936   5.061   3.316  0.1801 -0.2735  0.0053
24824W        W40293   3.302  12.414   6.131  0.1198 -0.0562 -0.1358
24825W        W40294   4.736   8.336  11.168 -0.2189  0.1577  0.0768
24826W        W40295   2.938  14.496   2.635  0.1700  0.1955 -0.2520
24827W        W40296  15.799  17.581  15.605  0.2514 -0.1753  0.0783
24828W        W40297   2.176   5.943  12.693 -0.3145  0.2044 -0.0763
24829W        W40298   5.843   7.010  15.835 -0.0980  0.0351 -0.0511
24830W        W40299   6.762  17.313  13.255 -0.0031  0.3490  0.0859
24831W        W40300  16.509  12.738  12.219 -0.2467 -0.0783 -0.0945
24832W        W40301   7.456   3.708   3.165 -0.1767  0.3281  0.1860
24833W        W40302   9.758   8.997  12.812  0.2129 -0.0083  0.0667
24834W        W40303  17.840  17.115  12.233  0.1558  0.3235  0.0198
24835W        W40304   4.659   8.780  15.588  0.0846  0.0806 -0.0171
24836W        W40305   9.908   6.972   1.249  0.1696 -0.2435 -0.0579
24837W        W40306   3.958  11.543   4.771  0.1655 -0.1807 -0.1153
24838W        W40307  10.092   5.633   0.888  0.0786  0.0701 -0.1906
24839W        W40308   2.882  13.570  12.199 -0.1930 -0.0231 -0.1708
24840W        W40309   8.602   9.946   2.843  0.2161  0.1042 -0.0942
24841W        W40310  16.738   3.330   5.482  0.0197  0.3669 -0.3356
24842W        W40311  10.354   6.752  11.104 -0.1055 -0.0418  0.1205
24843W        W40312  14.739   9.849   0.242  0.1747 -0.0554 -0.3147
24844W        W40313  13.294  17.599   4.630 -0.3526 -0.2191 -0.1892
24845W        W40314  11.796  16.348   2.352 -0.0098  0.0824 -0.2070
24846W        W40315   2.126   7.361   3.035 -0.1749 -0.0049  0.0786
24847W        W40316   1.465   4.723  14.175  0.0789 -0.1908  0.1411
24848W        W40317   3.126  11.379   4.085  0.3381  0.0485 -0.0046
24849W        W40318  11.581  17.606  14.857 -0.4168 -0.0367  0.2147
24850W        W40319  13.722   0.112  12.944  0.1476  0.2063 -0.1814
24851W        W40320  14.697   8.413  16.065  0.0563 -0.1765 -0.0154
24852W        W40321  10.761   7.486   2.568  0.3387 -0.1139 -0.0692
24853W        W40322  15.855   8.541   4.192 -0.2238  0.0158 -0.1168
24854W        W40323  10.343  12.531   1.367 -0.4325 -0.1604  0.1278
24855W        W40324   3.241  14.148  14.674 -0.1832 -0.1598 -0.0635
24856W        W40325   7.995   2.822   0.283 -0.0514  0.3261 -0.0504
24857W        W40326   5.552   1.218  11.047 -0.0132 -0.2555  0.0677
24858W        W40327  11.758  13.574  14.835  0.2272  0.1065  0.3126
24859W        W40328  13.262   4.805   5.971  0.0007  0.0867 -0.1661
24860W        W40329   8.347   1.031  16.228 -0.0527 -0.0420 -0.1388
24861W        W40330  11.717  14.607   4.238 -0.0087  0.0152  0.0501
24862W        W40331   8.236   4.916  10.894 -0.0579 -0.0082 -0.0712
24863W        W40332   4.305   0.142  12.080  0.2238 -0.2394 -0.3429
24864W        W40333   2.230   6.597   5.257 -0.2755  0.0071  0.1623
24865W        W40334   3.650  15.081  14.686 -0.0024  0.1909  0.1780
24866W        W40335   5.846  10.063  11.079  0.0150 -0.1379  0.1294
24867W        W40336  11.016   4.273   1.402 -0.3111 -0.0678 -0.1552
24868W        W40337  12.733  10.539  15.434  0.2634 -0.2531  0.1235
24869W        W40338  13.190   6.619   4.212 -0.0570 -0.2218 -0.0059
24870W        W40339   8.796   0.889  16.252 -0.0319 -0.1661 -0.2867
24871W        W40340   0.556   5.381   5.252  0.1273  0.1760  0.1612
24872W        W40341  17.010   3.719   0.561 -0.0062 -0.0778 -0.0522
24873W        W40342  14.143  13.008  15.194 -0.0185 -0.0818  0.1535
24874W        W40343  11.928  11.380  11.198 -0.0140  0.0639  0.1035
24875W        W40344  14.402  15.527  13.073  0.3053  0.0190 -0.1323
24876W        W40345   7.848   1.042   4.142  0.0402 -0.0020  0.1138
24877W        W40346  11.287   6.084   5.429 -0.0921  0.4631  0.3068
24878W        W40347   9.241   8.484   1.940 -0.3016 -0.0810  0.3107
24879W        W40348   3.600   5.887   4.951 -0.0650 -0.4488  0.1821
24880W        W40349   1.898  14.340  12.999 -0.0483 -0.0484  0.1571
24881W        W40350   6.948  12.647  15.079  0.1286  0.0275  0.3189
24882W        W40351  15.887  10.249  12.911 -0.0551  0.0319 -0.2338
24883W        W40352   4.331   3.655   2.327 -0.2457  0.0434  0.0040
24884W        W40353  11.627  16.184  13.477 -0.0533  0.2157 -0.4961
24885W        W40354  14.381   9.078   4.943  0.0410  0.2709  0.2117
24886W        W40355  17.618   1.139  15.538  0.2187 -0.1979  0.2097
24887W        W40356   6.335   9.107   0.025  0.0000 -0.0810  0.2175
24888W        W40357  10.561   2.049  15.012 -0.2451  0.2653 -0.0946
24889W        W40358  13.604   7.011  11.490  0.0654 -0.0505 -0.1609
24890W        W40359  17.802   7.468  15.014  0.0073  0.2054 -0.3743
24891W        W40360   8.314  11.836  15.009 -0.1296  0.2452 -0.0347
24892W        W40361  17.292   2.953   4.807  0.2833  0.1003  0.1231
24893W        W40362   2.007  12.410  14.288 -0.3673  0.2472  0.0081
24894W        W40363  13.049   7.374   2.854 -0.2536 -0.2241 -0.3907
24895W        W40364   3.705  11.328  12.127  0.1666  0.0948 -0.2236
24896W        W40365  10.017  12.752   1.757  0.0449  0.0305 -0.3669
24897W        W40366   4.265   6.179   0.339 -0.0868  0.0887 -0.0094
24898W        W40367   1.016  11.284  14.944 -0.1212  0.1125  0.1706
24899W        W40368  10.143  17.137  13.667  0.1048  0.2097 -0.1644
24900W        W40369   1.221   6.831   2.899  0.0697 -0.0635 -0.2026
24901W        W40370  14.446   3.934   2.572  0.3509  0.3383  0.2820
24902W        W40371   2.073  14.243  14.389 -0.0536 -0.3002 -0.2425
24903W        W40372  15.741   6.604   2.606 -0.0863  0.0363 -0.1609
24904W        W40373   9.343   2.835   4.244 -0.0216 -0.1171  0.0285
24905W        W40374   2.838  10.975   4.457 -0.1350  0.0402  0.0958
24906W        W40375   5.512   8.106  15.532  0.1856 -0.0368  0.0583
24907W        W40376   2.115   1.409   1.752  0.2112  0.2042 -0.2234
24908W        W40377  13.517   7.432   0.460  0.0280  0.2621  0.1507
24909W        W40378   1.176  11.442   0.460 -0.0899  0.0145  0.0270
24910W        W40379   5.459   8.309   4.406  0.3640 -0.1396 -0.2973
24911W        W40380  12.321   1.170   5.884 -0.2510 -0.0635 -0.2648
24912W        W40381  17.209  15.595  15.295 -0.0120 -0.1132  0.0364
24913W        W40382   0.761  12.239  11.242 -0.1277 -0.1317  0.0493
24914W        W40383  14.619   3.692   4.837  0.2021 -0.1702 -0.1293
24915W        W40384  11.336   8.249   5.784 -0.0977  0.3342  0.2155
24916W        W40385   9.577   7.614  11.349  0.1729 -0.1873 -0.2157
24917W        W40386  12.308   8.293   3.332 -0.2122  0.0062  0.1749
24918W        W40387  12.821  14.759   0.360  0.2813  0.0387  0.2730
24919W        W40388   7.216  16.347  13.286 -0.0298 -0.3096 -0.3538
24920W        W40389   7.468  17.227  11.869  0.1757  0.0610 -0.3648
24921W        W40390   8.262   9.332   4.824 -0.0059 -0.0087 -0.0348
24922W        W40391   3.682  11.631   3.241 -0.0545  0.1826 -0.0836
24923W        W40392  17.277   8.625   5.537  0.2853  0.1824 -0.3604
24924W        W40393   4.845   1.034   1.320 -0.4896  0.0020 -0.2780
24925W        W40394   8.744   4.703  13.917 -0.1958 -0.1749  0.1174
24926W        W40395   9.357   4.500   5.706 -0.0166 -0.0593  0.2376
24927W        W40396  16.720   2.615   3.459 -0.0109 -0.0787 -0.2137
24928W        W40397  12.556   7.621  15.119 -0.1427  0.2071  0.1212
24929W        W40398   9.585   3.622   2.532 -0.0859  0.2588  0.1994
24930W        W40399  15.482   5.541   2.395  0.2469 -0.1713  0.2501
24931W        W40400   2.508  16.476   2.137  0.0395 -0.2260 -0.2423
24932W        W40401   6.499  11.572  15.426 -0.1458 -0.1630 -0.0720
24933W        W40402   6.962  17.644   0.242 -0.0016  0.0809 -0.3794
24934W        W40403   0.372  13.777  13.828  0.2544  0.3096  0.1335
24935W        W40404  11.806   8.038  14.705 -0.4105  0.0024  0.0218
24936W        W40405  16.588   1.062   2.187  0.1141 -0.1264  0.1286
24937W        W40406  16.145   0.481  13.095  0.0797 -0.0432  0.1777
24938W        W40407   7.674  16.524   2.528  0.0179  0.1748  0.0073
24939W        W40408  10.625  13.851   0.888  0.3499  0.1608 -0.2207
24940W        W40409   6.071   7.758  10.770 -0.0463  0.0976  0.2896
24941W        W40410   1.322  15.393  12.631  0.2543 -0.1141 -0.3225
24942W        W40411  14.343   8.779  11.866 -0.1132  0.2275 -0.1776
24943W        W40412  12.386  16.075   2.846  0.0284 -0.0002 -0.0000
24944W        W40413   5.983   5.974   0.017 -0.0487  0.1189 -0.2523
24945W        W40414   2.256   6.456  11.858  0.0973  0.2249 -0.3079
24946W        W40415   2.101   2.756   3.254 -0.0365  0.3434 -0.1177
24947W        W40416  12.950  13.822  11.245 -0.0833 -0.0934  0.0928
24948W        W40417   2.064   9.138  12.774 -0.2337 -0.2708 -0.0994
24949W        W40418   9.908   5.491  15.841 -0.0257  0.1976  0.3583
24950W        W40419  15.354   3.711  15.504 -0.0181 -0.1780 -0.1184
24951W        W40420   1.190  14.349   2.776 -0.0918 -0.3869 -0.0669
24952W        W40421  11.754   6.513  15.613 -0.3995 -0.3806  0.0632
24953W        W40422   4.852   8.476   4.306 -0.1134  0.1243  0.3552
24954W        W40423  10.543  16.210  14.136 -0.0208 -0.0621  0.0666
24955W        W40424  11.807  11.936  14.991  0.0811  0.0723 -0.3432
24956W        W40425   7.792   3.751   5.508 -0.0143  0.0109 -0.1596
24957W        W40426  14.322  15.967  15.131  0.4134 -0.2085 -0.0515
24958W        W40427  16.085   1.683  12.288  0.0504  0.0165  0.1332
24959W        W40428   8.808   0.166   1.528  0.1707  0.2929 -0.0585
24960W        W40429  14.424   9.789   2.020 -0.0234 -0.0644 -0.2145
24961W        W40430  17.487  14.847  15.725  0.0807 -0.1739 -0.3236
24962W        W40431  13.301  11.229   0.685  0.0936 -0.2719 -0.0636
24963W        W40432   0.156   3.971  15.519 -0.0023  0.0639 -0.0031
24964W        W40433  13.892  12.933   5.089 -0.2339 -0.2149 -0.0124
24965W        W40434  10.493   7.617  16.225  0.2106  0.1707 -0.1492
24966W        W40435  11.230   8.104  15.473 -0.0410  0.2316 -0.0784
24967W        W40436  17.653   2.894   5.770  0.3220 -0.2701 -0.1298
24968W        W40437   5.447  12.928  12.346 -0.1305 -0.1714  0.1293
24969W        W40438   1.882   3.164   3.431 -0.0628 -0.0113  0.2376
24970W        W40439  11.385  10.524  16.021  0.2078  0.1125 -0.0671
24971W        W40440  12.751  13.015  15.913  0.2838  0.0168  0.0643
24972W        W40441  10.318   7.128  11.515  0.1660 -0.0013  0.3301
24973W        W40442   9.688   9.227  13.312 -0.1437  0.1054  0.1766
24974W        W40443  12.720   5.735   0.350 -0.0147  0.2766 -0.1347
24975W        W40444   5.220  11.233   5.513  0.0874  0.4839  0.0879
24976W        W40445   7.766  15.719  16.234  0.1779  0.0898 -0.0501
24977W        W40446  11.487   6.212  15.199 -0.1221 -0.1041  0.1625
24978W        W40447  14.360   2.832  12.931 -0.0991  0.2688 -0.5038
24979W        W40448  13.817   3.909   3.335  0.1124  0.3044 -0.1741
24980W        W40449  12.209   2.718  13.074  0.0513 -0.1153 -0.0853
24981W        W40450   2.776   4.159  15.660 -0.0213  0.0930 -0.1254
24982W        W40451   6.540   3.693  12.158  0.0647  0.4470 -0.0483
24983W        W40452   8.271  10.094   0.662 -0.2296  0.0944  0.0931
24984W        W40453   0.240  14.380  13.296  0.5126 -0.1237 -0.0952
24985W        W40454  10.790   3.944  11.587  0.0863 -0.0167 -0.1741
24986W        W40455  15.327   6.952  15.693 -0.3454 -0.0501  0.0240
24987W        W40456   3.532   6.795  12.457  0.1103  0.1082  0.2340
24988W        W40457  13.578   5.852  13.796 -0.1547 -0.0597 -0.0731
24989W        W40458   5.010  17.343  14.263 -0.1108  0.3077 -0.2138
24990W        W40459   1.601   5.532   1.731 -0.0786 -0.0052 -0.0737
24991W        W40460  12.124  16.194  12.608  0.1591  0.0518  0.3875
24992W        W40461  13.599  16.292  10.836  0.0356  0.3365 -0.2252
24993W        W40462   3.593  14.588   3.638 -0.0533  0.4027  0.2694
24994W        W40463   3.844  17.858   4.921  0.4664 -0.0246  0.1149
24995W        W40464   9.601   7.478   0.103 -0.0086 -0.1502  0.0678
24996W        W40465  11.793   2.292   1.137 -0.3415  0.1663 -0.1443
24997W        W40466   3.073   7.054  14.868 -0.2349  0.3913  0.2284
24998W        W40467   1.976   5.576   4.245  0.1168 -0.0706  0.0149
24999W        W40468   9.166   4.137  11.686  0.2516  0.0241 -0.1215
25000W        W40469  13.487   5.131  15.550 -0.0814 -0.0864 -0.0479
25001W        W40470   1.175   8.446   1.960  0.4013  0.1231  0.1604
25002W        W40471   6.755   1.853  13.907 -0.3190  0.0308 -0.0207
25003W        W40472   5.788  12.055  12.624 -0.0551 -0.0139 -0.0354
25004W        W40473  13.705  15.283  11.945 -0.1662 -0.0943 -0.1795
25005W        W40474   7.417   1.604   0.066 -0.0610  0.2275  0.0073
25006W        W40475  15.496  16.429   4.891 -0.1630 -0.2608 -0.1157
25007W        W40476   0.768  16.701   3.712 -0.2599 -0.1686  0.1896
25008W        W40477   6.960   6.970  10.037  0.3274  0.1728 -0.0214
25009W        W40478   1.212  14.404  15.946 -0.2621 -0.1392  0.2388
25010W        W40479  16.169  16.393  14.602 -0.3121 -0.1101  0.0516
25011W        W40480  11.908  13.164   3.460  0.0543  0.1102  0.3308
25012W        W40481   3.530  18.091   3.682  0.1173 -0.0922  0.1858
25013W        W40482   7.324   8.123   2.970 -0.0091  0.1001 -0.0654
25014W        W40483  13.360   8.201   1.874 -0.1891  0.0505  0.1141
25015W        W40484   3.560   6.848   2.348  0.3144 -0.0042 -0.0285
25016W        W40485   9.453  15.312   2.167 -0.2124  0.0709 -0.2276
25017W        W40486  12.716  16.566  14.032  0.1016  0.0810  0.1193
25018W        W40487   5.231  15.652  15.773 -0.0878 -0.0631 -0.2512
25019W        W40488  15.806   6.834   5.987  0.3622 -0.1000 -0.1170
25020W        W40489  17.598  11.820  13.939 -0.3433 -0.0338  0.2718
25021W        W40490  11.283   4.398   0.097  0.0369 -0.2748  0.0990
25022W        W40491  10.325  10.126  12.427  0.2319  0.0476  0.0613
25023W        W40492   2.441  13.775   2.357 -0.4517 -0.0182  0.1849
25024W        W40493  18.026   9.701  11.765  0.0793 -0.1017 -0.0225
25025W        W40494  17.666   5.612  15.164 -0.0515  0.0666 -0.1663
25026W        W40495  16.410   1.306  15.791 -0.1226  0.0361  0.0399
25027W        W40496   9.587   0.237  13.675  0.1400 -0.0987 -0.0673
25028W        W40497  11.238  12.219  13.967 -0.1264  0.0898  0.0945
25029W        W40498   5.275  13.896  11.907 -0.2282 -0.0527  0.0794
25030W        W40499   2.871  16.050   5.313 -0.1099 -0.1165 -0.0310
25031W        W40500   8.718  11.899  10.973 -0.0415 -0.2308 -0.1287
25032W        W40501  16.693   1.629   0.257  0.0117  0.2247 -0.5371
25033W        W40502   6.867   7.588   3.703  0.2379  0.0640 -0.2445
25034W        W40503   3.427   6.059   4.469  0.2157 -0.0072 -0.0910
25035W        W40504  15.563   7.449   0.584 -0.2706  0.0083  0.2039
25036W        W40505   0.307   0.878   4.635 -0.1046  0.0881  0.1035
25037W        W40506  15.169   2.879   0.177 -0.0729 -0.1949  0.1531
25038W        W40507   9.383   2.133  13.905  0.0232 -0.0855  0.0475
25039W        W40508   7.367   8.911  11.997 -0.3107  0.1560 -0.1389
25040W        W40509   2.803  10.054   5.494 -0.0728 -0.0160 -0.1002
25041W        W40510   0.379   9.891   3.105  0.0544 -0.1717 -0.1321
25042W        W40511  11.082   6.166  11.552  0.2223  0.1277 -0.0868
25043W        W40512  15.338   4.119   1.030  0.3042  0.3375 -0.1313
25044W        W40513   7.886  15.560   3.278  0.0325 -0.0833 -0.1465
25045W        W40514   0.784  17.703   4.848  0.1996  0.1162 -0.2484
25046W        W40515  12.813   1.324  11.886  0.3503  0.0958  0.1336
25047W        W40516   8.664  12.405  10.852  0.0474  0.0898 -0.1977
25048W        W40517   8.942  17.747   2.641  0.1111  0.1618  0.1513
25049W        W40518   2.988  10.399   1.883 -0.0781 -0.1940 -0.1375
25050W        W40519  17.573   0.104   4.593 -0.1581 -0.1406  0.1685
25051W        W40520  17.598  14.575   1.816  0.1364  0.0003 -0.1141
25052W        W40521  16.352  16.661   3.717  0.2449 -0.1691 -0.0443
25053W        W40522  17.376  17.154  14.416  0.0566 -0.2071  0.0676
25054W        W40523   9.942  12.218   2.650 -0.0829  0.0316  0.1874
25055W        W40524  13.965   9.891  15.492  0.1258 -0.2331  0.0389
25056W        W40525   5.302  14.267  10.994  0.1567 -0.0218 -0.0190
25057W        W40526   2.361  10.317   1.331 -0.0572 -0.4348 -0.1168
25058W        W40527   3.856   3.899   0.562 -0.3799 -0.0323  0.0753
25059W        W40528  13.763  16.716   3.765  0.2941 -0.0839  0.1187
25060W        W40529  15.124  16.899  11.662 -0.0426 -0.0055 -0.2023
25061W        W40530   1.971   9.838  13.379  0.2406 -0.1154  0.1901
25062W        W40531   0.759  13.119  13.643 -0.0204 -0.1471  0.0784
25063W        W40532   8.717   1.762  15.135  0.2550 -0.1494  0.3736
25064W        W40533  14.660  15.457  10.784 -0.0625  0.0785  0.2015
25065W        W40534   2.544   3.499   2.633 -0.3108  0.1733  0.0451
25066W        W40535  14.770  12.356   0.755 -0.1031  0.0833  0.0191
25067W        W40536   5.796  11.436  14.942 -0.0947 -0.0983  0.0359
25068W        W40537   3.185   6.096   1.205 -0.1745  0.0908  0.0536
25069W        W40538  10.943   5.825   4.815  0.0283  0.3192 -0.0913
25070W        W40539  13.117  12.358  14.311 -0.0057  0.0125 -0.1524
25071W        W40540   1.792  17.892  14.796  0.2534  0.0029 -0.1182
25072W        W40541   8.270   9.275   0.051 -0.0199  0.1175  0.0955
25073W        W40542  14.667   0.269  15.064 -0.0395 -0.2231 -0.0239
25074W        W40543  13.774  10.795   2.243  0.2821 -0.0475 -0.1843
25075W        W40544   3.515  14.265  14.280 -0.0714 -0.1661 -0.0634
25076W        W40545   0.377   2.215  13.780  0.1817 -0.0489  0.0087
25077W        W40546   0.782  17.449   5.277  0.3492 -0.0862 -0.1575
25078W        W40547   5.385   1.973   2.086 -0.1016 -0.2384 -0.0311
25079W        W40548   5.948   6.186   5.032 -0.3161 -0.1294  0.3462
25080W        W40549  11.343  14.389   0.736 -0.1720 -0.1562 -0.2187
25081W        W40550   7.162   3.826   0.318  0.0082 -0.0117 -0.0617
25082W        W40551  12.027   9.114  12.482  0.1312 -0.0272 -0.1778
25083W        W40552  11.619   0.550  14.062  0.1761  0.0351 -0.2329
25084W        W40553  12.299  14.851   2.672 -0.1741  0.0480  0.1932
25085W        W40554   7.080   7.214   3.370 -0.0598 -0.0462  0.0042
25086W        W40555  14.877  11.351  10.884  0.2710 -0.0134 -0.0749
25087W        W40556   2.700   9.753  10.983  0.1513  0.0124 -0.1440
25088W        W40557   0.811   9.391   4.752  0.2803 -0.1295 -0.0584
25089W        W40558  15.828  17.840  13.360  0.1171 -0.3903 -0.0588
25090W        W40559  12.715   8.656   0.510  0.2075 -0.2920  0.0935
25091W        W40560   6.195  12.860   3.261  0.0887  0.1916 -0.2077
25092W        W40561  16.308   2.997   1.984  0.0588 -0.1444  0.0159
25093W        W40562  13.892   8.855  15.582 -0.1530  0.3492  0.2790
25094W        W40563   6.524   1.074  14.941  0.1086  0.0835  0.0841
25095W        W40564   7.682   1.215   2.785  0.0487  0.1708  0.0790
25096W        W40565  13.155   0.851   4.181  0.1077  0.0500  0.0859
25097W        W40566  12.731   9.880  16.093  0.0032  0.1060 -0.0711
25098W        W40567  15.514   0.151  12.242 -0.2015  0.0869 -0.2805
25099W        W40568   1.188  15.185   0.693 -0.1746  0.0726  0.3550
25100W        W40569  13.336  11.132   2.654  0.0410 -0.0958  0.0063
25101W        W40570  16.371   4.699   4.784  0.0925  0.2032  0.3323
25102W        W40571  10.475   8.383  13.873 -0.0302 -0.1293 -0.0306
25103W        W40572   0.569   6.505  14.741 -0.2978  0.1321  0.1006
25104W        W40573   6.002  17.176   4.920 -0.0891 -0.4302 -0.2957
25105W        W40574   9.379   4.360  16.018 -0.1067  0.3219  0.0999
25106W        W40575  11.257   1.162  12.869 -0.0480 -0.2174 -0.1496
25107W        W40576  12.730   3.497   1.001  0.0184 -0.1646  0.0471
25108W        W40577  12.838  10.891   2.653 -0.1463  0.4428  0.0875
25109W        W40578  14.337   3.710  13.091 -0.2629 -0.0557  0.0929
25110W        W40579  13.411   5.017  13.553 -0.0995 -0.1763 -0.0601
25111W        W40580  16.081   7.372   2.975 -0.1879  0.1086  0.0848
25112W        W40581   9.202   3.688   3.985 -0.1358  0.3325 -0.1249
25113W        W40582  12.582   1.179   3.052  0.0746  0.1181  0.3399
25114W        W40583   0.126   7.254  16.066 -0.3451 -0.0647  0.0232
25115W        W40584   0.874   2.550  15.226 -0.0295 -0.1737 -0.1046
25116W        W40585   6.389   9.324  12.299  0.1870 -0.2218  0.3265
25117W        W40586   7.689   8.226  13.281 -0.0342 -0.0708  0.2801
25118W        W40587  10.872   0.755   1.806  0.3656  0.0629  0.0972
25119W        W40588  14.324   8.601  12.525 -0.1554 -0.2072 -0.0963
25120W        W40589   1.292  15.268   2.085 -0.0332 -0.1346  0.1643
25121W        W40590   5.291   4.357   0.853  0.0917 -0.1055  0.0426
25122W        W40591   7.281   6.403   1.193  0.1438  0.1629  0.5028
25123W        W40592   2.389  10.053   4.112 -0.4139  0.1113  0.0281
25124W        W40593  14.933   4.350  11.466 -0.0812  0.0349  0.3586
25125W        W40594   0.009   4.364   5.334  0.3190 -0.0910  0.2076
25126W        W40595  14.360  14.859  11.588 -0.2304  0.0280  0.2110
25127W        W40596   1.772  17.699   3.102  0.1592 -0.1072  0.3047
25128W        W40597  14.337   1.900   2.367  0.2510 -0.2566  0.3926
25129W        W40598  14.413   3.834   1.530 -0.1714 -0.0368 -0.0230
25130W        W40599   5.721  11.468  14.111  0.2504 -0.0141  0.1692
25131W        W40600  12.340   8.298  13.511  0.1251 -0.0905  0.1016
25132W        W40601  10.419  10.299  11.371  0.0587  0.1706 -0.4490
25133W        W40602  15.561   7.389  12.741  0.2788  0.3604  0.1275
25134W        W40603  11.385  16.025   5.535 -0.0582 -0.0381  0.1290
25135W        W40604   4.117   5.106  13.782  0.2437 -0.0810  0.5455
25136W        W40605  12.153   3.448  11.895  0.0117 -0.0246 -0.1439
25137W        W40606   6.864   8.732   4.461 -0.2990  0.4328  0.3731
25138W        W40607  12.135   4.644   5.804  0.3874  0.1011 -0.0099
25139W        W40608   8.776  14.488   0.553 -0.2044 -0.2468 -0.2814
25140W        W40609  14.888  16.057   1.665  0.0746  0.0163  0.1051
25141W        W40610   4.891   6.323  12.909  0.0733 -0.1090  0.0189
25142W        W40611  14.764   7.820  15.388  0.0067  0.2547  0.1523
25143W        W40612   0.191  12.762   4.887 -0.1657  0.0145  0.0134
25144W        W40613   0.859   5.167  12.702  0.0058 -0.1531 -0.1131
25145W        W40614  12.739   4.223  11.528  0.0573  0.0127  0.0892
25146W        W40615  11.372   0.055   5.496  0.0255  0.2305 -0.1344
25147W        W40616   0.321   9.932  14.059 -0.0398 -0.0043 -0.4477
25148W        W40617  16.840   6.283   0.173 -0.2860 -0.0174  0.1825
25149W        W40618   3.842   9.375   3.136 -0.0450  0.3613  0.2272
25150W        W40619   6.996   1.001  15.548  0.0024 -0.1171 -0.0765
25151W        W40620   5.432   3.721  12.366  0.0726 -0.0243  0.2282
25152W        W40621   4.208   5.969  13.607 -0.0944  0.0273  0.0883
25153W        W40622   4.517  10.631  14.783  0.1035 -0.0089  0.2428
25154W        W40623  14.499   7.202  13.466  0.0838  0.0076 -0.0773
25155W        W40624   4.149   2.245   4.652 -0.5654 -0.1099 -0.2350
25156W        W40625  13.693  15.934  13.131 -0.0757  0.4317  0.0937
25157W        W40626   0.258   4.448  10.645  0.1679 -0.4039 -0.5549
25158W        W40627   8.079   5.089   5.445 -0.1329  0.1161  0.3252
25159W        W40628   1.813   2.658  11.942 -0.0921  0.0013 -0.0308
25160W        W40629   0.442  15.012   4.705  0.2651 -0.1542  0.1972
25161W        W40630  17.369   0.948   3.885  0.1047 -0.0636 -0.2410
25162W        W40631   5.040  14.426  15.874  0.1415  0.3166  0.1137
25163W        W40632  10.549  16.853  13.467 -0.1187  0.0622  0.3737
25164W        W40633   1.237  16.685   4.035  0.2947  0.3052  0.0216
25165W        W40634   7.213   8.312  15.933 -0.0249  0.3355 -0.2456
25166W        W40635   8.538   1.055  14.035 -0.1288  0.1948  0.0324
25167W        W40636  14.364  15.704  12.604 -0.3206 -0.1213 -0.3126
25168W        W40637  15.717   8.042   0.059 -0.0076  0.1471 -0.2284
25169W        W40638  12.951   9.913  13.717  0.0374 -0.0827 -0.0460
25170W        W40639   9.973   5.412   3.375 -0.2950  0.0519  0.0709
25171W        W40640   2.088   3.605  10.824  0.1146  0.0548  0.1648
25172W        W40641  16.213   2.231   5.101 -0.0817  0.2679  0.1866
25173W        W40642  13.867  11.687  15.230  0.1949 -0.2818 -0.1667
25174W        W40643  17.995   5.592  16.116  0.0141  0.0206 -0.2982
25175W        W40644  16.484  14.889  16.114 -0.0644  0.1365  0.4011
25176W        W40645  11.078  11.617  14.158 -0.0525  0.1067 -0.2245
25177W        W40646   7.355  12.499  12.298 -0.1711  0.2065  0.3186
25178W        W40647   8.830   8.906  11.968  0.1409  0.2107  0.1368
25179W        W40648   5.367   5.868   1.942  0.4407  0.0329  0.1531
25180W        W40649   6.559  11.957   0.453 -0.0727  0.0137  0.1274
25181W        W40650  15.088   1.157   3.382 -0.1131  0.2750  0.1387
25182W        W40651   5.193   9.557   0.816 -0.0025 -0.0082 -0.0910
25183W        W40652  17.843   8.954  16.082  0.0416 -0.0193 -0.3282
25184W        W40653   5.482  14.688  12.492 -0.2458  0.0313  0.0799
25185W        W40654  10.452  11.751   5.262  0.0622  0.0425 -0.2409
25186W        W40655   6.615  11.447  11.921  0.5520 -0.0416  0.1259
25187W        W40656   7.085  16.674   1.394 -0.1324  0.0982  0.2894
25188W        W40657   4.308   6.363   2.718  0.1029 -0.0449  0.0188
25189W        W40658  17.598  17.486  16.155  0.1917 -0.1547 -0.1056
25190W        W40659   3.251  10.845  15.637 -0.0662 -0.1031 -0.0729
25191W        W40660   8.420  11.831   2.465  0.3956  0.2040 -0.0219
25192W        W40661   0.526   8.965   1.618  0.3789 -0.1776  0.0031
25193W        W40662   4.734  11.215   4.244 -0.2308 -0.2734  0.1794
25194W        W40663   1.907  10.166  14.927 -0.0361  0.0843  0.1502
25195W        W40664  17.305   5.148   2.766 -0.1090 -0.0967 -0.2021
25196W        W40665  17.431   2.091   2.051 -0.2567  0.0402  0.3226
25197W        W40666   4.198   7.904   1.639 -0.0190 -0.0806 -0.3217
25198W        W40667   4.926  16.984  15.560 -0.0156 -0.2664 -0.1098
25199W        W40668  16.095   0.660  11.421 -0.4457  0.0746 -0.1489
25200W        W40669  10.989  16.409   0.318 -0.0617 -0.1846  0.1535
25201W        W40670   8.794   8.782   4.917 -0.3769  0.5890 -0.0240
25202W        W40671  14.684  12.692  11.384 -0.0305 -0.3615 -0.0769
25203W        W40672   1.271  16.519  11.364 -0.2497  0.2276  0.2975
25204W        W40673   0.422  12.700  11.066  0.1941  0.1253  0.1196
25205W        W40674   3.220   5.224   0.006 -0.0159  0.2058 -0.0886
25206W        W40675  17.602   5.161   3.981 -0.0646 -0.1722  0.0474
25207W        W40676  13.716   1.973  12.722  0.3610  0.1944 -0.3945
25208W        W40677   9.294  12.299   0.860  0.0747 -0.1729  0.0104
25209W        W40678  11.572   3.760   5.722 -0.2611  0.0887  0.0821
25210W        W40679   2.739   4.058  15.121  0.1971 -0.1038  0.2206
25211W        W40680   1.802  17.170  16.206  0.2023  0.0872 -0.0888
25212W        W40681   3.548   3.173  11.544 -0.1339 -0.1944  0.0419
25213W        W40682   0.005   7.762  13.668  0.1525 -0.0088  0.1204
25214W        W40683  15.582   6.747  14.812  0.3176  0.0649  0.1903
25215W        W40684  15.507   8.121  11.154  0.0510 -0.3002  0.2440
25216W        W40685   8.944  17.983   0.681  0.1047  0.3862  0.2415
25217W        W40686  16.682   0.667  11.114 -0.1107 -0.1785 -0.0287
25218W        W40687   2.871   5.209  13.259 -0.2269 -0.0023  0.0136
25219W        W40688  10.594   7.615   3.688  0.2973  0.1114 -0.0872
25220W        W40689  10.875  13.946  15.870 -0.3106 -0.1158  0.1891
25221W        W40690   0.355  10.680   4.309  0.3415  0.2759  0.1308
25222W        W40691   5.603  11.947   1.613 -0.1034 -0.1741 -0.1774
25223W        W40692  14.335   7.974  14.729 -0.0772 -0.2034  0.0313
25224W        W40693  16.797   5.787  11.613 -0.0825 -0.1600 -0.0817
25225W        W40694   8.421  16.438   4.751 -0.0830 -0.0214 -0.0956
25226W        W40695   4.758   4.748  12.993 -0.0188 -0.1338  0.1924
25227W        W40696  16.088   6.741   1.115  0.3138  0.0919  0.2742
25228W        W40697  15.985  11.824  11.773  0.2885 -0.0447  0.1971
25229W        W40698   5.120   9.413   2.927  0.0335 -0.0307  0.0580
25230W        W40699  11.327   4.021  16.097 -0.0722 -0.1725 -0.0964
25231W        W40700   3.800  14.180   4.354 -0.1252 -0.0103  0.1178
25232W        W40701   6.608  14.813  12.375  0.2046  0.2271  0.0285
25233W        W40702   5.703  14.462   3.327  0.3217 -0.0815 -0.2068
25234W        W40703  16.338  16.564   1.614 -0.1729 -0.1783 -0.0776
25235W        W40704   5.338   9.185  11.849 -0.0597  0.1827 -0.0221
25236W        W40705  11.728  11.911  14.446 -0.2162  0.0900  0.0436
25237W        W40706  14.014  11.765   1.112 -0.0205  0.3527  0.0832
25238W        W40707  14.070   8.652   6.224  0.0668  0.3576  0.2254
25239W        W40708   1.446  16.218  13.009  0.1673  0.0308  0.1292
25240W        W40709   5.042   5.757   0.112 -0.0815 -0.2603  0.1943
25241W        W40710   1.340   1.942  13.001  0.2092  0.0979  0.0657
25242W        W40711  14.846   8.100  14.227 -0.0372  0.0206 -0.0959
25243W        W40712  10.351  14.929  13.683  0.1064  0.3183 -0.0849
25244W        W40713  16.077   5.092   2.529 -0.1187 -0.4846  0.2279
25245W        W40714  11.913   8.905   5.498 -0.4499 -0.0184  0.2934
25246W        W40715  17.701  13.598   1.856  0.2435  0.1609  0.1381
25247W        W40716  11.833  16.861  13.903 -0.0074  0.1642 -0.0079
25248W        W40717  15.918   0.714   4.988  0.1066  0.0325 -0.0441
25249W        W40718  14.697   2.360  14.148 -0.2094  0.3179  0.3201
25250W        W40719  11.006  13.438   0.814  0.0500 -0.0573 -0.0153
25251W        W40720  17.020  14.094  13.566 -0.0263 -0.0989  0.0448
25252W        W40721   4.168   1.700  11.711  0.0302 -0.0572 -0.1277
25253W        W40722   2.368  15.741  10.962  0.0051 -0.1699  0.0795
25254W        W40723   5.881  11.039   3.989 -0.0876  0.3315  0.0010
25255W        W40724   9.054  11.490   4.475 -0.1284  0.1557 -0.1758
25256W        W40725   6.832  13.143  12.713  0.0900 -0.3333  0.3033
25257W        W40726  14.127   2.301  12.191  0.0341  0.1792 -0.0279
25258W        W40727  12.998   7.416  11.767 -0.3015 -0.0577 -0.0761
25259W        W40728   5.202  13.462   2.017  0.1542 -0.1402  0.0603
25260W        W40729   0.831  15.926  12.860  0.0237 -0.3101 -0.2432
25261W        W40730   8.993  14.230   4.071 -0.2339 -0.1074  0.0021
25262W        W40731  12.249  10.403   4.529 -0.1773  0.1190 -0.1572
25263W        W40732   0.429  15.991   3.864 -0.1142 -0.2849 -0.4371
25264W        W40733  17.795   0.091   1.678  0.0086  0.3994  0.3855
25265W        W40734  15.610  16.271  14.909 -0.2682  0.0698 -0.1784
25266W        W40735  15.553   4.826   3.081  0.0975 -0.1658  0.3025
25267W        W40736  13.836   4.201   4.894 -0.2130 -0.0990  0.0237
25268W        W40737   8.315  17.505  13.562  0.1079  0.0603 -0.0065
25269W        W40738   1.812  11.203   5.535  0.3529  0.1826 -0.5792
25270W        W40739   3.463   7.607  13.839 -0.1112  0.0424 -0.1961
25271W        W40740  10.629  14.513   3.122 -0.0894  0.0451  0.1726
25272W        W40741  15.890   6.233  13.963 -0.0537  0.0314  0.3035
25273W        W40742  16.878   7.303  14.821 -0.1210 -0.1337 -0.0604
25274W        W40743   5.219  13.427  11.599  0.0565  0.0418 -0.1941
25275W        W40744   9.099  10.545  12.709  0.0666 -0.0612  0.3318
25276W        W40745   6.696   4.266  16.178 -0.0145  0.0394 -0.0746
25277W        W40746   9.915   1.072   2.574 -0.1336  0.1519 -0.4746
25278W        W40747   1.754   4.536   3.157  0.3000 -0.0221  0.1603
25279W        W40748   2.234  17.803  14.443 -0.1241  0.0012 -0.1514
25280W        W40749  15.083  16.740  13.776  0.2059 -0.1974 -0.0222
25281W        W40750   6.221  15.226  10.939  0.2757 -0.0132  0.0466
25282W        W40751   1.255  16.751   5.044 -0.1732 -0.0163  0.0196
25283W        W40752   1.704   9.152   0.985 -0.3501 -0.1646 -0.2170
25284W        W40753  16.023   2.800  13.498  0.0374  0.0470  0.2741
25285W        W40754   6.817  11.157  12.301  0.2160 -0.2172  0.3018
25286W        W40755   9.179  10.091  16.241  0.0192 -0.1032 -0.3087
25287W        W40756  15.286  11.213  14.285  0.2354  0.1057 -0.0558
25288W        W40757  14.496   5.652   0.693 -0.0480 -0.0336  0.2097
25289W        W40758  14.654  12.340   5.056  0.1123  0.0349 -0.0184
25290W        W40759   2.838   7.178  15.740 -0.0518 -0.1421 -0.0211
25291W        W40760  16.727  15.834  12.018 -0.4111 -0.0068  0.0493
25292W        W40761   8.506  16.598   5.596  0.1411  0.0957  0.0451
25293W        W40762  15.395  16.687  14.163  0.1200  0.0930 -0.1028
25294W        W40763   5.002  17.321  12.513 -0.0885 -0.1380 -0.0301
25295W        W40764   9.812  10.174  15.339  0.3436  0.1207  0.2016
25296W        W40765  15.032  12.497  14.493 -0.1941  0.0608  0.0047
25297W        W40766  11.332   9.801   2.027 -0.3555  0.4095  0.0383
25298W        W40767  14.891   9.510   1.360 -0.1244 -0.1252 -0.0696
25299W        W40768   7.332   3.029   1.910  0.1918  0.1211  0.0715
25300W        W40769  13.487   8.563   1.637  0.1438  0.2215  0.5673
25301W        W40770  14.692   1.670  16.017  0.1230 -0.0267  0.0414
25302W        W40771   9.067  13.018  12.508  0.0316 -0.0585 -0.1305
25303W        W40772   5.495  12.690  13.526  0.4619  0.2362 -0.0118
25304W        W40773   0.381   5.367   4.506 -0.0368  0.2065  0.1707
25305W        W40774   1.470  12.143   4.178 -0.1916 -0.0239  0.0385
25306W        W40775   4.754   8.805   4.871  0.1222  0.0008 -0.0380
25307W        W40776   9.821   1.630   3.592  0.2996  0.2463  0.1084
25308W        W40777   7.099   2.805  11.233  0.4157 -0.1392  0.1060
25309W        W40778   6.184  12.796  13.050 -0.1463  0.1370  0.0601
25310W        W40779   2.284   5.256  13.345 -0.0247  0.0158 -0.1143
25311W        W40780   8.182  12.127   3.906 -0.3783  0.0343  0.1733
25312W        W40781  12.616  12.776  12.851 -0.0035  0.1814 -0.1273
25313W        W40782  12.044   0.687   0.759 -0.0317  0.1829 -0.2843
25314W        W40783  15.184  13.548  11.180  0.1731 -0.0515 -0.0557
25315W        W40784   2.142  14.663  13.418  0.1709  0.0599 -0.1448
25316W        W40785   3.349   7.877  12.128 -0.1407 -0.1577  0.2719
25317W        W40786  17.614  17.364   5.628 -0.3013 -0.0987  0.2632
25318W        W40787  15.614   1.370   1.173  0.0125 -0.1853 -0.0692
25319W        W40788  11.154  13.856  15.334 -0.2357  0.2222 -0.1979
25320W        W40789   5.896  11.004   1.325  0.1243  0.0738  0.0066
25321W        W40790  17.003  15.496   4.535  0.1521  0.1716  0.2190
25322W        W40791  16.271  18.083  12.963 -0.1132  0.2587  0.2133
25323W        W40792   0.171   3.396  16.294  0.0338 -0.1944 -0.4044
25324W        W40793  13.256  13.996  15.713  0.0863  0.0186 -0.0433
25325W        W40794   3.308   2.079   4.517  0.0310  0.1346 -0.2227
25326W        W40795  14.103   5.598  15.099  0.0106 -0.1717  0.2581
25327W        W40796   8.165  10.486   2.544  0.0234 -0.0153 -0.1743
25328W        W40797  14.697   1.564  13.492  0.2471 -0.0685  0.1797
25329W        W40798  10.936   6.823  15.849 -0.2614 -0.1371 -0.0390
25330W        W40799   1.283   2.224   3.447 -0.2669 -0.0093  0.0108
25331W        W40800   3.943  13.788   3.441 -0.0237  0.1881 -0.2594
25332W        W40801   0.563  15.249  11.747  0.0044  0.2851  0.1873
25333W        W40802  13.538   4.553  15.544 -0.1204 -0.0911  0.1153
25334W        W40803  11.036   0.702   3.243  0.0230  0.2050  0.1317
25335W        W40804   0.337  14.780   3.298 -0.1668  0.0078 -0.0275
25336W        W40805   7.666  15.233   0.136 -0.0828  0.2067  0.1107
25337W        W40806   7.342   3.358  14.459 -0.1987 -0.3005  0.1495
25338W        W40807   9.688  13.560  14.557 -0.0949  0.1041 -0.1055
25339W        W40808   6.616  15.333   1.732 -0.0919  0.2686  0.1806
25340W        W40809   2.441   6.617   0.910  0.0235  0.0778 -0.0629
25341W        W40810  12.521  16.156   5.658 -0.3325 -0.0640  0.0990
25342W        W40811   0.664   2.152  14.760 -0.0254 -0.0696  0.0022
25343W        W40812  12.441   2.651  12.140 -0.1398  0.1206 -0.0300
25344W        W40813   2.284   4.917   1.710  0.1423  0.2692  0.1083
25345W        W40814   4.488  15.587   0.921 -0.2648  0.0090  0.2055
25346W        W40815  17.266  16.153  10.304 -0.1052  0.2617  0.2079
25347W        W40816   2.104  13.365  16.157 -0.0572  0.1207 -0.0405
25348W        W40817   3.900   2.700   4.929  0.0100 -0.0620 -0.2006
25349W        W40818  11.852  13.905  16.047 -0.4026  0.1669 -0.1913
25350W        W40819   4.049  17.292   0.284 -0.2394 -0.1727  0.1728
25351W        W40820   3.313   2.433   1.410 -0.0090 -0.0776  0.2015
25352W        W40821   3.657   1.615  15.606  0.1324  0.7231 -0.0766
25353W        W40822  14.260  16.725  15.006  0.1526 -0.0399 -0.0698
25354W        W40823   7.991  12.244  14.184  0.3483  0.2217 -0.0639
25355W        W40824  16.263   3.703   2.663 -0.0214 -0.3294  0.0530
25356W        W40825   4.073   3.007   3.024  0.0860 -0.2001  0.0944
25357W        W40826   3.067   2.666   0.962 -0.2568  0.1460  0.0339
25358W        W40827   3.011  11.418   1.009 -0.1557  0.2624 -0.2924
25359W        W40828  11.833  14.956  10.610  0.1484 -0.2389 -0.0475
25360W        W40829   8.226   0.455  13.614  0.1926 -0.0064 -0.1187
25361W        W40830   7.170   2.698   0.422 -0.2303  0.3025 -0.3949
25362W        W40831  17.445  17.077  11.214  0.2760 -0.2217 -0.0345
25363W        W40832   2.203   2.836  15.290  0.1031  0.0169 -0.0528
25364W        W40833   3.185   5.297  14.757 -0.0888 -0.1760  0.1778
25365W        W40834  16.010   9.327  12.831 -0.2686 -0.3089  0.0050
25366W        W40835  12.347   4.675   4.527  0.1567 -0.0065  0.1560
25367W        W40836   4.718   0.201  12.390  0.1589 -0.1032  0.0593
25368W        W40837  17.268   6.123   2.937  0.0201 -0.3683 -0.0873
25369W        W40838  16.419   5.631   2.239 -0.3351 -0.1893  0.0565
25370W        W40839  15.019  16.003  13.330  0.2005 -0.2308  0.0103
25371W        W40840  17.016   9.308   5.452  0.2025 -0.1575  0.1552
25372W        W40841   0.622   5.997   5.853 -0.4410  0.1476 -0.1606
25373W        W40842  11.303  13.209  15.668 -0.1131 -0.1702 -0.1174
25374W        W40843   5.664   3.374  11.922 -0.0123 -0.1028  0.0406
25375W        W40844   7.693   7.006   0.680 -0.0988  0.1676 -0.2382
25376W        W40845   6.932  14.179  13.879 -0.1135  0.0292 -0.1628
25377W        W40846  17.297  12.273  14.644 -0.2366 -0.0886  0.0542
25378W        W40847  15.522   4.312   6.220 -0.0790  0.1843 -0.1300
25379W        W40848   4.546  17.179   4.785 -0.0429 -0.0447 -0.1891
25380W        W40849  14.301  15.130  15.673 -0.0415  0.3518  0.0349
25381W        W40850   1.043   5.572   3.732 -0.2235  0.0911  0.3174
25382W        W40851  12.516  14.211   3.786  0.1367 -0.0383 -0.3071
25383W        W40852   3.110   0.903  12.238  0.1067 -0.1455  0.1156
25384W        W40853  11.590  10.645  11.364 -0.2594 -0.1999 -0.1007
25385W        W40854   4.552  12.633   5.204  0.0214 -0.0162 -0.0206
25386W        W40855   5.763   9.851   3.423  0.4093  0.1911 -0.1307
25387W        W40856  14.748   3.340   0.374  0.0243 -0.1424  0.3152
25388W        W40857   2.155   2.211   5.923 -0.3135  0.3866 -0.2230
25389W        W40858  12.238  11.734   5.081  0.0818 -0.2176  0.0662
25390W        W40859  10.278  15.434   3.729  0.1724 -0.2273 -0.0104
25391W        W40860   8.963  12.283   0.157  0.0146  0.1362 -0.1465
25392W        W40861   5.650   2.960  14.665 -0.2654  0.1493 -0.0803
25393W        W40862  17.032  11.548   1.344  0.0744  0.1698 -0.1341
25394W        W40863   1.852   7.232   0.925  0.0237 -0.0831 -0.0445
25395W        W40864   2.668   3.995  14.432 -0.0180  0.1362  0.3046
25396W        W40865  17.997  18.048   3.862 -0.0575  0.0372 -0.3237
25397W        W40866  10.354   0.757  13.912 -0.1753  0.0896 -0.1536
25398W        W40867  10.327   4.685   0.586 -0.0279 -0.0536 -0.0828
25399W        W40868   8.712  16.764   1.325 -0.0501 -0.0267  0.0024
25400W        W40869  12.041   2.149   5.822  0.1501  0.0481 -0.0874
25401W        W40870   1.094  14.670  12.138  0.0473  0.2048  0.1375
25402W        W40871  16.003  13.856  11.335  0.2815  0.1228  0.2397
25403W        W40872  17.953  14.843  11.293  0.0565  0.2229  0.3448
25404W        W40873  10.945   9.821   4.889  0.1924 -0.1283  0.0450
25405W        W40874   6.137   1.294   4.652 -0.0585 -0.2302  0.0061
25406W        W40875  14.982   3.721  15.937 -0.1203  0.3287 -0.0735
25407W        W40876  17.383  10.023   5.681 -0.0087 -0.0868 -0.1270
25408W        W40877  10.019  17.174  14.722  0.0642 -0.1604 -0.0284
25409W        W40878  16.059   7.216   5.843 -0.0310  0.1378 -0.1536
25410W        W40879  14.067   2.333   2.277  0.3061  0.0556 -0.0939
25411W        W40880   1.943  10.518   0.002 -0.2529 -0.2500  0.1740
25412W        W40881  14.743  16.621   1.252  0.2542 -0.1301 -0.3386
25413W        W40882  11.859  14.985   2.455 -0.2876 -0.1321 -0.2690
25414W        W40883   3.048  11.407   0.063  0.0790  0.0714 -0.3074
25415W        W40884   5.254  17.713   4.919  0.1417  0.2294 -0.0508
25416W        W40885   5.778  10.064  16.180 -0.3635  0.3833 -0.0544
25417W        W40886   2.964   1.230   0.724  0.2172 -0.1366  0.1960
25418W        W40887  13.397   8.153  13.421  0.2009 -0.1582 -0.0313
25419W        W40888  14.246  16.543   3.915 -0.2302 -0.0227  0.0176
25420W        W40889   9.713   2.913  11.293  0.1995  0.0890 -0.1133
25421W        W40890  15.379   6.316   2.444 -0.0560  0.2677 -0.0399
25422W        W40891  17.767   0.415  12.428  0.0524  0.0506 -0.0856
25423W        W40892   2.172   1.734  14.956  0.3178  0.1114  0.1464
25424W        W40893   0.817  12.126  14.620 -0.0587  0.1470  0.0754
25425W        W40894   7.344  13.961  15.182 -0.2190 -0.1506 -0.0495
25426W        W40895   7.818  17.407   4.118 -0.0502 -0.4608 -0.0184
25427W        W40896  14.596  16.307  15.934 -0.0162 -0.1190  0.0303
25428W        W40897   5.003   4.133  13.631  0.2794  0.2670 -0.3504
25429W        W40898  15.537  11.264  12.219 -0.1952 -0.3130 -0.1968
25430W        W40899  15.561   5.172   1.992  0.2174  0.0224 -0.0182
25431W        W40900  12.930   3.088  12.924 -0.0303  0.0536 -0.2500
25432W        W40901   5.513   4.575  13.691 -0.2987 -0.1844  0.0656
25433W        W40902   6.435  12.035  11.277 -0.1854 -0.0456  0.2645
25434W        W40903  11.104   0.245   0.092  0.2055  0.0978  0.3243
25435W        W40904   6.965   3.977  12.414 -0.0459  0.2678 -0.2360
25436W        W40905   5.572  12.289   3.942 -0.2063 -0.4950  0.1990
25437W        W40906   3.586   4.797  11.137 -0.1885  0.2294 -0.4008
25438W        W40907   4.080   6.326   2.271  0.0785  0.2486 -0.1611
25439W        W40908   1.698   2.047  14.274 -0.2334  0.2072 -0.3752
25440W        W40909  13.513   9.226   5.822  0.0177  0.0447 -0.0227
25441W        W40910  14.828   0.434  16.084 -0.0392  0.0921 -0.0689
25442W        W40911   3.719   5.406  11.689  0.1943  0.3715 -0.0334
25443W        W40912   5.743   7.394  16.083 -0.1114 -0.1254  0.1393
25444W        W40913   3.597   2.994  12.078  0.0263 -0.2177  0.2501
25445W        W40914   9.095  13.606  11.610  0.3033  0.0618  0.0743
25446W        W40915   5.454  17.130   5.575  0.2761  0.0283  0.4252
25447W        W40916  16.242   1.255   1.844 -0.0353 -0.0226 -0.3777
25448W        W40917  12.905   1.795   3.825  0.0119  0.1057  0.0963
25449W        W40918  10.841  10.306  15.289  0.2218 -0.1909  0.3672
25450W        W40919  12.138   1.385  12.996  0.0548  0.0489  0.2060
25451W        W40920   8.819  17.840   4.493  0.1306  0.0973 -0.2046
25452W        W40921   9.414  12.951  10.964 -0.1226  0.2643 -0.2443
25453W        W40922  10.244   0.251  14.603 -0.3003  0.1783 -0.3760
25454W        W40923   1.160  12.396   1.605  0.0506  0.0689  0.1445
25455W        W40924   4.130   4.992   0.265 -0.3529  0.1939 -0.0972
25456W        W40925   7.222  11.680  16.172  0.1378  0.0260  0.1768
25457W        W40926  17.379   3.470  14.172 -0.1350 -0.2452 -0.2527
25458W        W40927   8.632   5.442   3.513 -0.1967  0.2656  0.0512
25459W        W40928  17.807  17.180   1.631 -0.1727 -0.0320 -0.0694
25460W        W40929  11.519  10.046  15.855 -0.0836 -0.1137  0.4439
25461W        W40930  12.933  10.086   3.113 -0.1716 -0.1882  0.2433
25462W        W40931  17.483   3.816   1.571  0.1659 -0.1418 -0.1991
25463W        W40932   7.088   7.184  13.496  0.2103  0.0861  0.1551
25464W        W40933  17.375   2.718   1.414 -0.0675 -0.2770 -0.0379
25465W        W40934   5.723   4.016   4.730 -0.1890  0.2848  0.2924
25466W        W40935  14.827   1.925   2.542 -0.0150 -0.3476 -0.3017
25467W        W40936  11.673   3.862   3.023 -0.1177  0.1192 -0.1555
25468W        W40937  13.700   0.054  11.893  0.0429 -0.2055  0.0737
25469W        W40938  17.601  13.072   2.977  0.1064  0.2592  0.0031
25470W        W40939   2.748  10.928   3.914 -0.1880 -0.0927 -0.0318
25471W        W40940  10.680   4.436  12.200  0.2327 -0.1550  0.2154
25472W        W40941   5.112  10.918   0.988 -0.3620  0.0331 -0.1142
25473W        W40942   8.204   5.957   1.770 -0.0138 -0.0199 -0.1685
25474W        W40943   7.985  16.585  15.112  0.0925  0.1469  0.1468
25475W        W40944   3.163  11.465  12.728 -0.0043  0.1422 -0.2510
25476W        W40945  11.463   9.167   4.236 -0.2690  0.0309 -0.2924
25477W        W40946  16.993  15.100  15.334 -0.2913  0.3196  0.0542
25478W        W40947  13.252   6.920   5.517  0.1965  0.0564  0.0776
25479W        W40948  14.747   6.545  16.000 -0.0009 -0.2060  0.4457
25480W        W40949   0.483   3.006  14.164  0.3938 -0.3043  0.1049
25481W        W40950   5.757  10.290  11.637 -0.1630  0.1121 -0.1665
25482W        W40951  12.496  16.384  14.899 -0.1656 -0.0932  0.0931
25483W        W40952   9.564   4.474  11.690 -0.0602  0.2547  0.0442
25484W        W40953  12.972  15.441   2.376 -0.1689 -0.0702  0.2451
25485W        W40954  11.958   0.797   0.236 -0.0620 -0.0131  0.1218
25486W        W40955  14.754   7.131   4.343  0.0881  0.1433 -0.2905
25487W        W40956  11.497  10.128  11.267  0.1168 -0.1824 -0.1498
25488W        W40957  17.719   1.874  16.251 -0.2855 -0.0643 -0.0564
25489W        W40958  14.075  11.493  11.227  0.1013 -0.0100 -0.0548
25490W        W40959  13.348   7.239  11.102 -0.0759  0.2957 -0.1349
25491W        W40960   2.148   0.758  12.075  0.0580  0.1891 -0.0866
25492W        W40961   2.760  16.226  11.173 -0.0104  0.1254 -0.0336
25493W        W40962   9.708   8.060   4.634 -0.4136  0.0871 -0.0663
25494W        W40963   2.545   1.524   3.994  0.0989  0.4435  0.0675
25495W        W40964   8.697  16.747  13.276  0.2354 -0.3381 -0.1852
25496W        W40965   2.035  12.510  15.545 -0.1219  0.0363  0.2527
25497W        W40966   2.391  11.129  10.978 -0.1876  0.0404  0.2765
25498W        W40967  10.814   8.105  11.646  0.1097  0.0837  0.1675
25499W        W40968   8.682  12.725   1.943 -0.2455  0.1342 -0.0541
25500W        W40969  15.268  14.730   2.489 -0.0850 -0.2025 -0.1321
25501W        W40970  13.899   8.861   1.717 -0.1196 -0.0409  0.0118
25502W        W40971  15.112   3.670   2.081  0.1980 -0.1951 -0.0945
25503W        W40972   4.043   9.394  12.483 -0.1415 -0.3679  0.1012
25504W        W40973  17.630   7.368  12.961  0.3028 -0.1867  0.0462
25505W        W40974   4.980   1.753  13.901 -0.1675 -0.1155  0.0085
25506W        W40975  16.496   8.658  16.307  0.3120  0.1139  0.1723
25507W        W40976   5.922  16.862   0.054 -0.2523  0.0749 -0.0019
25508W        W40977  15.990  10.197  13.908  0.3808  0.1588  0.0216
25509W        W40978  12.908  17.939   1.020  0.1034 -0.0769 -0.0624
25510W        W40979  13.050  15.777  14.652  0.0454 -0.0789 -0.2396
25511W        W40980  15.427   7.245  14.111 -0.1851  0.3547 -0.1899
25512W        W40981  13.461   5.131   6.326 -0.0508 -0.1788  0.3766
25513W        W40982  10.931  13.102   0.301 -0.2012  0.1225 -0.0417
25514W        W40983  14.017  13.481  10.460  0.1504  0.0767  0.3774
25515W        W40984  14.593  16.239   3.440 -0.0925  0.1989 -0.0688
25516W        W40985  11.931  13.219   1.687  0.0340 -0.0919  0.0213
25517W        W40986  16.750  10.942   2.047  0.0227  0.0229  0.0273
25518W        W40987  11.585  17.157   3.843  0.3041  0.1332 -0.1547
25519W        W40988   1.984   5.962   0.109  0.1032 -0.3116  0.0849
25520W        W40989  13.471  16.827   3.336  0.0996 -0.1156 -0.1169
25521W        W40990  14.454  16.018   3.932  0.3277 -0.0779 -0.0801
25522W        W40991  10.983  17.557   4.419  0.0583  0.0961  0.1151
25523W        W40992   7.739   6.521   1.451  0.4178 -0.1999  0.1285
25524W        W40993   9.729  14.089   1.330  0.2539  0.4181  0.1073
25525W        W40994  13.508   5.795  12.635  0.3001  0.2477  0.0663
25526W        W40995   6.668   6.154   4.153  0.1876  0.1696  0.0355
25527W        W40996  10.971  16.519   2.610 -0.0188  0.0927 -0.1398
25528W        W40997   7.234  15.010  16.045  0.1209 -0.0050  0.0048
25529W        W40998   0.326  17.682   5.066  0.2556 -0.1552  0.0426
25530W        W40999  15.456  14.749   0.057 -0.1250  0.2732 -0.3433
25531W        W41000  15.023  15.821  15.711 -0.3119 -0.1231 -0.0688
25532W        W41001   8.930  17.203  10.271 -0.2134  0.0176 -0.1004
25533W        W41002  13.934  12.437  12.940 -0.0589 -0.2555  0.2327
25534W        W41003  13.839  14.040  11.396 -0.2752 -0.0604 -0.0894
25535W        W41004  16.866   7.464   4.980  0.1902 -0.2123 -0.1635
25536W        W41005  15.104  11.024   5.018 -0.1190  0.2193 -0.0402
25537W        W41006   9.108   8.713  11.573  0.1206  0.2223 -0.2011
25538W        W41007  16.550  12.513   3.150  0.3539 -0.0514 -0.2890
25539W        W41008   8.966   1.439  13.932  0.1834 -0.0715 -0.2603
25540W        W41009   6.144  15.644   2.792  0.2181  0.1267  0.3015
25541W        W41010  14.707  15.889   5.601 -0.0957  0.0783 -0.0611
25542W        W41011   7.553   8.788  12.467 -0.2254 -0.0448  0.2236
25543W        W41012   0.425  13.086   1.756 -0.0319  0.3133  0.1667
25544W        W41013   3.297   7.516  11.723  0.1189  0.2478 -0.4468
25545W        W41014  14.115   5.579   0.990  0.3003  0.2636 -0.0292
25546W        W41015   7.502   0.725   0.641 -0.0147 -0.0872  0.3153
25547W        W41016   8.710   9.403   1.693 -0.2996  0.0035  0.1471
25548W        W41017  11.257  10.241  12.635 -0.3887  0.0223  0.2846
25549W        W41018  11.993  13.404  12.614 -0.2957 -0.0265  0.1183
25550W        W41019   8.024  12.104   2.249 -0.0378 -0.0138  0.0224
25551W        W41020  14.248   5.000   5.846 -0.0879  0.1901  0.2740
25552W        W41021  15.591  14.880   3.005 -0.0293 -0.0606 -0.0145
25553W        W41022   7.134   3.704   6.286  0.2700  0.0491 -0.0978
25554W        W41023  17.940   7.771   2.189  0.1593  0.0899 -0.2136
25555W        W41024  10.847   5.864   5.779  0.1698 -0.1448 -0.2752
25556W        W41025   9.610  14.934   5.230 -0.0322 -0.0124  0.3452
25557W        W41026   2.554   5.380  14.755 -0.0777 -0.0142  0.2009
25558W        W41027   9.607   2.554  15.907  0.3850 -0.1081 -0.1230
25559W        W41028  11.182   9.359   0.166 -0.0255  0.1763 -0.1041
25560W        W41029   1.492   5.537  12.008 -0.1148 -0.3597  0.1809
25561W        W41030  14.389  14.563   1.016  0.1902 -0.3362  0.0073
25562W        W41031   2.227  14.779   3.449 -0.0430 -0.0005 -0.0379
25563W        W41032   9.464  15.956  11.898 -0.0879 -0.5085  0.3608
25564W        W41033   6.143   3.083  15.786  0.2018 -0.1721 -0.2833
25565W        W41034   8.658  14.214   6.168 -0.1254 -0.2610 -0.1607
25566W        W41035   9.983  12.183   5.028 -0.1093  0.0401  0.1840
25567W        W41036  17.586   2.777  10.814 -0.0556 -0.0859  0.0539
25568W        W41037  18.016   2.450   2.871  0.1323 -0.1257 -0.1149
25569W        W41038  15.658   0.906  15.615 -0.0078  0.0221 -0.2301
25570W        W41039   6.605   7.113  16.304 -0.0693  0.1859 -0.0884
25571W        W41040   5.799  15.124  11.134  0.2296 -0.0120 -0.0805
25572W        W41041   4.474  15.132   1.078 -0.2021 -0.0396  0.0489
25573W        W41042  12.892   4.445   3.329 -0.1741  0.2650  0.0965
25574W        W41043  10.616   7.525  11.680 -0.1267  0.0992 -0.0497
25575W        W41044   2.118  12.278  15.978 -0.0663 -0.1765  0.0912
25576W        W41045   8.814  16.861  13.841  0.0415 -0.0292  0.0723
25577W        W41046  10.965   3.420  13.872  0.1515  0.1092 -0.0715
25578W        W41047  15.311   6.067   4.843  0.0169  0.3864  0.1462
25579W        W41048   7.707   3.146   4.125 -0.2755 -0.2219  0.1633
25580W        W41049  13.077   0.338   5.221 -0.1111 -0.1770  0.2661
25581W        W41050  16.971   6.892   0.836 -0.1757 -0.2520  0.2671
25582W        W41051  12.773   4.036  12.254 -0.1136 -0.1023  0.2474
25583W        W41052  13.880   8.246  14.231 -0.0005 -0.0152 -0.0808
25584W        W41053   0.176   0.330  15.184 -0.0344 -0.0343 -0.2424
25585W        W41054  11.649  15.337  13.277 -0.1155  0.1482 -0.0246
25586W        W41055   4.773  15.004  11.966  0.1386 -0.2997  0.0725
25587W        W41056  14.856  17.062  10.904  0.3010 -0.2976  0.0990
25588W        W41057  15.214   2.928  15.932 -0.1574  0.3570  0.0095
25589W        W41058  15.312  11.133  15.317 -0.1434 -0.0894  0.0662
25590W        W41059   3.517  11.644   1.358  0.1708  0.2181  0.0724
25591W        W41060  15.786  15.500  14.241 -0.0949  0.1186 -0.0908
25592W        W41061   2.133   4.583   0.417 -0.1603  0.0781 -0.1867
25593W        W41062  13.665   4.414  16.033 -0.0393  0.2907 -0.1307
25594W        W41063  16.677  10.537   0.380 -0.0322  0.3494  0.1957
25595W        W41064   7.491   9.513   4.823  0.1246  0.0836  0.3651
25596W        W41065  11.998   2.964   3.132 -0.2571  0.3384 -0.4124
25597W        W41066   5.127  13.519   2.976  0.0952 -0.0793  0.0714
25598W        W41067  12.424   3.896  16.015 -0.1711 -0.1016  0.1867
25599W        W41068   6.647  17.187   3.845 -0.0676  0.2966  0.0874
25600W        W41069   1.409   3.298  14.452 -0.2479 -0.2062 -0.0471
25601W        W41070  11.293  15.472   3.286 -0.0196  0.0069  0.0209
25602W        W41071   7.713   6.343   5.018  0.0289  0.1475 -0.0477
25603W        W41072   7.204  10.376   1.467 -0.0122 -0.1183 -0.2095
25604W        W41073   6.565   1.207  13.552  0.2046  0.0532  0.1123
25605W        W41074   3.396  12.949  13.324 -0.0999  0.1251 -0.1301
25606W        W41075  11.842   5.677  12.396  0.1590  0.2712 -0.3421
25607W        W41076   4.545  16.941   2.769 -0.0764 -0.0413  0.2711
25608W        W41077   9.277   5.729   2.841 -0.1128 -0.2642 -0.2010
25609W        W41078   7.527   9.165   4.216 -0.1408 -0.1365 -0.0301
25610W        W41079   4.340   4.312   4.729  0.2838  0.0187 -0.1070
25611W        W41080  14.405  17.203  13.325 -0.1149 -0.3285 -0.2474
25612W        W41081   0.489   8.042  12.040  0.5157  0.3406  0.1975
25613W        W41082   5.466  13.315  10.627  0.3251  0.1662  0.3253
25614W        W41083   1.234  10.419  11.942  0.0773  0.1805  0.0641
25615W        W41084  12.449  15.825  12.588  0.0443 -0.0023  0.2465
25616W        W41085  15.655   0.552  12.837  0.3855  0.2461 -0.0343
25617W        W41086  14.865   3.298  12.033  0.3326  0.0679  0.0640
25618W        W41087   5.336  14.235   1.064  0.0332 -0.0345  0.0023
25619W        W41088   5.233   7.512  16.022 -0.2345  0.0706 -0.0339
25620W        W41089  10.806  10.045  14.343  0.1335 -0.0993  0.4533
25621W        W41090  12.346   9.378   2.203 -0.2049  0.1401  0.0446
25622W        W41091   1.608   2.146   0.519 -0.0746 -0.0871  0.0089
25623W        W41092   8.337   4.925   1.565 -0.1812  0.2198  0.0204
25624W        W41093   2.718  15.065  13.675  0.1016  0.2031 -0.0334
25625W        W41094  10.339  12.250   6.493  0.0035 -0.1339 -0.1742
25626W        W41095  12.164   2.699   5.998  0.0213 -0.1188 -0.0156
25627W        W41096  14.072  17.506  14.097  0.0392  0.0256  0.1192
25628W        W41097   7.163   8.967   0.517  0.3921 -0.1091 -0.1400
25629W        W41098   8.730   1.721   5.214  0.0048 -0.1491  0.2543
25630W        W41099   3.140   7.269  14.007 -0.2464  0.0182  0.2590
25631W        W41100  12.427   4.703  11.430 -0.4221 -0.0350 -0.2619
25632W        W41101   1.208  17.844   1.107  0.0369 -0.2331  0.3230
25633W        W41102   0.763  14.100   2.874  0.2669  0.1302  0.0703
25634W        W41103  10.385   6.647  12.620  0.0944 -0.1123 -0.0181
25635W        W41104  14.346  14.314  12.832  0.1476 -0.0767 -0.1280
25636W        W41105   1.673   6.583   2.017 -0.0791  0.3784  0.0119
25637W        W41106  17.142  16.534   4.334  0.2241  0.1682 -0.3014
25638W        W41107  11.522   9.060  15.892 -0.0091  0.0833 -0.1227
25639W        W41108   8.821  10.062  13.732  0.2674  0.0214  0.2313
25640W        W41109   7.232  10.323  15.343  0.0730  0.0390 -0.4165
25641W        W41110   6.200  14.678   9.766 -0.4055  0.0009  0.2384
25642W        W41111   6.479  17.263  14.558  0.2019  0.1568  0.2611
25643W        W41112   5.903   2.705   4.083 -0.1113  0.3156 -0.1593
25644W        W41113  10.595  15.723   2.841 -0.4370  0.3698  0.2302
25645W        W41114  11.259   9.972   3.885 -0.1769 -0.4277 -0.1359
25646W        W41115  11.183  14.305   3.231  0.2725  0.2734 -0.0884
25647W        W41116   3.071  14.352   3.558 -0.1535 -0.0318  0.2636
25648W        W41117  16.797  16.533   1.232  0.0001 -0.4497 -0.2973
25649W        W41118   8.322   2.467   2.133 -0.0372  0.0565 -0.1068
25650W        W41119  12.930   0.813  11.927 -0.0579  0.1698  0.1317
25651W        W41120   0.619   5.137  16.085  0.1945  0.0221  0.0592
25652W        W41121   8.263  13.198  16.087  0.0053 -0.0013  0.0259
25653W        W41122   7.138   8.649  14.561 -0.0603 -0.2200 -0.0583
25654W        W41123   0.217   9.098   2.293  0.1881 -0.0481 -0.2655
25655W        W41124  16.253   9.726  10.370  0.1196 -0.1719  0.7125
25656W        W41125   9.454   6.558   3.532 -0.1510 -0.2565  0.2222
25657W        W41126  10.012  15.840   3.934 -0.2406  0.3492 -0.0462
25658W        W41127  11.829   1.167   0.567 -0.0352  0.0751 -0.0257
25659W        W41128   8.700   4.993  15.629  0.1215  0.1367 -0.0295
25660W        W41129  13.174   5.275   0.957  0.2972  0.0106 -0.2453
25661W        W41130   4.426  14.452  11.273  0.0238 -0.1006 -0.0876
25662W        W41131  10.941   8.758  12.486  0.0929 -0.0602 -0.1319
25663W        W41132  11.923  17.666  12.670  0.1806 -0.0666 -0.0630
25664W        W41133  13.092  16.357  15.729 -0.4514  0.2698  0.1040
25665W        W41134   2.355  12.603   2.972  0.1436 -0.2668  0.1469
25666W        W41135  15.265  13.179   0.618  0.3269 -0.0451 -0.1115
25667W        W41136  17.593   5.501  12.668  0.4451 -0.1651 -0.0752
25668W        W41137  17.873   1.642   0.356  0.0968  0.2105  0.3706
25669W        W41138  13.957   1.561   0.095  0.1126  0.4000  0.0438
25670W        W41139   5.231  15.741   0.137 -0.2142 -0.1104  0.1908
25671W        W41140   4.124   8.667   6.014  0.0763  0.0458  0.1486
25672W        W41141   4.682   6.611   4.319 -0.0714  0.2206 -0.0919
25673W        W41142  14.471   0.841  16.125  0.0551 -0.0788  0.0240
25674W        W41143   5.538   2.417   4.527 -0.1028 -0.1326  0.0503
25675W        W41144   5.869   1.996   2.058 -0.2236 -0.1345 -0.1329
25676W        W41145  18.049  10.895  11.981 -0.1813  0.1054 -0.0156
25677W        W41146   6.862   0.343  11.588 -0.2420  0.2305 -0.0020
25678W        W41147   8.582   9.102  14.500 -0.1365  0.2103 -0.4281
25679W        W41148   9.109  16.269  12.554  0.3966  0.1170  0.0328
25680W        W41149   3.325  16.643   2.805 -0.0510  0.2218 -0.3546
25681W        W41150   4.987  13.973  15.758 -0.2384 -0.0949  0.0738
25682W        W41151  10.538  15.052  15.981  0.1947  0.0020 -0.0410
25683W        W41152  15.746   3.358   3.126 -0.6190 -0.0865  0.0925
25684W        W41153   6.722   3.305  13.010  0.0833  0.1100  0.1143
25685W        W41154  13.571  12.199  15.261 -0.0943  0.0531  0.1576
25686W        W41155   4.130   5.308  15.605 -0.0775 -0.2287 -0.3708
25687W        W41156   1.049   1.953  15.136 -0.0452  0.0740  0.0078
25688W        W41157  14.321   3.546  10.442  0.0598  0.0068  0.0325
25689W        W41158  11.836  17.547  13.102 -0.0068  0.2330  0.2123
25690W        W41159   2.392  16.661   3.229  0.0635  0.0547 -0.2232
25691W        W41160  13.816   1.900  13.713 -0.0200 -0.2382 -0.0584
25692W        W41161   4.827   2.393  15.959  0.2683  0.1995 -0.0954
25693W        W41162   1.718   0.497   5.416 -0.0422  0.0562  0.0962
25694W        W41163   7.986   7.102   4.816 -0.1992 -0.1608  0.1848
25695W        W41164   9.714  16.349  11.626  0.0013 -0.0630 -0.0191
25696W        W41165   2.695  11.651  13.516  0.1986  0.1540 -0.1114
25697W        W41166  14.904  16.167   4.790  0.1486 -0.0680 -0.0606
25698W        W41167   4.933   4.601  16.215  0.3417  0.2095 -0.0630
25699W        W41168  13.367  10.586   5.161  0.0248 -0.1530  0.1902
25700W        W41169   4.775  11.151   5.276 -0.1076 -0.4206 -0.0943
25701W        W41170  10.889   3.027  12.222 -0.0715  0.0231 -0.0924
25702W        W41171   0.073  15.397  14.817  0.1633 -0.2970 -0.0564
25703W        W41172  14.231  15.132   4.463  0.0759  0.0799  0.2810
25704W        W41173   4.711   9.599   5.565  0.0182 -0.3315 -0.3841
25705W        W41174  13.133   7.740   5.438  0.0483  0.0371 -0.1050
25706W        W41175  17.715   1.718   5.190 -0.1362 -0.3826  0.0172
25707W        W41176  15.162   9.043  15.190 -0.1215  0.0755 -0.1911
25708W        W41177   7.811   0.740  13.385 -0.0410 -0.3348  0.0135
25709W        W41178  15.920   1.165  12.278 -0.1076  0.4640  0.0625
25710W        W41179   8.402   0.530   4.691  0.0903  0.0955  0.0087
25711W        W41180  17.665   7.153  15.913  0.3101  0.1125  0.0581
25712W        W41181  16.719  11.689   1.017 -0.1226  0.1083 -0.2163
25713W        W41182   3.146   4.482  12.005 -0.1279 -0.2652 -0.3322
25714W        W41183   2.851   4.779  11.729  0.3157  0.1216  0.1393
25715W        W41184  10.445   0.498   1.961 -0.2051 -0.0654 -0.2433
25716W        W41185  14.601  14.661  14.854  0.0076 -0.0646 -0.4277
25717W        W41186  12.175  13.359   3.933  0.1073  0.0115  0.0698
25718W        W41187   8.535   5.788   2.081  0.0777 -0.1834 -0.1307
25719W        W41188   3.226  14.397  16.301  0.0557  0.1110 -0.0845
25720W        W41189   3.915   7.991   2.136  0.0534  0.0549  0.2117
25721W        W41190  16.358  15.766  15.738 -0.1681 -0.1524 -0.0306
25722W        W41191  16.133  10.499   4.301 -0.1015  0.1779 -0.0840
25723W        W41192   9.917  15.264  15.037 -0.1561  0.0837  0.0587
25724W        W41193  16.693   5.949  10.128 -0.0446  0.0783 -0.0283
25725W        W41194   6.854   3.926  13.382 -0.0429  0.2438 -0.0386
25726W        W41195  16.539   6.532   4.123 -0.0121 -0.0255  0.0979
25727W        W41196  17.194   2.992  15.586 -0.1202  0.2946  0.1038
25728W        W41197   2.551   7.976  10.829 -0.4832 -0.2086 -0.0339
25729W        W41198  11.075  11.202  12.806 -0.1034  0.0200 -0.0766
25730W        W41199  12.875   0.779   2.312  0.1737 -0.0816 -0.1978
25731W        W41200   0.019   5.529   1.751 -0.1148 -0.0594 -0.1015
25732W        W41201  14.223  10.708  11.759 -0.0989 -0.0309 -0.1743
25733W        W41202   6.776   2.134  12.018 -0.1944  0.0585 -0.0736
25734W        W41203  17.700  16.575  14.884  0.1297 -0.0985 -0.1551
25735W        W41204  16.132  16.965  13.632  0.0140  0.0208 -0.0306
25736W        W41205   6.314  12.477  15.650 -0.0943 -0.0385 -0.0902
25737W        W41206   3.235  16.910   3.921 -0.0351  0.1395  0.0833
25738W        W41207  12.421  12.697  14.467 -0.0790  0.2686  0.0295
25739W        W41208  15.615   3.788   0.284  0.1734 -0.0723 -0.1782
25740W        W41209   1.461   1.693  12.572 -0.0154  0.1835 -0.0250
25741W        W41210  13.085  17.285   3.377  0.0110 -0.0748  0.0578
25742W        W41211  17.819   2.733   1.234 -0.0954  0.1527  0.0170
25743W        W41212  11.535   0.938   3.107  0.0647 -0.1113 -0.1632
25744W        W41213  12.525  15.410  14.407 -0.1357  0.0608 -0.0801
25745W        W41214   2.005   4.821  14.148 -0.1711 -0.1627 -0.3338
25746W        W41215  13.071   9.586  15.149  0.2054  0.1341 -0.0449
25747W        W41216   7.913   3.388  15.789 -0.2406  0.0689  0.1059
25748W        W41217   4.927  14.330  13.667 -0.2197  0.3166 -0.2902
25749W        W41218  17.255  14.651  15.294 -0.1080 -0.2499 -0.0410
25750W        W41219  13.259   0.754   4.838 -0.0328 -0.3296  0.2482
25751W        W41220  15.798  16.877   3.841  0.0441  0.0656 -0.1311
25752W        W41221  16.385   8.539  11.337 -0.0453  0.1655 -0.0944
25753W        W41222   6.616  16.481   2.680  0.0340  0.2048 -0.2941
25754W        W41223   0.863  10.676   2.572  0.3103 -0.1854 -0.0071
25755W        W41224  12.974  14.407  13.016 -0.0218  0.1893  0.1189
25756W        W41225  16.391  11.031  11.516  0.4469  0.2693  0.0652
25757W        W41226  13.325   0.267   1.228 -0.2114  0.1822 -0.1204
25758W        W41227   5.465  10.707   4.149  0.0782  0.0497  0.1758
25759W        W41228  12.713   3.169  14.825  0.1262  0.0871  0.1011
25760W        W41229   4.585  16.724   4.966  0.2079 -0.0991 -0.0132
25761W        W41230   2.575   5.771   4.862  0.0777 -0.0223  0.2172
25762W        W41231   0.519   0.048   1.900 -0.1616 -0.0808 -0.1522
25763W        W41232  10.255  12.825  15.809  0.2525 -0.4044  0.0182
25764W        W41233  11.406  16.872  14.104  0.3205  0.2427  0.1037
25765W        W41234  16.910  11.042   1.610  0.2505  0.0139 -0.2091
25766W        W41235   6.374  16.948   4.229 -0.0111 -0.0502 -0.0492
25767W        W41236  13.862   8.380   0.863 -0.1803  0.1247  0.1927
25768W        W41237   2.739   3.984  13.903  0.1238  0.0602 -0.1271
25769W        W41238   5.725  11.975  14.011 -0.0319  0.0816 -0.0893
25770W        W41239   2.744  16.136  15.515  0.0121 -0.1972  0.0576
25771W        W41240   2.183   8.585  12.490 -0.3221 -0.0848 -0.2854
25772W        W41241  14.204   4.951   4.400  0.0609 -0.1018  0.1229
25773W        W41242  17.929   3.463   3.466  0.1161  0.0620  0.1594
25774W        W41243  14.035  11.804   5.496 -0.2344  0.0882  0.2341
25775W        W41244   8.799   3.746  12.612  0.0286 -0.0596 -0.0304
25776W        W41245   5.213  11.216   2.119  0.1008 -0.0264  0.3950
25777W        W41246   3.391   0.831  11.805 -0.1370 -0.1163 -0.0993
25778W        W41247  15.839  10.327  11.318 -0.2481  0.3202  0.0075
25779W        W41248   4.780   3.132  12.350 -0.2100 -0.4176  0.1848
25780W        W41249   9.783  18.011   1.204  0.0094 -0.1386  0.0068
25781W        W41250  12.919   2.659   4.073 -0.1682  0.5199 -0.0269
25782W        W41251   8.128   1.656  13.182 -0.0441  0.0302 -0.0241
25783W        W41252   1.212   2.223  14.067 -0.2812  0.0823 -0.1053
25784W        W41253   9.926  10.579   1.006  0.0711 -0.2302  0.0419
25785W        W41254   6.740   8.799   3.742 -0.1772 -0.0689 -0.2548
25786W        W41255  16.340  17.689   4.925 -0.3348 -0.1889 -0.1022
25787W        W41256   4.514  14.605   5.277  0.1388 -0.3871 -0.0865
25788W        W41257   6.674  16.044   5.309  0.0470 -0.4416  0.1040
25789W        W41258   3.411   4.103   0.863 -0.0622 -0.3105 -0.0518
25790W        W41259   8.108  14.910   4.731  0.2005  0.3124  0.1021
25791W        W41260  13.176   7.084  12.863  0.0594  0.0946  0.1389
25792W        W41261  14.858  13.301   1.935 -0.0282 -0.1015  0.0306
25793W        W41262  10.236  12.068   6.019 -0.2134 -0.0247 -0.2779
25794W        W41263  15.930  17.339   1.012 -0.4712  0.0418  0.0249
25795W        W41264   4.809   3.946   3.606 -0.0488  0.2667  0.3790
25796W        W41265   1.854  14.042   4.055 -0.0840 -0.0194 -0.0575
25797W        W41266   0.996   5.093   1.212 -0.0016 -0.1478  0.1642
25798W        W41267  11.623   8.223  12.307 -0.4137 -0.2272  0.2371
25799W        W41268  16.055   5.093   4.937 -0.0381  0.0690 -0.1608
25800W        W41269  13.490   0.538   4.417 -0.2525  0.1287 -0.0872
25801W        W41270   6.129  13.844   1.583 -0.0974  0.2764  0.0687
25802W        W41271  10.068  10.385  12.958 -0.0075 -0.0646  0.1098
25803W        W41272   8.847  15.400  11.012 -0.0856  0.0943 -0.3654
25804W        W41273   7.934   9.609   2.804  0.0411  0.1501 -0.1337
25805W        W41274  16.331   6.137   1.954 -0.3503 -0.1753  0.2307
25806W        W41275   0.599   3.647  11.662 -0.1090  0.2692 -0.1274
25807W        W41276   0.862   4.861   1.880 -0.2785 -0.1164  0.2193
25808W        W41277  11.555   4.835   4.065 -0.2327 -0.1710 -0.2671
25809W        W41278   0.390   0.835  11.827  0.0579 -0.0705  0.2179
25810W        W41279  14.027   6.272  14.454  0.0590  0.0354 -0.2952
25811W        W41280  15.296   5.431  15.637  0.3746  0.2211  0.2657
25812W        W41281   8.546   4.957   3.391 -0.0935  0.0344  0.1558
25813W        W41282   9.266  16.655  13.868  0.3413  0.0555  0.0582
25814W        W41283  13.979   8.827   4.700 -0.1792 -0.3077 -0.2334
25815W        W41284  10.532   3.563   1.683  0.1848  0.1075 -0.0576
25816W        W41285   6.407   1.093  11.575 -0.0714 -0.1741 -0.0026
25817W        W41286  13.720  16.226  12.173 -0.1180  0.0206 -0.1049
25818W        W41287   4.531  17.325   0.462 -0.2397 -0.0001 -0.0623
25819W        W41288   3.093   5.183   4.295 -0.0835 -0.2141 -0.0904
25820W        W41289   2.802   5.813   0.452 -0.1094  0.0542 -0.0971
25821W        W41290   8.942  13.240  10.530  0.0360  0.2382  0.0631
25822W        W41291   3.140   2.157   2.682 -0.1452  0.3543 -0.0072
25823W        W41292   0.198   6.440  14.364 -0.4514  0.0135 -0.2704
25824W        W41293   4.463   5.036  15.205  0.1478  0.4291  0.0180
25825W        W41294  14.539   2.645  11.804  0.1094  0.2462 -0.0093
25826W        W41295  16.363   1.454  14.143  0.0093 -0.0417  0.4286
25827W        W41296   6.349   6.570   1.758  0.1184 -0.0146  0.1472
25828W        W41297   6.286  11.839  11.898 -0.2505  0.0816 -0.2035
25829W        W41298   7.418   3.279  15.843  0.0772  0.1153  0.1124
25830W        W41299  10.339  15.429   3.215 -0.2447  0.1390 -0.1987
25831W        W41300   5.734  13.920  12.296  0.0209 -0.0502  0.1820
25832W        W41301   9.824  10.995  14.607 -0.1787 -0.1551 -0.0021
25833W        W41302   7.659  11.248  12.496 -0.0095  0.1364  0.0096
25834W        W41303  17.729   1.649  13.293 -0.0446  0.0824 -0.0649
25835W        W41304   5.567   5.818   3.266 -0.1903  0.1735  0.4453
25836W        W41305  10.340  12.801  12.222  0.0162  0.2137  0.0364
25837W        W41306  17.019  12.423   5.487  0.0495 -0.0572 -0.2876
25838W        W41307  17.945  16.300   2.097  0.2220  0.0262 -0.4288
25839W        W41308   2.280   9.099  15.198  0.3425 -0.1003  0.1742
25840W        W41309  12.675  15.284  15.553 -0.1204  0.0160  0.0214
25841W        W41310   1.901  11.360   4.223 -0.0558  0.0232  0.0642
25842W        W41311   9.203  14.044   5.187 -0.1707  0.1271 -0.1174
25843W        W41312   5.457  14.532   4.988 -0.1760 -0.2906  0.0340
25844W        W41313   4.131  15.445   1.276  0.0616  0.2801  0.2020
25845W        W41314  13.824  12.496  15.784 -0.0568  0.3139 -0.1768
25846W        W41315  16.117  13.834  14.521  0.2702 -0.2849 -0.2131
25847W        W41316   5.021  15.972   2.222 -0.3273 -0.4044 -0.0119
25848W        W41317  10.473  12.258  14.165 -0.1550  0.1318  0.0034
25849W        W41318   1.639  15.447  13.117 -0.0973 -0.0590  0.0799
25850W        W41319   6.011  15.663  15.018  0.1920  0.0211  0.0590
25851W        W41320   4.822  10.209  14.053  0.1113 -0.0696 -0.0546
25852W        W41321   2.419   8.303  11.212  0.0527  0.0012  0.0732
25853W        W41322   9.318   2.523   5.748  0.1247  0.0214 -0.0460
25854W        W41323   0.210   2.058  10.484 -0.2024  0.1251 -0.1375
25855W        W41324   1.942   3.089  14.891 -0.0854 -0.1442 -0.1340
25856W        W41325  17.704   7.770  11.244  0.0491  0.1004  0.0108
25857W        W41326  14.867   1.448  12.621  0.0214 -0.0250  0.0978
25858W        W41327   4.019   9.342  11.940 -0.2420 -0.1856  0.3301
25859W        W41328   3.816   0.026  12.905  0.3040 -0.1104 -0.0080
25860W        W41329   3.570  17.326   2.145 -0.4728 -0.1290 -0.2452
25861W        W41330   0.313  11.600   4.345 -0.1644  0.1523 -0.0070
25862W        W41331   7.790   8.799  15.047  0.0641 -0.2386 -0.3091
25863W        W41332  15.444   3.430  12.062 -0.0333 -0.2049 -0.0646
25864W        W41333  17.163  15.837  11.776 -0.0388  0.0774 -0.0829
25865W        W41334   8.137  12.670  14.472 -0.0954  0.1139  0.0906
25866W        W41335   5.292   3.762   1.868 -0.0451  0.1486 -0.1785
25867W        W41336   4.969   3.144  15.343 -0.3685  0.2996  0.2357
25868W        W41337  15.662   8.493  11.613  0.0545  0.0576 -0.2616
25869W        W41338  17.115   3.142  13.239 -0.0620  0.2411  0.1260
25870W        W41339   1.708   3.117   1.113  0.1753  0.1546 -0.1726
25871W        W41340  10.468  13.211   4.389 -0.0878  0.0130  0.1923
25872W        W41341  17.770   3.037   0.826  0.1862  0.2380  0.2043
25873W        W41342   7.645   6.011  13.684  0.1778 -0.2466  0.1117
25874W        W41343   8.164  10.160  14.778  0.2647 -0.2773  0.3064
25875W        W41344  10.202   3.336   3.230  0.1362 -0.0174  0.0836
25876W        W41345  15.716   4.127   5.122  0.0910 -0.2121  0.1573
25877W        W41346   5.762   7.676   2.143 -0.1423 -0.0382  0.0016
25878W        W41347  12.568  17.793   1.687  0.0941 -0.0173  0.1961
25879W        W41348   0.926   6.934   4.066 -0.4242 -0.1096 -0.1724
25880W        W41349   7.998   7.910   4.232  0.0258  0.0482  0.2861
25881W        W41350   6.141   0.738   4.878 -0.1319 -0.0752 -0.0096
25882W        W41351  16.328   1.131   5.758  0.1093 -0.1959  0.0600
25883W        W41352   7.868   9.949   4.221 -0.1772 -0.0260  0.2119
25884W        W41353   3.254   5.026  13.526 -0.0037  0.0844  0.5336
25885W        W41354  12.206   2.570  13.609  0.1951  0.1561 -0.1902
25886W        W41355  11.256   3.981   1.034  0.1880  0.0582  0.1220
25887W        W41356  14.344  16.450   5.597  0.0464  0.4632 -0.3254
25888W        W41357   2.641   0.616  11.188 -0.4146  0.2273 -0.0714
25889W        W41358  12.361   1.317   4.395  0.3551 -0.0321 -0.1973
25890W        W41359   1.488  11.730   2.423  0.0612 -0.0388  0.3209
25891W        W41360   7.147   3.030   4.410  0.1400 -0.0059 -0.1579
25892W        W41361  10.948   8.157   6.106 -0.0454  0.4442 -0.0789
25893W        W41362   4.413   7.956   2.081  0.0499  0.1263  0.2873
25894W        W41363   6.704  10.719  13.049 -0.0884  0.0621 -0.0505
25895W        W41364  11.949  14.098  13.276  0.0580  0.0692  0.0276
25896W        W41365   9.411   7.010  10.950  0.0898 -0.0491 -0.2092
25897W        W41366   0.148   0.396   1.734  0.0979 -0.0034 -0.1783
25898W        W41367   4.503  11.848   0.228 -0.0796  0.2871  0.0443
25899W        W41368   5.579   1.413   3.866  0.0286 -0.3041 -0.3778
25900W        W41369  13.386   8.762  15.590 -0.0379  0.0450  0.0999
25901W        W41370  17.544  15.140  11.278  0.0649  0.0594 -0.0939
25902W        W41371   6.010   5.918   1.930  0.0636  0.3409 -0.1883
25903W        W41372   9.072   3.677   1.368 -0.1467 -0.0471  0.2810
25904W        W41373  14.347   8.960  15.272  0.2422 -0.0501  0.0721
25905W        W41374   9.018  14.057   2.221  0.3227  0.0619 -0.0784
25906W        W41375  11.663   4.126   1.781  0.2528 -0.0283  0.0184
25907W        W41376  11.617   6.670  11.051 -0.0219 -0.0287  0.3033
25908W        W41377   3.290   4.884   1.287  0.1798  0.0344  0.3517
25909W        W41378   2.260   1.965   2.117 -0.2151 -0.0166  0.1086
25910W        W41379  17.681  15.313  12.370 -0.3569 -0.2139 -0.1126
25911W        W41380   4.332  14.039   1.336 -0.2002 -0.0410 -0.0255
25912W        W41381  10.805   5.327   4.577  0.3792  0.1754 -0.1589
25913W        W41382   4.352   6.853  15.630 -0.1248  0.0858 -0.1569
25914W        W41383   6.595   5.670   2.549 -0.4487  0.0272  0.1294
25915W        W41384  10.963   7.357  12.612  0.3521 -0.0801  0.0986
25916W        W41385   0.681   4.597  11.379 -0.0125  0.0181  0.0677
25917W        W41386   5.661   8.208  11.230 -0.1896 -0.0322 -0.2760
25918W        W41387  14.550  14.704   3.106 -0.0793 -0.0340 -0.1636
25919W        W41388   5.505  10.650   1.293 -0.0321 -0.1163 -0.0386
25920W        W41389   9.147   3.064  12.892 -0.0069 -0.2336  0.1458
25921W        W41390   1.312  16.576   0.994  0.0036 -0.2010  0.1596
25922W        W41391  12.274   2.855   3.811 -0.0831 -0.0279 -0.1267
25923W        W41392   7.149   7.065  15.454  0.0795  0.0140  0.0750
25924W        W41393   9.409  12.418  16.239 -0.1738  0.2441  0.0728
25925W        W41394   6.291   9.591   4.051  0.3132  0.2681 -0.1153
25926W        W41395  10.448  16.941  14.503  0.3565  0.1997  0.0696
25927W        W41396  15.017   6.209   1.187 -0.1324  0.1607 -0.0501
25928W        W41397  12.598  11.968  11.284 -0.1156  0.2589 -0.2984
25929W        W41398   8.705  13.269  16.283  0.0396 -0.1146 -0.2107
25930W        W41399   0.366   5.308   0.571  0.1983  0.0556  0.0992
25931W        W41400   5.451   9.295   4.125 -0.0915  0.2633 -0.1153
25932W        W41401   8.250   3.452  14.753 -0.1008  0.1606 -0.0655
25933W        W41402  13.328   9.199   5.338 -0.2062  0.1182 -0.0974
25934W        W41403  10.013  11.542   3.921  0.1747  0.0243 -0.2604
25935W        W41404   8.009  16.783   3.335 -0.0306 -0.2613 -0.0161
25936W        W41405   6.501   5.104   1.597  0.4001 -0.2046  0.5639
25937W        W41406  17.248   8.380   3.620  0.0882 -0.3326  0.4182
25938W        W41407  11.444  13.883   0.693  0.2396  0.3811  0.4791
25939W        W41408   1.683   2.750   2.892  0.2606  0.1662  0.0992
25940W        W41409   8.076  12.650   4.182 -0.1141 -0.1365 -0.1011
25941W        W41410  17.627  12.945  13.070  0.1509  0.3749 -0.3145
25942W        W41411   4.953   2.542  15.316 -0.1492 -0.2704  0.0300
25943W        W41412  14.678   7.418  15.969 -0.1213  0.3543 -0.0865
25944W        W41413  16.239   8.839  11.005 -0.0040 -0.1685  0.0855
25945W        W41414  13.463   9.335  14.826  0.0172 -0.2228 -0.1899
25946W        W41415   7.636   5.591  13.425  0.0849  0.0856 -0.1945
25947W        W41416  12.439   6.633  13.309 -0.1340  0.0582 -0.0012
25948W        W41417   9.818   4.404   3.298 -0.2733  0.0108 -0.0158
25949W        W41418  16.546  12.954  14.587  0.1452 -0.2631  0.3472
25950W        W41419  12.988  11.407   2.442  0.0894  0.1712 -0.0677
25951W        W41420   1.077  15.741   2.297 -0.0273 -0.1416 -0.1834
25952W        W41421  10.931   4.467  14.939 -0.2416  0.2963 -0.2720
25953W        W41422   3.360   9.456   4.350 -0.0183  0.1584  0.0906
25954W        W41423   9.686  13.119   1.436 -0.1951  0.1685  0.1369
25955W        W41424   5.815  12.224  13.581  0.1201  0.0345  0.4263
25956W        W41425   5.008  12.587  13.716  0.0329  0.2095 -0.1181
25957W        W41426   9.748   6.100  14.505  0.1292 -0.1092 -0.2521
25958W        W41427  13.623  16.460  16.143 -0.1674 -0.0951 -0.2130
25959W        W41428  13.348   3.596   4.630 -0.0075 -0.0810 -0.1928
25960W        W41429   7.687   5.109   0.178 -0.1257  0.2072  0.1885
25961W        W41430  12.457   1.939   1.808  0.4152  0.4653  0.1147
25962W        W41431  10.284   4.660  12.921 -0.1207  0.0067  0.1512
25963W        W41432   3.343  11.721   2.095  0.2066 -0.1360  0.2080
25964W        W41433   1.342  10.952  14.827 -0.0011  0.1403  0.2020
25965W        W41434  14.320  16.956   5.418 -0.2268  0.2216 -0.3740
25966W        W41435  13.404   6.351  13.970  0.0635 -0.0364 -0.1221
25967W        W41436   4.285   9.959   5.529 -0.2196 -0.2041 -0.1182
25968W        W41437  10.866   2.388   5.288 -0.1725 -0.2014 -0.3493
25969W        W41438  13.767   2.354   1.866  0.1352  0.1736 -0.1030
25970W        W41439  12.548   7.797  14.310 -0.2799  0.0905  0.2897
25971W        W41440  11.017   7.704   4.580  0.1526  0.1023  0.0613
25972W        W41441   8.329  14.231  12.523  0.0678  0.2619 -0.1076
25973W        W41442  13.053  11.722   4.700 -0.2998  0.0694  0.1872
25974W        W41443  11.049   8.897  15.371  0.0824  0.0969 -0.1346
25975W        W41444   5.496   2.618  15.465  0.4017 -0.2222 -0.1236
25976W        W41445  14.640   1.054  13.417  0.0539 -0.0299 -0.1143
25977W        W41446   1.046  15.008  11.777 -0.0794 -0.0916 -0.0032
25978W        W41447   5.769   2.171  14.567  0.0525  0.0745  0.2521
25979W        W41448   6.140   0.990   3.148  0.0093 -0.0703 -0.0518
25980W        W41449   6.253  11.840  12.726  0.0741 -0.2559  0.0818
25981W        W41450  10.636   8.616  10.284 -0.3160 -0.1603 -0.1722
25982W        W41451  16.112   6.668   5.438 -0.0601  0.1166 -0.2486
25983W        W41452   0.326   6.746   0.485 -0.0499 -0.0827  0.2184
25984W        W41453  16.079  13.351   1.540  0.1323 -0.0448  0.1959
25985W        W41454   3.383   1.432   2.254  0.1460  0.1417 -0.1148
25986W        W41455  14.913  16.504  14.203 -0.2550 -0.1829 -0.2329
25987W        W41456  18.027  10.417   3.493  0.0497  0.2335  0.1800
25988W        W41457  17.259   0.254   0.447 -0.0580  0.2549  0.2605
25989W        W41458   7.888   8.721   3.061  0.0664  0.1492  0.1854
25990W        W41459   1.927   9.977   4.341  0.0394 -0.3013  0.0270
25991W        W41460   3.518   9.530   1.375 -0.1007 -0.1389 -0.0368
25992W        W41461  16.601   8.954  13.049  0.0101  0.1764 -0.2884
25993W        W41462  12.163   4.307   0.895  0.3610  0.0436 -0.0817
25994W        W41463  17.281  13.805  15.932  0.0100  0.3393  0.2199
25995W        W41464  13.682  17.233  15.543  0.1673  0.0045 -0.2127
25996W        W41465   3.053   2.185   0.559  0.1751  0.0655  0.0580
25997W        W41466   1.868   6.119   4.273  0.2283  0.0450 -0.1165
25998W        W41467   3.215  10.604  16.115  0.1569 -0.2365  0.0530
25999W        W41468  13.404  14.814  12.606 -0.0985  0.0009  0.0302
26000W        W41469   7.270   9.411   5.555  0.1718  0.0144 -0.0890
26001W        W41470  11.524  18.097   0.186 -0.0759  0.1483  0.1162
26002W        W41471   1.053  13.775   1.908  0.0698 -0.2642 -0.0746
26003W        W41472  13.551  11.638  13.197  0.3788  0.0956  0.2228
26004W        W41473  16.818   0.617  13.689 -0.0685  0.1107 -0.2375
26005W        W41474   1.265  14.289   0.614 -0.1491  0.1958  0.0293
26006W        W41475   1.276  17.719  15.666  0.2548 -0.2674 -0.1764
26007W        W41476  13.270   2.102  14.269  0.1444  0.0094 -0.2736
26008W        W41477   7.521  15.174  12.332 -0.0405 -0.0501  0.0323
26009W        W41478   7.038   7.635   0.549 -0.0924  0.0688 -0.1613
26010W        W41479   6.440  12.839   2.845  0.1310  0.0961  0.1268
26011W        W41480   7.780   8.710   1.642 -0.0941 -0.1168 -0.0215
26012W        W41481   5.044   8.786  13.416 -0.3517  0.3087 -0.0807
26013W        W41482  16.848  16.235   2.132 -0.0024  0.0585 -0.0548
26014W        W41483  15.874  16.423   3.667 -0.0781  0.0093  0.1187
26015W        W41484  13.060  14.452  15.991  0.1264  0.1329 -0.2704
26016W        W41485   5.315  14.288   4.115  0.1584 -0.1738  0.1682
26017W        W41486   7.485  15.603   2.060 -0.0240 -0.0616 -0.2840
26018W        W41487   8.856  13.215  11.700 -0.0143 -0.0162 -0.2156
26019W        W41488   4.250   3.054  14.403 -0.1272 -0.0857  0.1458
26020W        W41489  15.162  11.010   0.904  0.0238 -0.2173  0.0265
26021W        W41490   1.575  16.091  11.136  0.1982 -0.1561  0.1292
26022W        W41491  10.290   3.336   0.133 -0.2255 -0.1959 -0.1666
26023W        W41492   8.372   5.351  12.331 -0.1707 -0.0005 -0.0266
26024W        W41493   2.527  15.558   3.561  0.0171 -0.1148 -0.0698
26025W        W41494   1.533   6.292   0.139  0.1190 -0.0042 -0.1265
26026W        W41495   4.671   2.455   2.486 -0.0539 -0.1442 -0.2491
26027W        W41496   8.504   0.020   5.517 -0.0404 -0.0287  0.0587
26028W        W41497  10.451   5.855  10.947  0.1300 -0.2832  0.2413
26029W        W41498  12.826  17.172   2.487  0.1048  0.2328  0.0740
26030W        W41499   9.053   7.344   2.666 -0.1438  0.3059 -0.0638
26031W        W41500   8.886  14.828   4.744 -0.3221 -0.0095 -0.2402
26032W        W41501   0.464  17.142   3.702 -0.0397 -0.3572 -0.4531
26033W        W41502  12.677  12.482  15.191 -0.1229  0.0073 -0.2755
26034W        W41503   9.507   4.548   0.179 -0.0579  0.0734 -0.0211
26035W        W41504  13.225   4.826   4.229 -0.3722 -0.0547  0.2358
26036W        W41505  16.984  14.445   3.855 -0.3729 -0.1052 -0.1959
26037W        W41506  13.496  13.696  14.205  0.3466 -0.0445 -0.1065
26038W        W41507  14.675  13.781  14.180 -0.2448  0.1521  0.0289
26039W        W41508  13.988   3.890  10.600 -0.1701 -0.2449  0.0211
26040W        W41509   7.012   0.223  14.980 -0.1655 -0.1889 -0.3615
26041W        W41510   7.798  11.147  13.901  0.0603 -0.1723 -0.3881
26042W        W41511   2.862  11.276  10.629 -0.0101  0.0317 -0.0117
26043W        W41512  12.013   6.607  11.391 -0.2777  0.2001  0.1611
26044W        W41513   6.459   5.377  16.098 -0.3121 -0.1003 -0.1011
26045W        W41514   4.522  15.001   3.326  0.0077 -0.0933 -0.1259
26046W        W41515  17.763   8.275   3.444 -0.0849 -0.0871 -0.3554
26047W        W41516  16.693   3.825  12.704 -0.0175  0.1767  0.0615
26048W        W41517  16.450   9.218   4.390 -0.2751 -0.0504 -0.4178
26049W        W41518  10.938   2.522   5.841 -0.4649  0.1198  0.1651
26050W        W41519  13.133   2.829  13.644 -0.1592  0.2001 -0.1248
26051W        W41520   7.877  10.248   5.082  0.0390  0.1651  0.3103
26052W        W41521  17.110   3.661   2.517  0.0313  0.1762  0.2314
26053W        W41522   0.265   4.486   4.924  0.1850  0.2281 -0.1179
26054W        W41523   9.058   4.385   0.102  0.1799  0.2942  0.0392
26055W        W41524   4.651   5.050  13.499  0.0644  0.2295  0.0860
26056W        W41525   9.034   5.451  15.421  0.0454  0.1582 -0.1490
26057W        W41526  12.444   3.163  16.034 -0.1713  0.1184  0.4912
26058W        W41527   1.575   9.123   1.525 -0.0063 -0.0742  0.0215
26059W        W41528  15.429   4.051   1.561 -0.1386  0.0700 -0.0046
26060W        W41529  12.846   6.749  12.002  0.1473 -0.2325  0.1891
26061W        W41530   1.032   0.420   1.605 -0.0796  0.3059 -0.4933
26062W        W41531  17.282   1.591  15.472 -0.2010  0.0084  0.2592
26063W        W41532   0.053   0.334   0.683  0.0737 -0.2010  0.1019
26064W        W41533   5.107   2.655   4.426  0.2896  0.0686  0.1683
26065W        W41534   1.469   1.219  12.344  0.3019  0.2014 -0.1094
26066W        W41535  15.279  17.269  12.098  0.2112  0.1265 -0.1650
26067W        W41536  11.265   7.666   2.539 -0.0057  0.2252  0.2489
26068W        W41537   9.357  17.255   1.009 -0.2281  0.0546  0.1297
26069W        W41538   0.999   2.961   3.838 -0.2267  0.2339  0.0862
26070W        W41539   9.479   2.170   5.019 -0.0659  0.1767  0.1631
26071W        W41540   1.205   6.728  11.380  0.0660  0.1597 -0.0261
26072W        W41541   0.186   4.536  11.587  0.0078  0.0539 -0.1570
26073W        W41542  10.974  13.109  14.788  0.1900 -0.0789  0.0715
26074W        W41543  17.080   4.322  16.191  0.1878 -0.2523  0.0685
26075W        W41544   0.855  17.576   2.447  0.2537 -0.0065  0.0964
26076W        W41545   1.861   6.654   0.258 -0.2243 -0.0465 -0.1088
26077W        W41546   1.255  12.213  14.871  0.1582 -0.2697  0.1919
26078W        W41547  15.518   0.425   0.559 -0.1517  0.0583 -0.0774
26079W        W41548  10.372   7.880  11.980  0.1350 -0.0857  0.2633
26080W        W41549   8.850   6.555   6.252 -0.0375 -0.1234 -0.1070
26081W        W41550  15.564  17.188  11.705 -0.0048 -0.0081  0.0499
26082W        W41551   3.209   1.916  15.648  0.0949 -0.0081  0.1335
26083W        W41552   8.623  11.098  16.046 -0.2077  0.4723  0.0415
26084W        W41553  15.201   6.164   0.124  0.0831  0.2527 -0.1070
26085W        W41554   4.170  15.127  13.945  0.3860 -0.2610  0.1919
26086W        W41555  15.559  12.029   1.761 -0.4336  0.0290  0.1622
26087W        W41556  16.426   3.467  12.403 -0.1144 -0.0186  0.0194
26088W        W41557  11.185  13.595  12.150  0.1819  0.0025 -0.3746
26089W        W41558   9.893  17.240   5.012 -0.0441  0.0263 -0.0126
26090W        W41559   9.903  17.321   0.269 -0.0089  0.1421  0.1843
26091W        W41560   9.579   2.578   5.329  0.0872  0.0233 -0.1360
26092W        W41561   7.570  11.696  15.776  0.0236  0.2951  0.0116
26093W        W41562  10.282   2.822   3.951  0.1371  0.2029 -0.3190
26094W        W41563  14.807   4.053  13.284 -0.0520  0.1311  0.0457
26095W        W41564  13.890   8.383  11.592 -0.0982 -0.1802  0.1440
26096W        W41565  16.791  11.716  15.012  0.0658 -0.1345  0.1590
26097W        W41566   5.953   9.836  11.496  0.0280 -0.0840 -0.2039
26098W        W41567  10.120  14.262  16.240  0.0113  0.0324  0.2266
26099W        W41568   3.282   6.271   0.607  0.1112  0.0037  0.0484
26100W        W41569  11.939  16.762  11.840  0.2031  0.2068  0.3876
26101W        W41570   2.181   2.860  13.304 -0.0548 -0.0077 -0.1354
26102W        W41571  15.593  16.952   1.036  0.1188  0.0548 -0.2681
26103W        W41572  15.002  17.803  12.057  0.2019 -0.2240  0.3046
26104W        W41573  13.062  12.934  13.115 -0.1770 -0.1046 -0.2452
26105W        W41574  15.082   4.801  10.303  0.1943  0.1915  0.1959
26106W        W41575   5.367   1.164   1.442  0.1119 -0.1621  0.2212
26107W        W41576  15.442   7.363   5.281  0.0412  0.1088 -0.0603
26108W        W41577  11.077   2.950   1.166  0.1678 -0.0834  0.2724
26109W        W41578  14.895  11.796   0.904  0.3483 -0.0031  0.1853
26110W        W41579   2.934   1.614   5.578 -0.0104  0.3915 -0.1309
26111W        W41580   2.368   6.374  14.716 -0.0869 -0.0192  0.3739
26112W        W41581  12.456   8.264   5.056 -0.1048 -0.1720  0.1543
26113W        W41582   2.294  12.956  11.201  0.2487 -0.0552  0.1062
26114W        W41583   9.868  14.641  14.878 -0.1940  0.1712  0.0581
26115W        W41584  13.326   7.797  13.088 -0.1291  0.0429 -0.2106
26116W        W41585   7.998  14.164   5.622  0.0110  0.0236 -0.1066
26117W        W41586   3.837   4.533  10.384  0.1264 -0.1708 -0.2173
26118W        W41587  13.208  18.015  12.749  0.2187  0.3452  0.0301
26119W        W41588  12.137  13.075  15.792  0.0286 -0.3434 -0.2602
26120W        W41589  12.538   5.141   0.112 -0.1456  0.4386 -0.0461
26121W        W41590   6.673  15.890  10.586  0.3675  0.1552  0.0201
26122W        W41591  14.669   6.842   5.305  0.1155  0.0994 -0.0518
26123W        W41592  15.678   2.035  15.139 -0.0211 -0.0223  0.0885
26124W        W41593   2.607   7.850  12.771  0.2603 -0.0539 -0.0387
26125W        W41594  13.167   6.174   3.441  0.1216  0.3449 -0.3333
26126W        W41595  12.436  16.840  15.120  0.2109  0.1258  0.1998
26127W        W41596  16.612  10.576   5.310 -0.0828  0.0961  0.0604
26128W        W41597   6.472   4.712  12.180  0.2687 -0.2998  0.0169
26129W        W41598   1.504   1.695   2.502  0.1779 -0.0768 -0.2233
26130W        W41599   0.461   7.748  11.490 -0.0207 -0.1457 -0.1734
26131W        W41600  10.167  12.445  11.900 -0.3681  0.0564 -0.0491
26132W        W41601  11.776   4.343  12.600 -0.0018  0.2151 -0.1031
26133W        W41602   0.273   5.071   1.043 -0.0244  0.0076  0.0212
26134W        W41603  18.091  14.387  14.951 -0.1188  0.1998  0.4209
26135W        W41604  16.760  16.459   2.626 -0.3681 -0.1232  0.0520
26136W        W41605  18.035  15.527  15.610 -0.0381 -0.0004  0.2358
26137W        W41606   3.863  15.798   2.661 -0.0919  0.1871  0.1246
26138W        W41607   0.941  14.910   0.247  0.1484  0.2577  0.0005
26139W        W41608  16.913  12.869   0.796 -0.2611 -0.0433  0.2192
26140W        W41609   6.907  12.046  10.404 -0.0594 -0.3451  0.2162
26141W        W41610   8.997  13.729   1.798 -0.1473  0.1003 -0.1439
26142W        W41611  11.598  17.509  12.316 -0.1680 -0.0042 -0.0458
26143W        W41612   9.369  13.628  13.015 -0.0746  0.0026 -0.0319
26144W        W41613  17.596   0.702  11.182 -0.0909 -0.2335 -0.1573
26145W        W41614  10.704   4.433  11.696  0.2579  0.3226  0.0099
26146W        W41615   5.461   5.415   1.054  0.1787  0.0173  0.0899
26147W        W41616   0.950  12.023   3.954  0.1467  0.1455 -0.0310
26148W        W41617   3.804   6.948  15.658 -0.0678 -0.0210 -0.0242
26149W        W41618  11.971   2.807  12.600  0.0950 -0.0652  0.2385
26150W        W41619   9.667   4.675   1.786 -0.1960 -0.3399  0.2682
26151W        W41620  13.617   5.294  12.628  0.2039 -0.0982  0.2256
26152W        W41621  16.315   9.895   3.428  0.0323  0.0130  0.0199
26153W        W41622  15.234   8.211  11.587 -0.1020 -0.3330  0.0373
26154W        W41623   1.545  14.296   5.235  0.3263 -0.0024 -0.1707
26155W        W41624   3.715  11.512   0.751 -0.4561  0.0979  0.0229
26156W        W41625  15.886  15.538  11.695  0.0219  0.1843  0.0641
26157W        W41626   6.319   6.788   3.760 -0.0955 -0.0811 -0.0743
26158W        W41627  13.282   4.757   3.152  0.2380 -0.0567  0.0955
26159W        W41628  10.837   9.426  15.258 -0.1098  0.0915  0.0410
26160W        W41629   4.599   0.627  11.421 -0.0369  0.0500  0.0516
26161W        W41630  13.623   7.368  14.898  0.1185 -0.4159 -0.0038
26162W        W41631   9.025   2.296   1.662 -0.0852  0.0148  0.0592
26163W        W41632   7.948   5.376  13.060 -0.1010 -0.3046 -0.1025
26164W        W41633   7.569   3.722  14.915  0.1115  0.0120 -0.1882
26165W        W41634   5.316   7.717  15.159 -0.0094 -0.3156 -0.1399
26166W        W41635   1.648   7.667   5.958  0.0413 -0.0254 -0.0528
26167W        W41636   7.165  16.974   0.137 -0.0755 -0.0705 -0.1976
26168W        W41637  17.164   9.361  16.083 -0.2034 -0.1919  0.3649
26169W        W41638  12.724   4.698   4.206  0.1672 -0.1639 -0.2191
26170W        W41639   3.090  12.312   1.093  0.1707 -0.2786  0.0281
26171W        W41640   2.549   6.198  12.531 -0.2944 -0.0246 -0.3663
26172W        W41641   3.876   3.734   1.101 -0.0904 -0.2242  0.4441
26173W        W41642   4.876   0.289   2.875  0.0767 -0.2226 -0.0017
26174W        W41643   1.954  14.984   1.634  0.1058  0.3884  0.2536
26175W        W41644   5.520   9.038  13.585  0.0487 -0.2102 -0.0588
26176W        W41645  12.523   4.052   3.494  0.0223  0.0908  0.1853
26177W        W41646  16.491  10.581   3.940 -0.2326  0.1276  0.0098
26178W        W41647  17.247  14.673   4.231 -0.2355  0.0951  0.0314
26179W        W41648  15.043   9.263   3.942 -0.4060 -0.0726 -0.1504
26180W        W41649  14.269  13.444   2.854 -0.0618 -0.0193  0.1080
26181W        W41650  15.964   4.535   5.992 -0.0729 -0.2440 -0.2965
26182W        W41651   7.864  14.732   3.604  0.0574  0.1106 -0.0501
26183W        W41652  10.262   7.671  12.575  0.2038  0.2134 -0.1127
26184W        W41653  16.527  15.304  10.405 -0.2602 -0.1141  0.0125
26185W        W41654   8.656  12.447  13.052 -0.2062  0.2117  0.2550
26186W        W41655  13.609  17.681   4.224 -0.2143  0.0174 -0.0971
26187W        W41656   4.725  12.428  12.684  0.0060 -0.3903  0.1898
26188W        W41657  13.337   2.974  12.698 -0.0180  0.2462  0.3201
26189W        W41658  11.479  12.064   0.760  0.1552  0.1046 -0.0225
26190W        W41659  13.233   0.256  13.139 -0.1304 -0.1936  0.0982
26191W        W41660   3.827   7.650   3.354 -0.3557  0.0204 -0.1431
26192W        W41661   8.220   3.171   1.656 -0.1978  0.0115  0.0460
26193W        W41662  12.412   6.401  14.210 -0.1663 -0.0860 -0.0707
26194W        W41663  10.257  16.257  11.298 -0.0427  0.1216 -0.0789
26195W        W41664   0.810  12.181   2.451  0.0157 -0.0760 -0.4608
26196W        W41665   8.134   8.798   0.220  0.0857  0.1662 -0.1749
26197W        W41666   3.352  12.424  12.681  0.0397  0.1632 -0.0664
26198W        W41667   4.666   4.864  11.266 -0.0660  0.0003  0.1973
26199W        W41668  14.708   5.080   2.133 -0.3436  0.2184 -0.0259
26200W        W41669   4.354  10.800  12.081  0.2767  0.2711  0.0862
26201W        W41670   8.123  11.383   2.893 -0.4164 -0.3008  0.1601
26202W        W41671   0.006   1.230  16.303  0.0652  0.2589 -0.0198
26203W        W41672   4.584   1.503   4.866  0.3011  0.1336 -0.0173
26204W        W41673   6.952  12.536  11.902 -0.4631 -0.2927 -0.0935
26205W        W41674   1.601   9.690  13.716 -0.1226 -0.0109  0.3705
26206W        W41675  17.228  12.178   5.011  0.1508 -0.2315 -0.0446
26207W        W41676   3.702  16.264   5.499  0.0552  0.1173  0.1343
26208W        W41677  16.699  10.705   3.169  0.1784 -0.1136 -0.0133
26209W        W41678  12.775   6.366  14.689  0.0914  0.1384  0.0685
26210W        W41679   6.454  11.032  11.657  0.0286  0.0035 -0.0912
26211W        W41680  14.054  13.025   0.691 -0.2123  0.3471  0.0378
26212W        W41681  13.322  10.283  13.895  0.2068 -0.0509 -0.0952
26213W        W41682  15.073   2.659   3.286 -0.3052  0.1656  0.2354
26214W        W41683  17.099   7.561   5.597 -0.1614  0.0693 -0.1903
26215W        W41684   3.125  17.810  16.233  0.1132  0.0863 -0.2358
26216W        W41685  11.730   7.207  15.170 -0.0252 -0.0197 -0.2157
26217W        W41686  10.325  18.001   5.603  0.0963 -0.0036 -0.2257
26218W        W41687  12.011  10.032  15.697  0.0669  0.3565 -0.1363
26219W        W41688   0.943   8.114   0.528  0.0936  0.0169  0.1854
26220W        W41689  12.253  10.797   5.279  0.0018 -0.0373  0.1117
26221W        W41690   3.150   6.639  15.085  0.1325 -0.1763 -0.0984
26222W        W41691  11.070   2.673  15.645 -0.1171 -0.0022  0.0436
26223W        W41692  11.487   1.809   0.004  0.1735 -0.2410 -0.0707
26224W        W41693  14.714  14.960   1.940 -0.2920  0.2361 -0.1502
26225W        W41694   4.131   4.459   0.404  0.1077 -0.0351 -0.0964
26226W        W41695  16.406  17.928   1.436 -0.2128 -0.0841  0.0989
26227W        W41696  13.806  15.071  15.179 -0.1563  0.0782 -0.1882
26228W        W41697   0.839   8.483   5.045 -0.1880  0.1113 -0.2602
26229W        W41698  15.944  16.656   1.991  0.3642  0.0759  0.1518
26230W        W41699  12.712   3.003  14.319  0.0991  0.0213  0.0473
26231W        W41700   3.900   9.496  12.965 -0.3375 -0.0033 -0.1115
26232W        W41701   3.867   9.635   5.080 -0.0862  0.0962 -0.0316
26233W        W41702   8.571  13.776  12.724  0.3085 -0.1794  0.1777
26234W        W41703   8.704   7.334   5.921 -0.0563 -0.1430  0.3614
26235W        W41704  17.884   3.874  14.717 -0.0772  0.0600  0.2397
26236W        W41705  14.435   6.238   0.664 -0.0001 -0.0677 -0.0531
26237W        W41706  15.925   8.963   5.020 -0.1529 -0.0523  0.0986
26238W        W41707  13.529  14.006  12.332  0.0236  0.1028 -0.0837
26239W        W41708   6.675   7.680   0.224 -0.0766  0.3113  0.2823
26240W        W41709   4.488  11.537  14.364  0.1588 -0.0203  0.0136
26241W        W41710  10.837   4.529  12.698  0.1084 -0.0660  0.2761
26242W        W41711  16.275  15.189   3.636 -0.0080  0.0058 -0.1074
26243W        W41712   7.564  10.301   1.011 -0.0744  0.0760 -0.0978
26244W        W41713  14.149  14.382   0.636  0.2980  0.1782 -0.3422
26245W        W41714   1.802  16.524  11.156 -0.3435  0.0039 -0.0796
26246W        W41715  11.755  15.496   2.429  0.1678 -0.1111 -0.1534
26247W        W41716  12.685   4.487   0.880  0.1063 -0.1446  0.0906
26248W        W41717  15.026  10.707  12.755 -0.1506  0.0212  0.1035
26249W        W41718  12.079   9.730   4.499  0.0703 -0.0658  0.0561
26250W        W41719   9.612  17.207  12.740  0.3012  0.3575 -0.1614
26251W        W41720   2.048   8.126   0.610 -0.2136  0.1181  0.1056
26252W        W41721  10.591   0.469   0.945 -0.1107  0.0407  0.2325
26253W        W41722   0.017  13.141  16.288  0.1731  0.0071 -0.0646
26254W        W41723   8.238   8.185   0.533  0.2130  0.1085 -0.0604
26255W        W41724   7.519   8.164   4.201  0.1289 -0.4659  0.1333
26256W        W41725  16.927  15.138   5.633  0.1366  0.1183  0.1099
26257W        W41726   6.885  14.274   1.263 -0.1227  0.1528  0.0748
26258W        W41727  13.025   7.764  14.111  0.0030 -0.2201  0.0791
26259W        W41728  14.824  11.955   5.335 -0.2024 -0.0274 -0.0806
26260W        W41729  14.305  17.574  10.391  0.3144 -0.1807 -0.0989
26261W        W41730  16.011  14.646   4.801  0.2892 -0.0547  0.1776
26262W        W41731   1.026  10.010   4.307 -0.1712 -0.0283 -0.2450
26263W        W41732  17.417   0.316   1.501  0.2351  0.2845 -0.2477
26264W        W41733  11.351   4.514   2.010 -0.2058  0.1812 -0.1296
26265W        W41734   1.176  12.000   2.714 -0.1095 -0.0850 -0.2024
26266W        W41735   8.457   0.262   0.716 -0.0450 -0.5578  0.4281
26267W        W41736   3.166   2.711   3.658  0.0009  0.0637  0.3171
26268W        W41737   9.253  10.088  12.553 -0.2671 -0.0635  0.0170
26269W        W41738   3.752  14.152  11.550 -0.2177  0.1340 -0.3818
26270W        W41739   7.428   4.292   4.003 -0.3200  0.0096  0.1253
26271W        W41740  14.624   1.432  12.115  0.0968 -0.1346  0.3462
26272W        W41741  12.844  15.498   4.448  0.1040  0.1114 -0.0759
26273W        W41742  11.365   7.983  13.739  0.0664 -0.0469  0.0484
26274W        W41743   6.461  14.654   2.974  0.2558  0.2924 -0.2550
26275W        W41744   0.785  13.305  12.797 -0.1136  0.0966 -0.3209
26276W        W41745   4.711  11.552  16.191 -0.1272 -0.1440  0.3275
26277W        W41746   5.192  10.312  13.587 -0.0962  0.0616 -0.0338
26278W        W41747  16.023   8.623   1.260  0.2438 -0.2073  0.1045
26279W        W41748   1.888  12.571  10.193 -0.2574  0.1597  0.1169
26280W        W41749  16.538  10.265  15.774  0.0213 -0.0397  0.0674
26281W        W41750  15.795  10.849  12.965 -0.1146 -0.0620 -0.0191
26282W        W41751  18.044   2.302   1.177 -0.0791  0.1988 -0.1937
26283W        W41752   9.257  17.431  11.225  0.0777 -0.2199  0.1526
26284W        W41753  13.530   6.719   2.406  0.0138  0.2418  0.1121
26285W        W41754  16.988   5.304   4.806  0.0828 -0.0408 -0.0879
26286W        W41755   5.561  18.017  13.541 -0.0244  0.1717  0.2068
26287W        W41756   5.709   1.385  10.482 -0.0218  0.1190  0.1571
26288W        W41757   2.110   7.753  12.863  0.0985 -0.1641 -0.0027
26289W        W41758   5.458   5.756   2.681  0.1906  0.2250 -0.2115
26290W        W41759   9.797  12.278  13.641  0.3423  0.0031  0.1140
26291W        W41760  11.568  15.471  12.188 -0.1667 -0.0324 -0.1017
26292W        W41761  16.399  12.441  12.615  0.0108  0.0757 -0.0693
26293W        W41762   0.512   4.730  15.693  0.0513 -0.0756 -0.1656
26294W        W41763  16.184  15.863   4.254 -0.2068  0.0180 -0.0855
26295W        W41764  15.066   7.446  15.072  0.3146  0.1537 -0.0794
26296W        W41765  14.500   1.041   0.639 -0.0417  0.2308 -0.0761
26297W        W41766   1.444  12.706  14.909 -0.2594 -0.0786 -0.2221
26298W        W41767   9.378  14.873   2.560 -0.1807 -0.1764 -0.0176
26299W        W41768  16.286   6.071   4.819  0.2107 -0.3218  0.1214
26300W        W41769   9.136   6.777   3.868  0.0380 -0.1364  0.2798
26301W        W41770   3.311  12.838   1.874 -0.1892  0.2416  0.0039
26302W        W41771   8.327  10.368  15.238 -0.1568  0.4662  0.1861
26303W        W41772   3.029  15.272   2.339 -0.1991 -0.1907 -0.1061
26304W        W41773   1.486   5.359   3.495  0.0002  0.1204  0.4344
26305W        W41774   3.199  16.392   5.576  0.1873 -0.2427 -0.4153
26306W        W41775  14.761  16.617   3.817 -0.3963 -0.2047 -0.1988
26307W        W41776  10.234   7.985   3.815  0.1175  0.2839  0.0592
26308W        W41777   2.210  17.938   3.601  0.0246  0.2373  0.0715
26309W        W41778   2.483   8.017  12.320  0.2281 -0.0057 -0.1371
26310W        W41779   1.631   6.777  12.083  0.0368 -0.1137 -0.0731
26311W        W41780   2.150   5.404   0.822  0.0323 -0.2482  0.0249
26312W        W41781   4.504  16.055   0.733 -0.0139  0.3448 -0.0530
26313W        W41782   4.234   6.166  14.622 -0.1732  0.0268  0.3225
26314W        W41783   9.828  16.968   2.942  0.2547  0.0427 -0.0312
26315W        W41784   1.066  10.047  10.223  0.1093  0.3853  0.0555
26316W        W41785  13.964   3.092  15.136  0.1528  0.0501  0.0782
26317W        W41786   6.930   3.099   4.863 -0.0322  0.1853 -0.3134
26318W        W41787   6.306   2.483   2.231  0.1370 -0.1027 -0.1937
26319W        W41788   0.121   1.364   4.673  0.0357  0.1324  0.0981
26320W        W41789  13.072   5.397   5.619 -0.3154 -0.1530  0.0986
26321W        W41790  13.287  11.155  11.459 -0.3955  0.0979 -0.1054
26322W        W41791   6.912   9.121  12.200  0.1377  0.1629  0.1711
26323W        W41792   7.121  15.096   0.202 -0.2656 -0.0420  0.2732
26324W        W41793   6.450   3.698  15.420 -0.1202 -0.0143 -0.0802
26325W        W41794   5.135  10.505  10.486  0.1620  0.1556  0.0004
26326W        W41795  15.665   7.482   1.986  0.0601  0.1651  0.0185
26327W        W41796  16.647  11.009  14.639 -0.0948 -0.1181 -0.1517
26328W        W41797   6.237   8.115   1.993  0.0192  0.2614 -0.0169
26329W        W41798  16.351   8.784   0.524  0.0171  0.1461  0.2447
26330W        W41799  14.244   0.040   4.799  0.1283 -0.2894  0.2185
26331W        W41800   1.843   6.384   1.113 -0.4246 -0.0765 -0.3957
26332W        W41801  18.071   2.707  15.310 -0.1286 -0.0088 -0.4906
26333W        W41802   8.604  11.286  12.959 -0.0326 -0.0319  0.0179
26334W        W41803  14.730   4.220  12.358 -0.1949  0.1658  0.0472
26335W        W41804   7.217  10.395  12.810 -0.0246  0.0131  0.0474
26336W        W41805  11.952   1.280   4.802  0.1497 -0.0213 -0.2039
26337W        W41806   0.322  17.564  10.517  0.0565  0.4658 -0.3048
26338W        W41807  15.230  13.097  12.154  0.0892 -0.3320  0.0896
26339W        W41808  15.143   0.676   0.025 -0.1908  0.0023 -0.1786
26340W        W41809   9.750   2.216   5.656 -0.1939 -0.1488  0.1895
26341W        W41810   3.989   6.452  15.554  0.2962 -0.0042 -0.0516
26342W        W41811   0.191   8.246   0.403  0.0709 -0.2536 -0.0549
26343W        W41812  13.848   2.873   3.209 -0.1003  0.0908 -0.0787
26344W        W41813  15.206   7.503  13.198 -0.4913 -0.1118 -0.0631
26345W        W41814   9.804  15.664  13.619 -0.0797  0.0555 -0.0612
26346W        W41815   2.080   9.263   1.445 -0.1284  0.1081  0.1930
26347W        W41816  17.147  15.333  15.757  0.1608 -0.0561  0.2516
26348W        W41817  14.952  13.371  15.052  0.0852 -0.1129  0.1263
26349W        W41818  13.014   3.786  13.243 -0.0152 -0.0661  0.0261
26350W        W41819   2.062   1.246   4.653 -0.0625 -0.0608 -0.2270
26351W        W41820   3.935   0.586  13.258 -0.3132  0.3998 -0.0171
26352W        W41821   6.269  10.433   3.189 -0.1560  0.1310 -0.0611
26353W        W41822  15.745  16.128  12.588 -0.2534  0.1363  0.1900
26354W        W41823   2.368  14.781  14.305  0.2142  0.1384 -0.0247
26355W        W41824  15.243   9.055  16.154  0.1362  0.0716 -0.0591
26356W        W41825   8.307   4.472   5.390  0.0293  0.0592 -0.2040
26357W        W41826   1.261   9.544   4.637 -0.0425  0.0806  0.2751
26358W        W41827   9.713   6.948   2.118 -0.1748 -0.0087 -0.2650
26359W        W41828   7.495   8.720  15.838 -0.1397  0.1772 -0.0119
26360W        W41829   7.495   5.132  13.167  0.1371  0.1865  0.1233
26361W        W41830   8.226  16.981   5.467  0.5160  0.2194 -0.2257
26362W        W41831   9.448  13.183  13.780 -0.2300 -0.0626  0.0641
26363W        W41832   1.276  16.111   0.528 -0.1733 -0.1377 -0.0870
26364W        W41833   5.858  15.793  14.241  0.2056  0.1011  0.1244
26365W        W41834  12.384   6.226   3.509 -0.1153  0.0518  0.0715
26366W        W41835   2.801  14.324   0.604 -0.3747  0.3195  0.2529
26367W        W41836   4.442  17.563   1.920 -0.1083 -0.0357  0.2587
26368W        W41837   3.163  14.515   4.362 -0.0145 -0.2629  0.1033
26369W        W41838   0.033   2.201   0.579 -0.2005 -0.3804  0.0051
26370W        W41839   7.086  17.246   3.028 -0.0319 -0.0005 -0.1433
26371W        W41840   1.711   4.506  15.952  0.1168 -0.0433 -0.2336
26372W        W41841  16.052   8.480  16.179  0.0923  0.3578 -0.0589
26373W        W41842  15.878  16.078  11.732  0.0934  0.0286  0.0383
26374W        W41843   2.610  16.857  12.824  0.0366 -0.0332  0.0921
26375W        W41844   8.292  17.763   4.687  0.1369  0.1374 -0.4264
26376W        W41845  14.332   0.113  11.540  0.1475  0.1107 -0.2970
26377W        W41846   6.035   8.878  15.465 -0.0849  0.1184 -0.1336
26378W        W41847  15.612   9.847  11.732  0.1022  0.1656 -0.0495
26379W        W41848  17.621   9.097   1.782 -0.1551 -0.0520 -0.2661
26380W        W41849   5.476   2.259  15.824 -0.1428  0.1268 -0.0182
26381W        W41850  17.248   2.799   3.899  0.1784  0.0454 -0.0541
26382W        W41851  13.868   8.612  12.928  0.0522  0.0161 -0.0171
26383W        W41852   4.887   8.792  11.256  0.0928 -0.3142  0.0541
26384W        W41853  11.191   7.245   4.621  0.0527 -0.1558 -0.1326
26385W        W41854   6.936  11.639  13.568 -0.0633 -0.1350 -0.2546
26386W        W41855  17.747   7.948  12.215 -0.0777 -0.0260 -0.2423
26387W        W41856   4.097   6.432  13.421  0.0594  0.0882 -0.1766
26388W        W41857   5.515   7.460   6.069 -0.2410 -0.1248  0.3199
26389W        W41858  15.205   1.304   4.761  0.1296  0.1532  0.2287
26390W        W41859   3.894  14.124  12.896  0.0209  0.0257  0.1058
26391W        W41860   1.609   1.008   5.791 -0.2616  0.1006  0.0730
26392W        W41861  11.348  17.159  11.069 -0.1646 -0.0541 -0.1892
26393W        W41862   8.739   6.650   2.148  0.2411  0.1802  0.0141
26394W        W41863  11.179   4.103   2.357 -0.0231 -0.1572 -0.0407
26395W        W41864  14.157  14.447  15.398  0.2094 -0.0943  0.2733
26396W        W41865   1.100   3.119  14.121  0.0755  0.1098 -0.0332
26397W        W41866   6.970  12.942   2.861 -0.0601 -0.0033 -0.2743
26398W        W41867   7.654   2.026   3.172  0.2542  0.0913  0.2345
26399W        W41868   6.743  16.921  15.494  0.0728 -0.0727  0.0695
26400W        W41869   1.792  15.878   5.016 -0.1869 -0.2420  0.3383
26401W        W41870   6.165  13.898  10.813  0.0483  0.2779  0.0805
26402W        W41871   9.708   0.338   3.936  0.2991 -0.1264  0.0516
26403W        W41872  15.703   8.885   1.788  0.0435 -0.0790  0.0634
26404W        W41873  10.639  10.287  14.796 -0.2128 -0.1176 -0.0380
26405W        W41874  16.142   0.161   1.789  0.0810  0.0218  0.0521
26406W        W41875   2.276   9.960  11.066 -0.2065 -0.2857  0.2410
26407W        W41876  10.934   4.913   3.214  0.1027 -0.2232  0.0256
26408W        W41877   8.403   4.629  12.835 -0.0896 -0.1491 -0.0266
26409W        W41878   1.537   4.942  15.820  0.1438 -0.4304  0.0468
26410W        W41879   1.699   8.364  11.681  0.0532 -0.1481 -0.4047
26411W        W41880   9.287  10.921   0.371  0.1275 -0.1969  0.1453
26412W        W41881   4.324   8.982   5.027  0.1197 -0.0442 -0.1023
26413W        W41882   0.503   0.431  12.601 -0.0051 -0.2981 -0.0213
26414W        W41883   8.592  13.731  16.097  0.2246  0.0837  0.0951
26415W        W41884   7.313   9.899   0.764  0.0300  0.4172  0.2604
26416W        W41885   9.174   6.803   1.044 -0.1448  0.0123  0.1968
26417W        W41886  10.278   1.823   2.709 -0.1074  0.0622 -0.1450
26418W        W41887   2.354   1.395  15.464  0.0593  0.3243 -0.3339
26419W        W41888  15.982   8.451  13.688 -0.0074 -0.0900 -0.0769
26420W        W41889   1.563   8.824   3.987 -0.3912 -0.1034 -0.0768
26421W        W41890  10.245  13.421   3.855 -0.2470 -0.0354  0.0033
26422W        W41891  12.049   0.899  13.136  0.0785  0.2385  0.1355
26423W        W41892  17.459   3.728  10.008  0.3295 -0.3566  0.0195
26424W        W41893  13.940  15.540  12.905  0.0253 -0.1303  0.3193
26425W        W41894   5.207  11.548  12.112  0.1718 -0.1362 -0.1301
26426W        W41895  11.896  13.377  13.091 -0.1576  0.3444 -0.3560
26427W        W41896   7.522  17.427   3.525  0.0120 -0.1350 -0.3252
26428W        W41897   7.105  13.854   1.362 -0.2823 -0.2873 -0.1946
26429W        W41898  15.936   1.243  14.442  0.0740 -0.0271  0.1604
26430W        W41899   0.118  15.855  10.361 -0.3259 -0.1057 -0.0052
26431W        W41900   5.643   1.559  14.975 -0.1169  0.0356 -0.1340
26432W        W41901   6.492  10.657  15.661  0.2309 -0.0377 -0.3376
26433W        W41902  10.885  14.347  12.496 -0.0401 -0.0264  0.2253
26434W        W41903   9.524   1.174  14.972 -0.4253  0.0547 -0.0840
26435W        W41904  12.317   3.829   4.462  0.3504 -0.0906 -0.0696
26436W        W41905   5.123  12.070  15.311 -0.0774 -0.1751 -0.0018
26437W        W41906   7.063  16.582  11.074  0.1485 -0.1331  0.2135
26438W        W41907   2.507   0.439  11.692  0.1370  0.0552  0.2255
26439W        W41908   5.794  15.179   2.696  0.0276 -0.0356 -0.2184
26440W        W41909   5.318  12.597  14.429  0.2763  0.2160  0.0447
26441W        W41910   3.790   7.315  13.656 -0.1443  0.2349  0.1468
26442W        W41911   2.575   1.624  14.479 -0.1051  0.0644 -0.1574
26443W        W41912   1.575   1.662  10.844 -0.0305 -0.0489  0.0999
26444W        W41913   6.014   6.273   5.682 -0.0233  0.3780  0.2358
26445W        W41914   5.709   9.131   1.738  0.5391 -0.1780  0.0664
26446W        W41915   9.632   0.320  15.611 -0.1092  0.1252 -0.1238
26447W        W41916   4.775   7.364   1.214 -0.2305  0.0653  0.0270
26448W        W41917   3.761   3.374  14.814 -0.2162 -0.1044  0.0491
26449W        W41918   0.526   1.563   4.955  0.3411 -0.1658 -0.0731
26450W        W41919   4.782   7.854  11.318  0.0021 -0.2901 -0.0337
26451W        W41920  11.389  16.462  15.879 -0.0490 -0.0918 -0.1647
26452W        W41921  14.412  14.019  15.424  0.0957  0.0349 -0.0328
26453W        W41922   3.304  17.430  11.985  0.0876 -0.0551 -0.2284
26454W        W41923  11.983  14.283   5.443  0.0638 -0.0946 -0.1833
26455W        W41924  17.555   0.664  14.289  0.0371  0.0570 -0.1038
26456W        W41925   4.875   0.220   1.564  0.2137  0.0139 -0.0217
26457W        W41926   1.119  10.957  13.907  0.0169 -0.0885 -0.3547
26458W        W41927   3.254   0.426  15.739  0.0777  0.2471 -0.2037
26459W        W41928   6.004  11.917   1.250 -0.4715  0.2998 -0.0180
26460W        W41929  10.426  12.286  13.203 -0.0601  0.0791  0.0554
26461W        W41930   4.755   8.231  15.677  0.0175 -0.0495  0.2237
26462W        W41931  16.408   2.890   1.377 -0.0063 -0.1276 -0.1448
26463W        W41932   2.402   7.596   5.253 -0.1025  0.0467  0.0302
26464W        W41933  11.414   6.546   0.802  0.0448 -0.1683 -0.2178
26465W        W41934   1.180  11.816  12.200  0.1526 -0.0290 -0.0479
26466W        W41935  17.747   4.976  12.390 -0.0327  0.0203  0.4894
26467W        W41936   9.823   7.295  15.030 -0.1210 -0.1015  0.2238
26468W        W41937   0.696   1.925   4.092 -0.3632  0.5730 -0.0453
26469W        W41938   8.755   6.557   4.101  0.3123  0.3037 -0.0431
26470W        W41939   0.904   2.394   0.807 -0.1781  0.1150  0.1583
26471W        W41940  15.376   3.905   3.018 -0.1562  0.1050  0.1592
26472W        W41941   2.255   1.488   1.097 -0.1826  0.1854  0.2717
26473W        W41942   4.304   6.741   3.078  0.1127  0.0779  0.5162
26474W        W41943  11.784   0.840   5.027  0.1989  0.1558  0.1132
26475W        W41944   4.351   5.789   4.751  0.0886  0.0742  0.1674
26476W        W41945   3.033   3.242   5.337  0.0448 -0.1652 -0.2011
26477W        W41946   4.064   5.500  16.088  0.0330 -0.3867 -0.0176
26478W        W41947   2.004  14.973   2.894  0.0645  0.0738 -0.3762
26479W        W41948   8.852  12.155   1.003 -0.1299  0.0138 -0.1217
26480W        W41949   5.626   1.065   0.989  0.0903 -0.0214 -0.0579
26481W        W41950  11.649   2.497   4.518  0.0069 -0.0445  0.2013
26482W        W41951   8.100   3.629  13.431  0.2358 -0.2498  0.0554
26483W        W41952  12.660  16.353  12.675  0.1704  0.3053 -0.1788
26484W        W41953   8.944  14.172  15.331 -0.0609  0.0310  0.0229
26485W        W41954  14.226  12.632   2.355 -0.1824 -0.2271 -0.0060
26486W        W41955   5.011  17.478   5.369 -0.0282  0.4689 -0.2670
26487W        W41956   1.770   1.154  13.236  0.2120 -0.2359  0.1376
26488W        W41957   4.882   2.912  11.378  0.1359  0.2565 -0.0825
26489W        W41958   0.016   2.604   5.850  0.0794 -0.1417 -0.1738
26490W        W41959   8.094   0.169  15.636 -0.0786 -0.3060  0.2789
26491W        W41960   0.972   7.303  12.031  0.0988  0.0028  0.2061
26492W        W41961   7.979  18.012  12.129  0.0237 -0.2499 -0.0572
26493W        W41962   7.608   5.822  14.213 -0.0459  0.0150  0.0957
26494W        W41963   2.346   3.084  12.006  0.1801 -0.1040 -0.2270
26495W        W41964  17.075   1.991  13.690  0.0601 -0.1012 -0.1773
26496W        W41965   0.845  17.253  12.805 -0.0127 -0.1971  0.1564
26497W        W41966   9.828  15.549   4.256  0.0326 -0.2136 -0.0630
26498W        W41967  16.943   8.819   0.783 -0.1130  0.2725 -0.2606
26499W        W41968  12.463  11.787   0.995  0.2720 -0.0454  0.0567
26500W        W41969  10.771  12.523  12.927  0.0312 -0.2766  0.0583
26501W        W41970  17.255   9.859  14.556 -0.1263  0.1587 -0.0768
26502W        W41971   3.586   7.399   1.062  0.2032 -0.4865  0.0689
26503W        W41972  15.957  15.299   1.385  0.1049 -0.2604 -0.0722
26504W        W41973   2.419  15.529   0.938 -0.0902 -0.2288 -0.0174
26505W        W41974   5.450   3.325   3.708  0.0569 -0.1007  0.1988
26506W        W41975  11.306   5.102  14.555  0.3564  0.0714  0.0123
26507W        W41976  10.043   1.210  13.965 -0.0303  0.1523  0.1529
26508W        W41977  16.943   6.562  11.761  0.0877  0.2487  0.0630
26509W        W41978   1.615  11.534  14.349 -0.1236  0.2079  0.1532
26510W        W41979   7.682  11.404   1.490  0.1025  0.2424 -0.0044
26511W        W41980  14.640   8.774   3.241 -0.1864 -0.0369  0.3243
26512W        W41981   3.651   3.250   3.389 -0.2104 -0.2072  0.2070
26513W        W41982  11.237   2.639   5.020 -0.1061 -0.0917  0.0270
26514W        W41983   6.324  16.773   3.625  0.1402  0.2554  0.1728
26515W        W41984  16.283  16.112  13.838 -0.1596 -0.1343  0.0182
26516W        W41985  16.126   7.405  12.865  0.0025  0.1057 -0.1149
26517W        W41986   3.953   3.263  15.301 -0.0678  0.1034 -0.0816
26518W        W41987   5.717  16.681  14.459  0.0906 -0.0252  0.1414
26519W        W41988   3.646   5.745  11.324  0.0612 -0.2286 -0.2296
26520W        W41989  13.313   4.489  10.938 -0.0421 -0.2028  0.2478
26521W        W41990   7.486   0.838  12.565  0.2769 -0.1095  0.1278
26522W        W41991  11.001  12.201  12.497 -0.1383 -0.0651 -0.0389
26523W        W41992   5.297   0.985  13.374 -0.0420 -0.2781  0.0482
26524W        W41993  16.581  15.803  14.203  0.0813 -0.1151  0.0375
26525W        W41994   5.906   1.154   5.074 -0.2754 -0.1055 -0.1220
26526W        W41995   6.674  10.897   5.340 -0.1927  0.1664 -0.3187
26527W        W41996  11.637   6.789  14.639  0.0714 -0.3341  0.0410
26528W        W41997   5.753   7.856   6.011 -0.1751  0.2643 -0.3421
26529W        W41998  13.644   8.517   3.884 -0.0739  0.0371 -0.3455
26530W        W41999  16.782  11.176  11.838 -0.2006  0.0782  0.4039
26531W        W42000   6.157   7.087   5.226  0.2119  0.0053  0.0503
26532W        W42001   2.047   0.064   3.159  0.1859  0.2648  0.1863
26533W        W42002   5.884  16.621  15.397 -0.1541 -0.0055  0.1340
26534W        W42003  16.929   8.882   5.203 -0.3506  0.1238  0.1975
26535W        W42004   8.438  13.098  12.566  0.0091 -0.1329 -0.1017
26536W        W42005  17.718   4.056  15.591 -0.1894  0.2243 -0.2274
26537W        W42006   9.318  15.402   1.641 -0.1407 -0.1849  0.0653
26538W        W42007  13.101  12.584   4.762 -0.2888  0.2592  0.0494
26539W        W42008  15.053   3.010  13.448 -0.1336 -0.1389 -0.1323
26540W        W42009  10.615   7.595  13.443  0.0416 -0.1870  0.0459
26541W        W42010   2.428   0.636  13.962  0.2254  0.1667 -0.1146
26542W        W42011  14.059  10.817   0.368 -0.3418 -0.1747  0.1300
26543W        W42012   9.711   2.771   0.075 -0.4580  0.3509 -0.0978
26544W        W42013  10.337  14.575   2.545  0.1218 -0.0972 -0.1142
26545W        W42014  13.327   9.306   2.945  0.0541  0.0186 -0.1786
26546W        W42015  15.026  15.370   1.031 -0.3032 -0.1951  0.2729
26547W        W42016   5.606   4.622   0.539  0.1331  0.0852  0.2039
26548W        W42017   1.878  17.736   3.962 -0.1926  0.1186 -0.1503
26549W        W42018   5.549   6.040   4.241 -0.0042  0.1752  0.2326
26550W        W42019   8.314  13.108   0.318  0.0089  0.0088 -0.0612
26551W        W42020  10.101   8.175   6.156  0.0551 -0.0808 -0.1559
26552W        W42021   5.383  11.259  15.802  0.0987  0.0217  0.2564
26553W        W42022  14.050   9.395  11.471  0.1358 -0.1487 -0.1770
26554W        W42023   3.377  15.567   4.038 -0.0501  0.2919  0.2605
26555W        W42024   3.062  10.989  12.670  0.1010  0.0864 -0.0318
26556W        W42025   4.576  12.330  10.783 -0.1302 -0.4179  0.1049
26557W        W42026   3.588  17.626   0.071  0.3537  0.1407 -0.0103
26558W        W42027  14.798  17.416  11.228  0.1109  0.0799 -0.0366
26559W        W42028  14.382  10.429  11.394  0.1812 -0.2287 -0.3047
26560W        W42029   1.787  14.511   4.743  0.2903  0.0981  0.1485
26561W        W42030  11.522   2.103  13.151  0.1457 -0.0025 -0.1828
26562W        W42031   2.918   4.267   1.901  0.1212 -0.3483  0.0926
26563W        W42032  11.042  12.625   0.173  0.0444  0.1714  0.2488
26564W        W42033  10.372   7.794   2.038 -0.4043 -0.4903 -0.0750
26565W        W42034  13.031   8.385  14.794  0.1486 -0.2975  0.2194
26566W        W42035  14.295   6.319   1.130 -0.0086  0.0514 -0.1928
26567W        W42036   4.982  14.644   4.024 -0.1200  0.2169  0.0284
26568W        W42037   3.340  15.510   1.476 -0.2451 -0.2175  0.1471
26569W        W42038  17.366   3.386   3.305 -0.0106 -0.1388 -0.1492
26570W        W42039  14.297  12.776  11.715  0.3494  0.1312 -0.2658
26571W        W42040   3.056   6.532  11.281  0.1232  0.2582 -0.0186
26572W        W42041   5.374   6.804   0.957 -0.0395  0.1692  0.1049
26573W        W42042  15.629   9.124  12.448 -0.0711 -0.2204 -0.1503
26574W        W42043   2.578  17.898  11.462 -0.2181  0.3000  0.0803
26575W        W42044  16.564  13.804  12.745 -0.1684  0.0023  0.0402
26576W        W42045  13.276  11.261  13.655 -0.1157  0.0479 -0.0447
26577W        W42046   1.971  12.349   3.944 -0.1132  0.1586 -0.2364
26578W        W42047  11.174  10.531   1.211 -0.0532  0.1711 -0.1951
26579W        W42048  17.483   6.475  12.735  0.1412  0.2914  0.4511
26580W        W42049   3.050  15.243   1.818  0.2194 -0.2148  0.4570
26581W        W42050  13.643  12.516  12.544  0.2456  0.1410 -0.3126
26582W        W42051  14.772  15.771   3.651 -0.0185 -0.1260  0.1406
26583W        W42052  13.824  12.020  15.636 -0.1055 -0.0105 -0.0698
26584W        W42053   6.724   2.036  15.836 -0.0039  0.0541 -0.2353
26585W        W42054   7.132   9.133   4.567  0.0931 -0.1166  0.0952
26586W        W42055   3.972  11.075  14.687  0.2228 -0.1271 -0.1842
26587W        W42056  14.086  14.149  15.834 -0.0247 -0.0296  0.0037
26588W        W42057  15.141   4.062   4.154  0.1400  0.2496  0.0002
26589W        W42058   7.643   3.879  13.646  0.1425 -0.0865 -0.0251
26590W        W42059   8.963   5.434  14.185  0.1756 -0.1349  0.1306
26591W        W42060   4.134  12.197  14.791  0.0723 -0.1731 -0.1068
26592W        W42061   3.155  10.091  10.520  0.2038  0.0824 -0.2373
26593W        W42062  10.591   5.575   0.645 -0.2209  0.0518  0.1750
26594W        W42063   3.309   2.615   2.903 -0.0965  0.0907 -0.0099
26595W        W42064  15.618   8.922   5.819 -0.1408 -0.1600  0.4532
26596W        W42065  15.866   6.129   3.063  0.3209 -0.0618  0.0934
26597W        W42066  10.769   1.642  11.090  0.0909 -0.2044  0.0852
26598W        W42067  16.715   0.927   4.979  0.0362  0.1023  0.1868
26599W        W42068  13.805  16.213   3.822  0.2510 -0.0927  0.1828
26600W        W42069   7.512   1.830  15.692  0.3479  0.0112 -0.0069
26601W        W42070  12.900   1.735   1.980  0.0280  0.0923 -0.0837
26602W        W42071  14.389  15.798   3.200 -0.0690  0.1903  0.1905
26603W        W42072   3.517  18.018   4.576  0.1006  0.0624  0.4546
26604W        W42073  10.511  13.327   0.123 -0.0709  0.2521 -0.0280
26605W        W42074   0.466   6.364   0.178 -0.1309  0.0627  0.0197
26606W        W42075   2.387   0.449  15.598  0.1359  0.1120  0.0310
26607W        W42076   7.756  15.220   0.627 -0.2558 -0.2324  0.0887
26608W        W42077  16.384   5.919  10.999 -0.1203 -0.0995 -0.1955
26609W        W42078  11.664  15.176   1.996 -0.0219  0.2682 -0.1239
26610W        W42079  12.009   7.520  11.176 -0.2444 -0.0363  0.0904
26611W        W42080  12.844   5.530  16.190 -0.1076  0.1400 -0.1120
26612W        W42081  15.742  11.037  15.103 -0.1599  0.1568  0.1203
26613W        W42082  12.527  13.704   3.814 -0.1908 -0.1241 -0.2266
26614W        W42083   7.323   2.496  12.289  0.0693 -0.2711 -0.1888
26615W        W42084  16.944   6.109  15.534 -0.0560  0.1357  0.0419
26616W        W42085  15.730  10.195   1.725 -0.2174  0.0877  0.1013
26617W        W42086  16.199   3.367   0.925  0.1893  0.0980  0.0474
26618W        W42087  18.076   5.681  12.778  0.3914  0.0546  0.2385
26619W        W42088  11.426   8.838   5.629  0.0537 -0.3866  0.0325
26620W        W42089   1.225   7.904   3.563 -0.0751  0.2477 -0.2629
26621W        W42090   1.882  13.220   3.664 -0.2102  0.2288 -0.0279
26622W        W42091  15.686   6.325   5.124  0.3781 -0.1677  0.1735
26623W        W42092   8.239   2.081  11.896 -0.1200 -0.0973 -0.0884
26624W        W42093  17.149   2.170   2.530 -0.1622 -0.1395 -0.1747
26625W        W42094  13.863   9.196  13.711 -0.1893 -0.0203 -0.1124
26626W        W42095   3.646  17.659   0.790  0.1072 -0.1286 -0.0314
26627W        W42096   7.171   0.546   5.939 -0.1324  0.1099 -0.1972
26628W        W42097  16.775  17.731  12.316 -0.1326  0.0944  0.0768
26629W        W42098   1.799  10.737  12.794  0.1203 -0.1647 -0.0211
26630W        W42099   0.378  14.929  12.703  0.0089 -0.2610  0.2815
26631W        W42100  15.362   7.965  13.255 -0.0098  0.1034 -0.0580
26632W        W42101   6.122  11.236   5.849 -0.0510 -0.2745 -0.1557
26633W        W42102  17.046   5.150  13.438  0.3213  0.0029  0.0891
26634W        W42103  13.984   3.982   2.325  0.2361 -0.1569  0.1399
26635W        W42104  16.325  17.092  12.752 -0.1599  0.2511 -0.0276
26636W        W42105   6.901   9.727  16.105  0.0579  0.0628  0.1255
26637W        W42106  12.209  16.124   1.904 -0.0924 -0.0893 -0.5881
26638W        W42107   7.928   9.844  14.319  0.4319  0.0906  0.5117
26639W        W42108  14.376   2.714  14.064 -0.0360 -0.3970 -0.1664
26640W        W42109   9.879   0.890   4.840 -0.0927  0.1052 -0.0047
26641W        W42110   4.391   7.983  13.644 -0.3643 -0.0398  0.0367
26642W        W42111   2.657   3.763  13.267 -0.2552  0.1664 -0.2416
26643W        W42112   0.797   0.508   2.061  0.0521  0.1797 -0.1283
26644W        W42113  14.996  15.826   5.186 -0.1754  0.2730 -0.1269
26645W        W42114  16.518  13.636  11.708 -0.2409  0.1073 -0.2811
26646W        W42115  12.210   9.446   0.992  0.0676 -0.1189  0.0956
26647W        W42116  16.299  13.585  13.386  0.2768 -0.2349 -0.0063
26648W        W42117  14.943  16.364  13.034  0.1144  0.2508 -0.0925
26649W        W42118  14.545   2.450  13.632  0.4102  0.2088 -0.0251
26650W        W42119   0.727  13.790   2.455 -0.1886 -0.3166 -0.1145
26651W        W42120   3.606   9.634  13.337  0.0198  0.0435  0.0601
26652W        W42121   6.179  15.991  11.480  0.2370 -0.0119 -0.0825
26653W        W42122   3.910   8.671  12.685  0.1735  0.0197 -0.1002
26654W        W42123   6.743  10.355   3.404 -0.0283  0.1308  0.0222
26655W        W42124  16.700   9.281   2.309  0.0707 -0.0940  0.3246
26656W        W42125   7.127   7.238  10.496 -0.1387  0.0657 -0.0138
26657W        W42126   9.638  17.900   2.520 -0.1778  0.4597 -0.1270
26658W        W42127   7.423  13.927  14.560 -0.1858  0.2417  0.0798
26659W        W42128  17.256   4.236   4.137 -0.0639  0.2190  0.1817
26660W        W42129  12.677  16.835  12.879  0.1230 -0.0870 -0.1430
26661W        W42130   6.580  14.514  13.290 -0.1104 -0.0973  0.1503
26662W        W42131   9.066  12.261  11.278  0.0721 -0.2262  0.1147
26663W        W42132   4.871  11.924  12.482 -0.0518  0.3553 -0.1114
26664W        W42133  11.108  11.354   2.392 -0.1651  0.0029  0.0298
26665W        W42134  17.716  10.512   3.979 -0.2064  0.2118 -0.1850
26666W        W42135   4.247   4.658   1.196 -0.0769 -0.2552  0.1744
26667W        W42136   9.694  10.169  11.104 -0.2390 -0.2474 -0.2116
26668W        W42137   1.681  15.097   5.088 -0.0609  0.0652  0.0244
26669W        W42138  11.892   0.776  14.973 -0.2027  0.0829 -0.1555
26670W        W42139  11.991  17.322   2.607 -0.1446 -0.1362  0.1180
26671W        W42140  12.314  12.199   4.862  0.0063 -0.0639 -0.1330
26672W        W42141   5.575  10.363  12.218 -0.0074  0.3725  0.3373
26673W        W42142   6.703   6.750  15.440  0.0111 -0.1915  0.1708
26674W        W42143   4.590   1.963   4.998  0.0772 -0.2033  0.3340
26675W        W42144   1.380   1.790   9.862  0.2257 -0.0620  0.2622
26676W        W42145   5.283   5.680   5.531  0.1095 -0.0938 -0.0159
26677W        W42146  15.687   0.352   5.230 -0.0203 -0.1613  0.0664
26678W        W42147   3.985  17.688   1.239  0.2128  0.1872  0.1010
26679W        W42148   0.882  13.682   0.145 -0.0034  0.0022 -0.0091
26680W        W42149   4.221  16.578   4.112 -0.0919  0.0946  0.1733
26681W        W42150   0.633  12.992   3.551  0.3182  0.1275  0.1702
26682W        W42151  10.168   9.343   3.338  0.1058 -0.0767  0.0909
26683W        W42152   7.367   8.835  13.892  0.0665 -0.1216 -0.3000
26684W        W42153  12.382   7.302  14.003  0.2673 -0.0945  0.1469
26685W        W42154   4.785   5.783   5.661  0.0955  0.1555 -0.0409
26686W        W42155   5.989   2.732   1.398 -0.0060 -0.2300  0.1385
26687W        W42156   4.693  10.138  13.481  0.1352  0.1546  0.0664
26688W        W42157   1.160  15.322  11.343  0.0163  0.1879  0.1081
26689W        W42158  10.083  15.825   9.930 -0.5646 -0.1452 -0.0088
26690W        W42159   1.213   9.814  13.984  0.1144 -0.2011  0.0562
26691W        W42160   9.250   1.159  13.585  0.1415  0.0486 -0.2186
26692W        W42161   5.126   9.753  14.809 -0.0836 -0.0305 -0.4391
26693W        W42162   5.130  17.973  15.737  0.1138  0.4276 -0.0687
26694W        W42163   7.570  13.510   5.004  0.0579  0.0453 -0.4630
26695W        W42164   0.768  10.141  13.955  0.1487 -0.0107 -0.3218
26696W        W42165   2.579  16.293   5.726  0.0298 -0.0649 -0.1402
26697W        W42166  10.108  15.965   1.064  0.0313 -0.3129  0.0723
26698W        W42167   8.661  16.066   0.705  0.2927 -0.1212  0.0081
26699W        W42168   0.057  14.529  12.775  0.0420 -0.0009  0.1423
26700W        W42169   7.144   1.424   3.833  0.1431  0.3617 -0.1162
26701W        W42170   2.255  13.716   4.159  0.0776  0.0091 -0.1745
26702W        W42171   5.413   4.007   5.225 -0.1604 -0.3415 -0.3550
26703W        W42172  16.370   9.924  11.378  0.2171 -0.1289 -0.1070
26704W        W42173  12.367  14.127   0.793  0.0358  0.1500 -0.0200
26705W        W42174   1.923   8.681  12.030 -0.1067  0.2536 -0.4433
26706W        W42175  10.184  15.503  11.456 -0.1125  0.1708 -0.1169
26707W        W42176  14.199   9.727  14.174 -0.0360  0.2411  0.1989
26708W        W42177  11.374   1.595   5.615 -0.0804 -0.2234 -0.1543
26709W        W42178   7.633   4.373  11.661 -0.0006  0.0550 -0.0344
26710W        W42179  15.029   2.129  12.652 -0.2074 -0.1685 -0.0158
26711W        W42180   2.059   6.233   0.532 -0.1354  0.1880 -0.2395
26712W        W42181   7.327   8.690   6.198  0.2507 -0.2341  0.1068
26713W        W42182  14.305   2.341   0.748  0.0064 -0.1843 -0.2734
26714W        W42183   0.593  12.433  13.879 -0.1874 -0.0408  0.1665
26715W        W42184  16.888   2.905  15.168 -0.0083  0.1339 -0.0528
26716W        W42185   2.347   7.273  15.831  0.0879  0.3290 -0.1269
26717W        W42186   0.849   1.090  12.159  0.2557 -0.0230  0.1828
26718W        W42187  11.560   1.706   4.039  0.3013  0.2169 -0.1312
26719W        W42188  12.056  13.946   1.564  0.0497 -0.0313 -0.2291
26720W        W42189   2.558  11.277  15.145  0.0889 -0.2389 -0.1297
26721W        W42190  13.852   4.481   4.464 -0.0339 -0.1722 -0.1136
26722W        W42191  12.200  12.543   0.197 -0.1186 -0.0173  0.0896
26723W        W42192   9.173   0.821   2.699 -0.2858  0.1278  0.1480
26724W        W42193   9.056   3.916  15.214 -0.0840  0.0825  0.2225
26725W        W42194  16.210  17.025   2.839 -0.1326  0.1260 -0.0133
26726W        W42195   6.126  17.361   2.161  0.1527  0.2150  0.0904
26727W        W42196   6.172   8.947   2.042 -0.1353 -0.1760  0.0040
26728W        W42197   5.096   1.443  13.461  0.1055 -0.1543  0.1308
26729W        W42198  11.569   6.568   0.309  0.0084 -0.0642 -0.0992
26730W        W42199   4.958   0.308   0.952 -0.0842 -0.3640  0.1144
26731W        W42200   8.560   8.090   0.917  0.1728  0.0178  0.0440
26732W        W42201   2.027  13.469   3.274  0.3353  0.1691  0.0894
26733W        W42202  14.330   0.635   3.029  0.2877 -0.4747  0.3663
26734W        W42203  10.769  14.210   4.889  0.3396  0.2635 -0.2070
26735W        W42204  11.454   8.582   5.179 -0.0779  0.0752 -0.1155
26736W        W42205  15.070  11.252  11.328  0.3264 -0.1594  0.3068
26737W        W42206   8.584   2.485   1.402  0.2991 -0.0883 -0.0395
26738W        W42207   2.218  11.928  11.971  0.2089  0.2561 -0.0112
26739W        W42208   0.030   7.615   3.612  0.1473  0.0503  0.2274
26740W        W42209  10.858   5.587   1.516  0.1291  0.1201 -0.0622
26741W        W42210  10.285  17.118   2.842 -0.1588 -0.1297  0.2217
26742W        W42211   1.530  15.735   3.007  0.0535  0.0112  0.0760
26743W        W42212  12.803   0.032  14.868 -0.0137  0.1285  0.1851
26744W        W42213   4.178  15.233  16.074 -0.2689 -0.2103  0.0477
26745W        W42214   1.922  10.146  13.976  0.0919  0.1607  0.2958
26746W        W42215   1.304   8.695  13.773  0.2541 -0.0597  0.0071
26747W        W42216  10.609   2.798  15.584 -0.2058 -0.0684 -0.1447
26748W        W42217   3.385   6.176   3.734 -0.3877 -0.1813  0.2548
26749W        W42218   1.421   3.083  15.857  0.0859 -0.1798 -0.1888
26750W        W42219   9.383   5.786   2.280  0.0379 -0.0933  0.1825
26751W        W42220   2.377  10.389  16.112 -0.1931 -0.0087 -0.2808
26752W        W42221  17.845  13.618  12.897  0.0985  0.0680 -0.0726
26753W        W42222  13.409  15.315  16.072 -0.2710 -0.1359 -0.0871
26754W        W42223   2.778   3.636  11.588  0.2506  0.0484 -0.2360
26755W        W42224  12.586  14.872   3.191 -0.1466 -0.0224 -0.2419
26756W        W42225   1.341   2.534  13.310 -0.0076 -0.2791 -0.1143
26757W        W42226  17.524  14.774   2.283 -0.1342 -0.2306 -0.1135
26758W        W42227  14.379   1.505   3.182 -0.3256 -0.0439  0.2000
26759W        W42228   1.815   5.232  12.264 -0.2141  0.0864  0.0459
26760W        W42229   1.360   4.368   0.520 -0.2514  0.1493 -0.0645
26761W        W42230   9.822   3.931   1.266  0.0723  0.3168 -0.0475
26762W        W42231   1.475  12.355   4.899 -0.1738  0.1245 -0.0008
26763W        W42232   7.007  16.275   1.103 -0.0592  0.3296  0.0070
26764W        W42233  11.524  12.885  11.257 -0.0931 -0.3413 -0.1125
26765W        W42234   2.724  16.591   4.669  0.0216 -0.1953 -0.0350
26766W        W42235   3.530  10.610   6.081 -0.2063 -0.2868  0.1010
26767W        W42236   5.950  14.396  15.492  0.0398  0.1532 -0.0528
26768W        W42237   5.321  16.080   4.350 -0.1738 -0.1614 -0.2329
26769W        W42238  15.042   1.271  13.136 -0.1530 -0.1453  0.2752
26770W        W42239  11.076  16.741  15.642 -0.0062  0.2160 -0.3358
26771W        W42240   5.528  16.925   4.648  0.0238  0.0170  0.0537
26772W        W42241   0.153   1.666  11.791  0.0229 -0.0546 -0.1265
26773W        W42242   2.223   0.731   4.646 -0.1071 -0.2086  0.2395
26774W        W42243   6.612   5.820   0.006  0.1772  0.0788 -0.1738
26775W        W42244  13.562  14.187  14.347 -0.1596  0.0891 -0.2218
26776W        W42245   6.473  11.006   3.885 -0.1450 -0.0858 -0.1775
26777W        W42246  13.352   1.900   5.276  0.0170 -0.0679  0.1357
26778W        W42247  17.963   9.372  15.170  0.0632  0.0505  0.1596
26779W        W42248   1.196   6.069  15.152  0.0206 -0.2065  0.1031
26780W        W42249  12.346   0.966   0.537  0.0338  0.3786  0.0386
26781W        W42250   0.145   9.847  11.259 -0.1309  0.1200 -0.2951
26782W        W42251   0.287   9.362  13.920  0.2714 -0.0304  0.1510
26783W        W42252   7.456   5.922   4.830  0.1963 -0.0959  0.1923
26784W        W42253   9.187   6.299  15.144 -0.2682 -0.4314 -0.0344
26785W        W42254   0.258   0.309   5.133  0.2210 -0.2133  0.0443
26786W        W42255   5.015   5.460  13.538  0.1857 -0.1489  0.2530
26787W        W42256  17.062   3.905  14.332 -0.1024  0.2662  0.1510
26788W        W42257   6.786  10.746  16.217  0.3708  0.0546  0.2471
26789W        W42258   3.582   8.815  11.169 -0.2605  0.2415 -0.1063
26790W        W42259  16.252   4.406   4.034  0.0104  0.2977 -0.1523
26791W        W42260  16.051   3.112   0.187 -0.0183 -0.1609 -0.0397
26792W        W42261   8.936   3.416   3.058 -0.1135  0.1155 -0.0182
26793W        W42262  17.174  17.931  10.904  0.1456 -0.0449  0.4565
26794W        W42263  15.210   2.924   4.450  0.1979 -0.3876 -0.0913
26795W        W42264  11.380  15.915   0.474  0.0492 -0.0144  0.1560
26796W        W42265   5.029  12.536   4.883 -0.0434 -0.1341  0.0214
26797W        W42266  15.673  15.898   3.222 -0.1527  0.1465  0.0806
26798W        W42267  15.847  14.711  11.392  0.1697 -0.2125 -0.3176
26799W        W42268   7.193   8.731   4.879 -0.1205  0.1892 -0.2298
26800W        W42269   9.357   1.619  16.087  0.1044  0.0047 -0.2435
26801W        W42270   6.572   0.570   3.154  0.2969  0.0017  0.0213
26802W        W42271   5.976   7.725   4.271  0.0360  0.0735  0.1667
26803W        W42272  14.407   2.860   0.845 -0.1910  0.0195  0.0413
26804W        W42273   8.130  12.524   1.402 -0.0546  0.0387  0.0192
26805W        W42274  12.231   5.250   3.510 -0.1625 -0.0512  0.1107
26806W        W42275  11.156  12.216  11.470  0.2404  0.0906 -0.1189
26807W        W42276   0.619  11.685  16.303 -0.3850  0.2068  0.1979
26808W        W42277   9.731  12.666  11.826  0.0283  0.3428  0.1936
26809W        W42278   0.777   1.907  13.804 -0.0087 -0.1579 -0.1099
26810W        W42279   6.594   0.317   4.220  0.1776 -0.4120 -0.0123
26811W        W42280   9.391   1.507   2.208  0.0592 -0.0950 -0.0975
26812W        W42281   1.230   2.579   4.749  0.0026  0.3986 -0.0913
26813W        W42282   9.613   6.970  14.174 -0.1989  0.0314  0.1078
26814W        W42283  13.807   4.833  13.880 -0.2321 -0.1929 -0.3705
26815W        W42284   2.653   2.516  14.541  0.0283 -0.0022  0.1208
26816W        W42285  15.410   9.918   5.720  0.1710 -0.2303 -0.0507
26817W        W42286  14.861  14.149  15.045 -0.0209  0.1265  0.0085
26818W        W42287  16.896   9.235   3.151  0.1583 -0.1813 -0.1116
26819W        W42288   5.662  17.450   4.668  0.0287 -0.0701  0.0304
26820W        W42289  10.420   1.907   1.685  0.3259 -0.1681  0.0577
26821W        W42290   2.170  13.835  15.220 -0.0553 -0.2935 -0.0881
26822W        W42291   5.055  17.164   4.426 -0.2653 -0.2639  0.2623
26823W        W42292  15.603   2.198  13.085 -0.0922 -0.0751  0.0004
26824W        W42293   1.820  13.042  14.600  0.1142  0.1510 -0.0156
26825W        W42294   2.734   2.176   0.128  0.0924 -0.0458  0.2111
26826W        W42295   0.581  16.826  14.753  0.1198 -0.0010 -0.3865
26827W        W42296  16.585   2.218  15.036  0.2618 -0.2485 -0.0389
26828W        W42297   2.071  11.758   1.838  0.4823 -0.0158  0.0954
26829W        W42298  14.282   9.103   3.025 -0.3508  0.0894  0.0475
26830W        W42299   2.178   8.721   4.952  0.0860  0.2232 -0.3712
26831W        W42300   0.727  12.684   5.090  0.2475  0.0998  0.1342
26832W        W42301  13.238   5.034  10.998  0.1699  0.0922 -0.3222
26833W        W42302  11.912   3.829   0.795 -0.0240 -0.2472  0.0942
26834W        W42303   2.077  16.609  14.385 -0.3514  0.5014 -0.2172
26835W        W42304   8.672  15.719  11.988  0.0608  0.0806 -0.0374
26836W        W42305  14.827  17.152   1.802  0.1179  0.3663  0.0795
26837W        W42306  14.371  12.999   4.818 -0.1167 -0.4140 -0.0173
26838W        W42307   5.801  12.653   0.853  0.3750 -0.1883 -0.0367
26839W        W42308   3.001  16.163  12.817  0.1396 -0.0728 -0.2009
26840W        W42309  17.099  16.466   3.024 -0.2264 -0.0854  0.0036
26841W        W42310  14.456  14.647   4.633  0.1118  0.1029 -0.3403
26842W        W42311   0.005   2.462   0.142 -0.1804  0.1186  0.0163
26843W        W42312  11.522   1.730  13.492 -0.3611  0.0743 -0.2520
26844W        W42313  13.797   5.008   1.645  0.2997  0.1046  0.1488
26845W        W42314   2.592  16.127  13.549  0.0901 -0.1220 -0.0464
26846W        W42315   5.488  13.190   2.291  0.0979 -0.0803  0.1837
26847W        W42316  10.782  17.159   2.782 -0.0606  0.1498 -0.2457
26848W        W42317   0.411  15.067   2.412  0.2913  0.1699  0.1964
26849W        W42318  10.878  15.251   2.601 -0.0077 -0.0571 -0.0364
26850W        W42319  12.669  13.486   5.026 -0.0450 -0.0616  0.0679
26851W        W42320  15.053   9.271   2.408  0.1001 -0.1130  0.0826
26852W        W42321   2.738   7.935   3.160  0.4022 -0.2313 -0.1360
26853W        W42322  16.232   0.725  11.974  0.1198 -0.0865  0.1506
26854W        W42323   0.152   0.217  13.009  0.0950  0.3369 -0.1271
26855W        W42324  17.845  10.763   5.587 -0.0618  0.2247 -0.0082
26856W        W42325   9.742   4.820   4.861 -0.2033 -0.1999 -0.0898
26857W        W42326  14.185   4.268  12.339  0.0605  0.0800  0.0704
26858W        W42327   1.056   2.774   4.318 -0.1774 -0.2981  0.0870
26859W        W42328   3.364   2.150  12.208  0.1092 -0.1126  0.1596
26860W        W42329   3.427  11.829  14.285 -0.0661 -0.3017 -0.3399
26861W        W42330   2.514  16.159  12.998 -0.0233  0.0897  0.1709
26862W        W42331   0.770   6.374  10.415  0.1113 -0.1117  0.1884
26863W        W42332   8.864  13.452   4.242 -0.1366 -0.1792  0.0053
26864W        W42333  11.880  12.342  14.658 -0.1470  0.2792 -0.0720
26865W        W42334   9.723   4.089  16.312 -0.2421  0.1448 -0.0468
26866W        W42335   0.748  10.575  12.787 -0.0952  0.2152  0.2075
26867W        W42336  17.632  18.031  12.308 -0.2460 -0.1411 -0.0936
26868W        W42337   0.382   0.442   4.446 -0.0968 -0.0076 -0.2506
26869W        W42338  11.445  14.512  10.680  0.1545 -0.0797  0.1319
26870W        W42339  15.686   1.398  11.423  0.2724 -0.0146 -0.0983
26871W        W42340   5.461   7.056  12.854 -0.0828  0.1087  0.2231
26872W        W42341  16.920  14.417  12.693  0.2163 -0.0413 -0.1277
26873W        W42342   8.885   2.026  11.997  0.0238 -0.1763  0.0670
26874W        W42343   6.017   4.694   0.305 -0.3591 -0.0694 -0.0433
26875W        W42344  15.045   2.452   0.349 -0.0951  0.1022  0.4153
26876W        W42345  17.470   3.665   3.681  0.0431  0.3486  0.3547
26877W        W42346  17.878   6.504  14.073 -0.3751  0.1437  0.0709
26878W        W42347   6.673   4.131  11.978  0.2994 -0.2620  0.0972
26879W        W42348  14.261  16.054   0.351 -0.2676 -0.0620  0.1625
26880W        W42349   9.243   0.509  13.117 -0.1165 -0.0107  0.2014
26881W        W42350   4.070   3.259   2.537 -0.2407 -0.1259 -0.0244
26882W        W42351  17.025   0.582   0.719  0.2119  0.1195  0.0163
26883W        W42352   4.235   9.838  11.743  0.2493 -0.2223 -0.0540
26884W        W42353   9.949  14.452   2.130  0.0440  0.1963  0.0358
26885W        W42354  13.785  13.561  11.614  0.0713 -0.3124 -0.1333
26886W        W42355   7.249   6.704   4.140  0.0656  0.1705  0.1268
26887W        W42356  15.156   9.746   3.988  0.1521  0.1631  0.1461
26888W        W42357  14.393   4.973   5.368 -0.0933 -0.0384  0.1747
26889W        W42358   9.513  12.891  11.428 -0.0552  0.1378 -0.1525
26890W        W42359   7.960   8.959   3.935  0.0203 -0.1724  0.1093
26891W        W42360  13.109  11.552  14.737  0.2995 -0.2919  0.1837
26892W        W42361  13.130   9.691   5.431  0.0276 -0.1871 -0.1375
26893W        W42362   5.810   7.802  15.076  0.0795 -0.2643  0.0186
26894W        W42363  17.822   4.274  14.058  0.2968  0.0727  0.0793
26895W        W42364  14.729  16.873  11.356  0.2326  0.3696  0.1236
26896W        W42365  17.762   3.537   2.991  0.1678  0.1917 -0.0057
26897W        W42366   3.678  11.488   2.689  0.1226  0.1153 -0.0098
26898W        W42367   6.643  10.283   4.319 -0.0374  0.0701  0.1218
26899W        W42368   9.808   7.236  13.292  0.2935 -0.0501  0.0500
26900W        W42369   6.622  17.393  11.352 -0.0931  0.0495 -0.1203
26901W        W42370   9.058   6.750   3.253 -0.1443 -0.1421  0.0093
26902W        W42371  14.801  17.297  13.759  0.0742  0.1145  0.1606
26903W        W42372  16.931   8.924  15.952 -0.0827 -0.1146  0.1538
26904W        W42373   0.630   0.738  14.050  0.1645  0.2673  0.1361
26905W        W42374   5.475   8.501   1.521 -0.0155  0.2859  0.1734
26906W        W42375   8.176  15.334  14.430  0.1316  0.0373 -0.0639
26907W        W42376   9.615   6.353   2.144 -0.3412 -0.1817  0.1775
26908W        W42377   5.842  11.443  13.256  0.0273 -0.1596 -0.2197
26909W        W42378  17.050   7.643  13.802 -0.2201 -0.0401 -0.0590
26910W        W42379  11.654  12.475   0.964  0.4443 -0.2964  0.1369
26911W        W42380  13.827  13.975   4.863  0.1210 -0.0257  0.1473
26912W        W42381   2.162  12.011   3.518  0.1077 -0.2262  0.2098
26913W        W42382  10.641   3.238   4.180  0.0500 -0.0083 -0.1780
26914W        W42383   7.383   2.395  11.497  0.0868 -0.0433 -0.1607
26915W        W42384  17.833  16.416  13.582 -0.0730  0.1861 -0.0407
26916W        W42385  11.665  14.355  14.671 -0.0905  0.1520  0.2355
26917W        W42386   4.526   4.239   5.249 -0.0523 -0.1430  0.2403
26918W        W42387   7.441  12.286   5.830  0.1424 -0.1806  0.1776
26919W        W42388  13.097   7.930   3.732 -0.0043 -0.2344  0.3749
26920W        W42389   3.603   9.415  16.071  0.0191 -0.2458  0.4157
26921W        W42390  16.377  12.868   1.464  0.0541  0.0029  0.1207
26922W        W42391   7.531   4.497   0.340 -0.0481 -0.2535  0.0722
26923W        W42392   3.952  11.294   5.206 -0.2427 -0.2111  0.0691
26924W        W42393   6.248   3.904   4.567 -0.2013  0.0053 -0.0430
26925W        W42394  17.058  10.154   0.452 -0.2108 -0.0500 -0.3729
26926W        W42395  10.248  17.674   2.974  0.2955 -0.1509 -0.2807
26927W        W42396   9.154   0.085   4.757  0.0321 -0.1843  0.2388
26928W        W42397   5.125   1.081  14.609 -0.2892  0.2118 -0.0450
26929W        W42398  12.578  13.383  14.468  0.5329 -0.0618  0.1076
26930W        W42399   4.090   4.534   5.157  0.0296  0.0132 -0.5238
26931W        W42400  11.042   7.433  13.103  0.1268 -0.1747 -0.2086
26932W        W42401   9.431   9.734  14.790  0.0215 -0.1797  0.0206
26933W        W42402   1.587   2.183  10.848 -0.1206  0.1266 -0.4046
26934W        W42403  10.633   8.407  12.736  0.4520 -0.1982  0.1870
26935W        W42404   5.738  14.154   4.416  0.0266 -0.0907 -0.0865
26936W        W42405  17.346  14.405   3.175  0.2763 -0.0270  0.3348
26937W        W42406  17.484  14.345   0.353 -0.3080 -0.0892 -0.0739
26938W        W42407   5.443  11.713  14.687 -0.1548 -0.2846  0.0849
26939W        W42408  12.926   8.378  13.226  0.1100  0.1717  0.0827
26940W        W42409   0.762  11.303  14.132 -0.1463 -0.1894 -0.0804
26941W        W42410  13.647  16.314   3.360  0.0727 -0.1837 -0.3015
26942W        W42411  11.054   6.336   0.468  0.1938 -0.3117  0.0985
26943W        W42412  16.635   7.649   1.511 -0.2102  0.3020 -0.0662
26944W        W42413  11.601   2.951   4.334 -0.1129 -0.0850 -0.0098
26945W        W42414   9.740   7.450   3.182  0.1254 -0.0688 -0.1750
26946W        W42415  16.422   0.201   0.394  0.2209 -0.1382 -0.1443
26947W        W42416  17.830   1.978  12.908  0.3743 -0.3396 -0.1328
26948W        W42417  16.354   5.523   2.898  0.1584  0.1688 -0.0482
26949W        W42418   2.404   4.795   2.425 -0.1151  0.3603 -0.1449
26950W        W42419   2.236  11.566  13.731 -0.1574  0.1699  0.0452
26951W        W42420  11.524  10.813   4.014  0.3540 -0.2912 -0.2227
26952W        W42421   9.298  10.392   5.343 -0.3200  0.0768 -0.2065
26953W        W42422  11.154   5.882  16.170 -0.0521 -0.0359  0.0677
26954W        W42423   4.500   5.000  14.449  0.2165 -0.0900 -0.0999
26955W        W42424  14.138   0.929   1.428  0.2266  0.0286  0.3701
26956W        W42425   4.901   9.881   2.940 -0.2921 -0.0664  0.2526
26957W        W42426   0.374   6.112   1.795  0.0500 -0.1477 -0.0672
26958W        W42427   1.742   6.439   2.936  0.0553 -0.3599  0.2183
26959W        W42428  15.089  12.967  14.283 -0.1800  0.0405 -0.0301
26960W        W42429   2.908   4.373  14.679  0.0725  0.1780 -0.0468
26961W        W42430   5.648  12.638  14.775  0.1781 -0.1049  0.2501
26962W        W42431   9.202   1.563   5.147  0.2380  0.0021  0.0767
26963W        W42432   7.013   4.347  12.812 -0.0652  0.0598 -0.0367
26964W        W42433   9.179  12.873  11.874 -0.2187 -0.3263  0.1196
26965W        W42434  12.349   6.947   5.498  0.0487 -0.0663  0.0012
26966W        W42435   1.542  13.435  14.292  0.0261  0.2896 -0.1725
26967W        W42436  15.745  16.643  14.560  0.2517 -0.0988 -0.0841
26968W        W42437  14.389   9.388   5.386  0.0202  0.2087 -0.0031
26969W        W42438  14.266  17.631   4.758 -0.5313  0.0624 -0.3950
26970W        W42439  17.639   9.947   1.963  0.0573 -0.1366  0.0198
26971W        W42440  17.840   4.855  14.484 -0.1233  0.0428  0.1524
26972W        W42441  17.002   9.816  15.106  0.0353  0.0901  0.3765
26973W        W42442  16.439   4.414  13.741  0.4197  0.0208  0.1033
26974W        W42443   8.830   5.003  11.707  0.0616 -0.0835  0.3361
26975W        W42444   4.251  12.594   1.485 -0.1117  0.0471 -0.1023
26976W        W42445  17.578   5.069   1.349  0.0124 -0.0050 -0.5334
26977W        W42446  17.338   5.410  10.421  0.2683  0.0483  0.2998
26978W        W42447  17.002   5.132   1.032  0.0326  0.1533 -0.3206
26979W        W42448  10.423   8.736   4.768 -0.0239  0.0523  0.0568
26980W        W42449  14.519   3.422  13.718 -0.0718  0.0020  0.0285
26981W        W42450   6.088   0.379   0.604 -0.2626  0.4654  0.0611
26982W        W42451   5.901  14.597   5.149 -0.2619  0.1233 -0.1782
26983W        W42452   2.396   1.000  14.340 -0.2018  0.0730 -0.1815
26984W        W42453  14.582   4.670   0.619  0.0775  0.1877 -0.2067
26985W        W42454  10.221   9.993  13.404 -0.2149  0.2430 -0.1186
26986W        W42455   3.759  11.527  10.948  0.1237  0.1925  0.1113
26987W        W42456   7.698   4.659  15.286  0.2463 -0.0640  0.0104
26988W        W42457  12.351   3.438   0.627  0.0392  0.1312 -0.2598
26989W        W42458  12.957   9.677   4.397  0.1570  0.1929 -0.1208
26990W        W42459  11.890  17.068   1.799 -0.1449  0.0764  0.0413
26991W        W42460   9.496  13.959   1.783 -0.1151  0.0192  0.0827
26992W        W42461   1.878   9.906   1.940 -0.3188  0.3087  0.1793
26993W        W42462   1.061   8.948   5.793 -0.0949  0.0270  0.3523
26994W        W42463   7.367   3.213   4.978  0.0198  0.1711 -0.0991
26995W        W42464   4.737   5.607  11.886  0.0150 -0.1358  0.1663
26996W        W42465   1.918   8.085  14.423 -0.3515  0.1207  0.1694
26997W        W42466  10.573   9.117   3.556  0.1076 -0.1416  0.1709
26998W        W42467   9.345  16.975  15.559  0.0352  0.0662 -0.0626
26999W        W42468   1.887   2.413   4.185 -0.0758 -0.1269  0.1726
27000W        W42469  17.454   7.908  14.925 -0.2080  0.0999 -0.3897
27001W        W42470  15.101   4.901   6.019  0.0252 -0.2457 -0.3524
27002W        W42471  15.747   5.749  13.898 -0.1872  0.1811 -0.0142
27003W        W42472  17.822  11.249   0.605 -0.0680 -0.1914 -0.4409
27004W        W42473   3.774   9.573  14.309 -0.1913  0.0356 -0.0044
27005W        W42474  16.208  12.388   2.804 -0.0321 -0.3718  0.2473
27006W        W42475   4.351   5.954  16.235 -0.2731 -0.1625  0.2794
27007W        W42476  13.247   0.133   0.741  0.1640  0.1782 -0.2841
27008W        W42477  11.210   3.107  12.592  0.2055  0.0967  0.1011
27009W        W42478   3.300   0.726   3.004  0.1302 -0.2916 -0.1619
27010W        W42479   3.298  10.330  11.089  0.0347  0.1539 -0.1037
27011W        W42480   4.321   4.480   9.994  0.2512  0.1666 -0.2507
27012W        W42481   9.471  10.485   0.313 -0.3961 -0.0552  0.3351
27013W        W42482   7.516   8.847   0.953 -0.2174  0.2138 -0.1797
27014W        W42483   9.887   0.354   4.430  0.2355 -0.1937  0.1626
27015W        W42484  17.592  11.783   4.330 -0.0450 -0.1972  0.0497
27016W        W42485   6.522  10.534  11.663 -0.2264 -0.1695  0.0399
27017W        W42486  11.900   0.915  15.622 -0.0726  0.1304  0.0103
27018W        W42487   6.586   0.436   3.733 -0.0414 -0.4369 -0.0878
27019W        W42488  10.964  15.541   4.874  0.1892  0.0792 -0.3864
27020W        W42489  16.093  12.616   4.699 -0.0239 -0.3126  0.2243
27021W        W42490  17.700  17.854  13.126  0.2092 -0.0292 -0.0468
27022W        W42491   4.156   1.542   1.130  0.2514 -0.1070  0.2584
27023W        W42492   8.586   0.873   2.344 -0.0498  0.1717 -0.3032
27024W        W42493   1.755   1.332  12.735  0.0789 -0.0354  0.0245
27025W        W42494  17.082  13.825  14.473 -0.2106 -0.2575  0.1211
27026W        W42495   4.993   7.050   5.180  0.2233 -0.2215 -0.1337
27027W        W42496   4.988  15.497  15.073  0.1520  0.2317 -0.0836
27028W        W42497   5.955   2.160   2.466  0.4186 -0.0664 -0.2482
27029W        W42498  14.715  17.716  11.614  0.2339  0.0942 -0.2824
27030W        W42499   7.164  13.783  13.666 -0.3011  0.2283 -0.1081
27031W        W42500   0.036   1.222   3.402  0.3810 -0.0455  0.1054
27032W        W42501  12.165  10.250   2.557 -0.1842  0.1305  0.1386
27033W        W42502   9.507  15.344  14.493 -0.2084  0.1376 -0.2048
27034W        W42503   2.051  11.548  14.631  0.2738  0.3000  0.2040
27035W        W42504  11.662   0.553   4.641  0.0526 -0.1486 -0.0609
27036W        W42505   6.711   9.510  11.953  0.2306 -0.2482  0.0784
27037W        W42506  14.502  12.358  13.716  0.1089 -0.1168 -0.0933
27038W        W42507  12.212   5.548   4.521 -0.1798 -0.1175 -0.2203
27039W        W42508   9.458   7.369  10.493 -0.1265  0.0288 -0.0715
27040W        W42509   1.313  16.033  12.567  0.0782  0.1581 -0.3000
27041W        W42510  15.241   8.130  14.614  0.0170  0.1112 -0.1992
27042W        W42511  17.361   7.685   5.213 -0.2749  0.0501 -0.0379
27043W        W42512  12.668  10.470  16.289 -0.3066  0.0432 -0.1130
27044W        W42513   5.362   0.636   0.108 -0.1138  0.0708  0.0769
27045W        W42514   4.067   9.184  16.102  0.0505  0.0969  0.0758
27046W        W42515   5.769   4.981   4.328  0.0931  0.1461  0.1870
27047W        W42516   8.422  16.083   2.281  0.0794 -0.2009 -0.1324
27048W        W42517   7.571  10.693  11.956  0.0419  0.3328  0.4347
27049W        W42518   8.497  10.441  14.008  0.3788  0.0798  0.4078
27050W        W42519  15.031   8.812   3.762 -0.2093 -0.1637 -0.1137
27051W        W42520   5.137   1.481   3.016  0.2019  0.0643  0.2473
27052W        W42521   0.740  17.044   1.603 -0.1413  0.3243 -0.0821
27053W        W42522   7.921   5.225   1.429  0.1911 -0.0003  0.2335
27054W        W42523  11.284   5.113   5.409 -0.0733  0.0694 -0.1857
27055W        W42524  14.384   8.751  15.774  0.6456  0.0761 -0.1870
27056W        W42525   2.588   7.199  13.972  0.0386  0.1683  0.0892
27057W        W42526  10.977   2.346   0.628 -0.1362  0.2189 -0.2040
27058W        W42527  12.316   0.439  12.972 -0.1677 -0.2220  0.2876
27059W        W42528  10.222   5.236   4.679  0.1266 -0.2970 -0.0209
27060W        W42529  14.905  10.050  15.063  0.0398 -0.0307  0.0293
27061W        W42530  10.842  12.514   6.375  0.0773 -0.2824  0.0620
27062W        W42531   8.729   6.657   3.601  0.2124  0.0392 -0.0581
27063W        W42532  15.676   8.765  14.205 -0.0613  0.2682 -0.0353
27064W        W42533   2.039  15.240   3.306  0.2517  0.2119 -0.2717
27065W        W42534   7.223  17.535   5.415 -0.2592  0.4105 -0.4056
27066W        W42535  12.189   5.849   3.743  0.1840  0.0703 -0.0783
27067W        W42536  10.877  16.523  11.681 -0.0396  0.0006 -0.1625
27068W        W42537   5.366  11.173   1.380 -0.2530  0.1102 -0.0162
27069W        W42538   7.136   0.884   6.316  0.0539  0.0348  0.0003
27070W        W42539   5.188   1.730  15.169  0.3314  0.0915 -0.0937
27071W        W42540  11.322  13.362  13.238  0.1053 -0.1467  0.1612
27072W        W42541   5.025  10.273  13.095 -0.1308 -0.0622  0.2642
27073W        W42542   9.542   9.073  15.674  0.0395 -0.2147 -0.0172
27074W        W42543   0.425   0.974  15.701 -0.1539 -0.0349 -0.1001
27075W        W42544  15.482  14.111  14.286 -0.3135 -0.3288 -0.2893
27076W        W42545   2.172  10.665  14.695  0.2113  0.1925  0.0605
27077W        W42546   5.864   2.861   3.193 -0.0243  0.2091  0.1590
27078W        W42547   9.993   7.757  16.274 -0.0415 -0.2956 -0.2512
27079W        W42548   6.556   4.250  13.787 -0.3328 -0.3485  0.2926
27080W        W42549   7.090  15.163   1.649 -0.2326 -0.2606  0.2890
27081W        W42550  13.079   1.009  11.091 -0.2703 -0.0056  0.4136
27082W        W42551  13.001   2.496   0.158 -0.0143  0.0988 -0.0696
27083W        W42552  12.193  12.659  14.926  0.0509  0.0751  0.3834
27084W        W42553   4.964  10.037   1.409 -0.1856 -0.0459  0.0770
27085W        W42554   3.338  14.290  12.948 -0.0874 -0.0283 -0.0038
27086W        W42555   3.650   6.607  12.998 -0.0786 -0.2008  0.1056
27087W        W42556  12.591  15.618  13.262 -0.3393 -0.2830  0.1059
27088W        W42557   7.718  10.550   0.162  0.0329 -0.0660 -0.3223
27089W        W42558   7.665  17.901  14.464 -0.1086  0.0638  0.4322
27090W        W42559   8.394   2.018   0.423 -0.2175  0.1458  0.0411
27091W        W42560   3.545   0.903   3.654  0.0799  0.0167 -0.0207
27092W        W42561   6.549  12.129   2.439 -0.1236  0.0476 -0.0381
27093W        W42562   3.448   3.530  12.261 -0.1241 -0.1838 -0.0055
27094W        W42563   4.001  13.913  15.845 -0.1551  0.0964  0.0841
27095W        W42564   6.276  14.078  13.169  0.0912 -0.1065  0.1059
27096W        W42565   3.534  14.030  10.505  0.0071 -0.0542 -0.1795
27097W        W42566   3.517  14.788   0.706  0.0740 -0.2365  0.0019
27098W        W42567   1.575   4.851   0.456 -0.1597  0.2519 -0.1693
27099W        W42568  15.677   2.571  12.123  0.0934  0.3057 -0.1439
27100W        W42569   3.595   6.056   1.987 -0.3448 -0.0513 -0.0396
27101W        W42570  16.135   7.251  14.197 -0.0526 -0.0715  0.1019
27102W        W42571   6.820  11.135  13.480  0.2023  0.2546 -0.1487
27103W        W42572   1.484   5.897  14.507  0.1482  0.0284 -0.1752
27104W        W42573   1.109   1.923   4.401  0.0875  0.2338  0.2410
27105W        W42574   5.797   3.303   4.113  0.0143  0.0269 -0.0971
27106W        W42575   8.276   1.594  15.057  0.1213  0.0090 -0.2443
27107W        W42576   9.845  13.239  11.554 -0.0156 -0.2027 -0.1404
27108W        W42577  12.334   9.420   5.209  0.2878 -0.1873 -0.1863
27109W        W42578   2.415  16.936   3.939 -0.0956 -0.0747  0.0776
27110W        W42579   8.898   4.181  13.275  0.0625 -0.0637 -0.1812
27111W        W42580   0.031   4.886   4.554 -0.0944  0.3233 -0.1532
27112W        W42581  16.337  13.672  15.921  0.0694  0.2314  0.1107
27113W        W42582  10.287   1.735  15.960 -0.2914  0.1114  0.1128
27114W        W42583   3.206  14.734  12.681 -0.0306 -0.0797 -0.1479
27115W        W42584   7.018  17.078  11.842  0.3465 -0.0758 -0.0673
27116W        W42585  12.611  13.444  10.571 -0.0838  0.0685  0.2670
27117W        W42586   0.973   3.337  15.860  0.0394  0.0215  0.0084
27118W        W42587  17.180   6.171   1.902  0.1323  0.0390 -0.2332
27119W        W42588   1.877  11.761  12.912  0.0642 -0.0931  0.1399
27120W        W42589  11.416   2.477  15.287 -0.0974  0.1141  0.0917
27121W        W42590   3.187   4.606   4.284  0.4844  0.0634  0.0126
27122W        W42591   6.773   5.806  13.649 -0.3514 -0.0019  0.1745
27123W        W42592   9.495   1.220   0.625  0.1748 -0.0494  0.0812
27124W        W42593  11.486  13.670   4.713 -0.0750 -0.1203  0.3257
27125W        W42594   5.197   3.435   1.558  0.2762 -0.3179 -0.0508
27126W        W42595   3.229   2.868  15.372 -0.1783  0.3374 -0.0192
27127W        W42596  16.985   3.168   2.577 -0.1189  0.3360 -0.1962
27128W        W42597   2.502  10.625   0.273  0.2391  0.2128 -0.3358
27129W        W42598  15.379   0.068  13.350  0.0965 -0.0737  0.0586
27130W        W42599  15.151  17.033  13.378  0.0096  0.0480  0.2584
27131W        W42600  14.378   7.154  14.375  0.1362 -0.3287  0.2515
27132W        W42601   5.538   6.170  13.370  0.0760 -0.0050  0.0188
27133W        W42602  15.216  12.220   0.810  0.0389 -0.0907  0.2914
27134W        W42603   4.987  16.694  14.932  0.2403 -0.1433  0.0035
27135W        W42604  12.109   3.538  16.092  0.1004 -0.2387 -0.1577
27136W        W42605   6.079   2.139  12.841  0.1952  0.0097  0.0371
27137W        W42606   2.914  13.022   2.109  0.1844  0.2707  0.0652
27138W        W42607  17.932  10.866   3.676 -0.1903 -0.1292 -0.1614
27139W        W42608   2.565  13.752   3.230  0.0982 -0.0799 -0.2721
27140W        W42609  10.293  11.369   2.514  0.2611  0.2024  0.0608
27141W        W42610   4.019   9.062  11.019 -0.0702  0.1171 -0.0871
27142W        W42611   5.457   5.112  16.074 -0.1300 -0.1378 -0.1317
27143W        W42612  16.298   8.598   5.008 -0.0936  0.0094  0.0321
27144W        W42613   3.472   4.301   3.925  0.1313 -0.0525 -0.2568
27145W        W42614   3.809   5.576   3.596  0.0823  0.0350  0.0971
27146W        W42615   5.001  13.093  11.934  0.2581  0.1108 -0.3846
27147W        W42616  17.444  12.796   2.556 -0.0963  0.1865  0.0322
27148W        W42617   8.868  13.092  12.968  0.1870 -0.2202 -0.1668
27149W        W42618  16.627   3.760   4.565 -0.1810 -0.2582 -0.4579
27150W        W42619  17.329  17.830   0.740  0.0433 -0.2274 -0.2476
27151W        W42620  14.157  12.742  11.109  0.1912  0.0238  0.0594
27152W        W42621   2.710   5.931   5.817 -0.2013 -0.1223  0.1341
27153W        W42622   9.605  13.717  11.616 -0.0452  0.3294 -0.0103
27154W        W42623   2.648   1.850  12.336  0.0431 -0.1637  0.2295
27155W        W42624   7.809   0.848   2.413 -0.2148 -0.1007  0.1589
27156W        W42625   8.515  15.685   0.393  0.1360 -0.2335  0.1505
27157W        W42626   3.851   3.455   2.939  0.1833 -0.2274  0.0738
27158W        W42627   6.217  17.691   1.683  0.3902 -0.1743 -0.2773
27159W        W42628  11.611  17.122   0.812 -0.2226 -0.2465 -0.3684
27160W        W42629   5.041   1.319  11.005  0.1446 -0.4245  0.1520
27161W        W42630   8.325  16.756  12.948  0.0910 -0.0899  0.0581
27162W        W42631   0.895  16.225   4.127 -0.1245 -0.1171  0.0876
27163W        W42632  14.236   6.595   1.541 -0.1260 -0.3178  0.0087
27164W        W42633  12.273  17.649   1.189 -0.2094  0.2802 -0.1973
27165W        W42634   3.633  17.147  12.306  0.0324  0.0101 -0.0852
27166W        W42635  14.226   7.620  13.613 -0.0452  0.0869  0.3448
27167W        W42636  16.068   9.485  11.595 -0.1342 -0.0581 -0.2790
27168W        W42637   6.715  10.693   1.732 -0.2332 -0.1121  0.2662
27169W        W42638  13.546   9.649  11.600 -0.0354 -0.1253  0.2717
27170W        W42639   3.538  17.921  15.493  0.4186 -0.1273 -0.2148
27171W        W42640   5.652   3.915  11.930  0.0993  0.2504 -0.2836
27172W        W42641   1.786  12.569   0.884 -0.5600 -0.2474 -0.1684
27173W        W42642   6.253   1.902  11.177 -0.1157 -0.2683  0.0655
27174W        W42643  13.350   4.744  11.398  0.0046 -0.1897 -0.3482
27175W        W42644   3.329   3.049   4.282  0.1707 -0.2156  0.0623
27176W        W42645   0.299   6.013  13.532  0.0903  0.0273 -0.0595
27177W        W42646   0.471   5.945   5.358  0.1813 -0.2813 -0.1200
27178W        W42647  10.613  11.127   0.951  0.2338  0.2966  0.1582
27179W        W42648   0.918   1.501   5.908 -0.0720 -0.1139 -0.1716
27180W        W42649   2.661   8.800  11.226 -0.4732 -0.0083 -0.0087
27181W        W42650   0.586   0.834  10.046  0.3166 -0.1349 -0.1678
27182W        W42651   6.032   8.760   5.614  0.1989  0.2646 -0.2067
27183W        W42652   6.230   2.029  15.794 -0.1397 -0.1587 -0.2227
27184W        W42653   2.817  12.800   3.074 -0.0628  0.1001 -0.2506
27185W        W42654   2.889  11.571   0.542 -0.0076  0.0164 -0.1266
27186W        W42655   5.349   6.997  15.075 -0.1092 -0.1202  0.2290
27187W        W42656  16.909   1.031   4.064  0.2600 -0.2347 -0.2855
27188W        W42657  13.132   5.815   1.998 -0.1105  0.0329  0.2156
27189W        W42658   2.935   1.087   0.282  0.1299  0.1819  0.0812
27190W        W42659  11.899  12.987  10.380 -0.1792  0.4168 -0.0564
27191W        W42660  11.490   6.428  13.345  0.0417  0.0279  0.1658
27192W        W42661   9.805   5.566  12.000 -0.1188 -0.0920  0.0692
27193W        W42662  12.173   0.638   3.814  0.2759 -0.2446  0.0441
27194W        W42663  16.619   4.127   2.055 -0.1778  0.0565  0.2011
27195W        W42664   4.567   2.265   1.540  0.1925  0.1439  0.1966
27196W        W42665   3.473   4.838   0.385  0.0090  0.0741 -0.2408
27197W        W42666   7.540   0.633   4.672 -0.2822 -0.4038  0.0223
27198W        W42667   8.858  14.089  14.474 -0.1048  0.1807 -0.1551
27199W        W42668  15.759   7.501   0.103  0.0236 -0.0514  0.2583
27200W        W42669  10.706   7.531  15.249 -0.0131 -0.1453 -0.0385
27201W        W42670   8.532  12.870   3.913 -0.0881 -0.1101 -0.1670
27202W        W42671  13.506  10.086  11.978  0.2818  0.1348  0.0550
27203W        W42672   8.830  16.169  15.908 -0.0899  0.0562 -0.1189
27204W        W42673  14.734  11.137   0.061  0.1094  0.0776 -0.2321
27205W        W42674   3.775   1.517  13.507 -0.0262  0.0828  0.1859
27206W        W42675   7.230   2.254  16.004  0.0860  0.2380  0.0358
27207W        W42676   4.375  17.231  11.200 -0.1651  0.0018 -0.2767
27208W        W42677   2.573  13.722   5.148 -0.0620 -0.1590  0.1457
27209W        W42678   8.069  13.130  11.266  0.0126  0.0097  0.1307
27210W        W42679  16.477  17.933  11.472 -0.0798 -0.1197  0.0997
27211W        W42680  16.727   9.812  12.173 -0.0739  0.0661  0.1436
27212W        W42681  13.351  13.020   3.927  0.1690 -0.0016  0.1888
27213W        W42682  13.754   7.928   4.280 -0.0676  0.2167  0.1358
27214W        W42683   5.918   2.129   5.791 -0.1463 -0.0149  0.2154
27215W        W42684  12.887  11.927   2.449 -0.0275  0.1059 -0.1153
27216W        W42685  10.946  17.450   1.766 -0.2837  0.0409 -0.1276
27217W        W42686   0.547  17.210   4.905  0.0145 -0.0759  0.2518
27218W        W42687   5.957   3.636  14.406 -0.0309 -0.1920 -0.2621
27219W        W42688   0.911  18.087   2.788  0.0763  0.1599  0.2509
27220W        W42689   9.578  11.096   5.863  0.0668 -0.3638 -0.2332
27221W        W42690   2.658   9.607  14.016  0.0379  0.0048  0.0506
27222W        W42691   1.298   0.184   5.555  0.1226 -0.2635  0.0819
27223W        W42692   3.619  11.578  11.618 -0.2592  0.0619  0.0369
27224W        W42693   5.884   1.871  13.903  0.0949 -0.0185 -0.1751
27225W        W42694  14.149   8.264  15.857  0.1628  0.2894  0.0483
27226W        W42695   5.090  16.537  15.938 -0.1363 -0.3855 -0.2485
27227W        W42696   4.441  10.149   1.778 -0.0095 -0.1468  0.1158
27228W        W42697   4.945  15.912  10.698 -0.2055 -0.0265  0.1293
27229W        W42698   6.651  12.023   3.173 -0.2363 -0.1290 -0.2554
27230W        W42699   0.502  13.623   4.694  0.0039  0.0920 -0.0097
27231W        W42700   6.403   0.473   9.907 -0.1256  0.1605 -0.1034
27232W        W42701  17.905  16.949  11.647  0.1485  0.1499  0.1197
27233W        W42702   3.165  17.166  14.350 -0.1985  0.0169  0.1729
27234W        W42703   9.178   2.649   4.966  0.1076  0.0130 -0.0775
27235W        W42704   7.925   4.981  14.877  0.0347  0.0107  0.0116
27236W        W42705  14.385  16.060   1.699 -0.0535 -0.3657  0.0742
27237W        W42706  15.088   3.038  12.951 -0.0418  0.1349  0.0137
27238W        W42707  14.465  18.091   1.560  0.1318  0.2933  0.1463
27239W        W42708  13.911  11.944  14.433  0.0728 -0.2246 -0.0601
27240W        W42709   2.073  11.374  14.146  0.3526 -0.0117 -0.2733
27241W        W42710  13.640   6.749  13.816  0.1526  0.0067  0.0755
27242W        W42711   4.274  17.631   6.022 -0.0917  0.1775 -0.2841
27243W        W42712  17.153  11.217   4.903 -0.2567 -0.1198  0.0835
27244W        W42713   8.522   6.229  15.238 -0.0812  0.1517 -0.0870
27245W        W42714  14.778  11.124  14.316 -0.0663  0.2245 -0.0867
27246W        W42715   8.283  10.971   3.323 -0.2479  0.0029  0.1097
27247W        W42716   9.179   9.799   1.830  0.4139 -0.1861  0.1989
27248W        W42717  13.088   6.630   0.085  0.3014 -0.0779 -0.1398
27249W        W42718   7.594   1.944  14.462  0.0674 -0.0190 -0.2800
27250W        W42719  11.408   7.598   3.750  0.0387 -0.0065 -0.1678
27251W        W42720   1.801   9.433   1.805 -0.2766  0.1092 -0.1322
27252W        W42721   9.891  17.797   5.840 -0.0028 -0.0115  0.0711
27253W        W42722   4.207   3.855  11.493  0.2188 -0.1620  0.0779
27254W        W42723   0.228   7.076  14.180 -0.3356 -0.0479 -0.0086
27255W        W42724  11.101  13.433  14.289 -0.1350  0.0585 -0.0025
27256W        W42725   4.450   6.577  14.969 -0.0880  0.0579  0.0745
27257W        W42726  11.006  11.865  12.136  0.4598  0.2292 -0.0579
27258W        W42727   3.383  17.350  13.308 -0.2567 -0.2576 -0.0451
27259W        W42728   1.292  11.553  11.637  0.0550 -0.0776 -0.1106
27260W        W42729   0.334   1.647   4.203  0.1128  0.3935 -0.2498
27261W        W42730  14.860   7.245   1.927  0.0829 -0.0248 -0.2599
27262W        W42731  11.273   9.323  14.979  0.1917 -0.2506 -0.1313
27263W        W42732   8.087   5.119  11.351 -0.0633  0.1408 -0.0723
27264W        W42733   8.661   8.732   2.166  0.0751 -0.3162  0.1804
27265W        W42734  13.228  14.870   1.078  0.0716  0.3814  0.3836
27266W        W42735   1.690  15.672  15.806 -0.0543  0.2017 -0.3926
27267W        W42736  18.092   1.407  15.556 -0.2539 -0.0019 -0.1275
27268W        W42737  14.591  12.655   2.685 -0.1460 -0.3189 -0.2761
27269W        W42738  17.018   4.859  11.780  0.2309 -0.0331 -0.2503
27270W        W42739  18.003   0.791   0.913 -0.1208  0.2470 -0.3022
27271W        W42740   6.934   7.669   3.145  0.1272 -0.1816  0.2057
27272W        W42741  12.454   8.440  11.115 -0.0534 -0.0049 -0.1476
27273W        W42742   5.574   7.875  12.590 -0.1337  0.2132 -0.3767
27274W        W42743  15.456   0.299   0.043  0.0442  0.1767  0.0512
27275W        W42744   4.762   8.306  11.669  0.4974  0.0724 -0.0247
27276W        W42745  14.445  15.033  14.002  0.2191  0.0564 -0.0644
27277W        W42746  17.969  10.398   1.895 -0.0892 -0.2352  0.0535
27278W        W42747   3.068  14.813  10.459 -0.3405 -0.3209 -0.0003
27279W        W42748   4.389  12.251   0.484 -0.4086  0.0962 -0.0483
27280W        W42749  17.774   1.695  15.277  0.2380  0.1710  0.3319
27281W        W42750  11.922   3.930   2.192 -0.0128  0.0216  0.3530
27282W        W42751   4.776   8.752  12.846  0.1107 -0.1955 -0.2461
27283W        W42752  13.672   4.885  14.493 -0.3902  0.3747  0.2231
27284W        W42753  13.738   7.860   5.687  0.2671 -0.1826 -0.0837
27285W        W42754   5.856  10.288  12.878 -0.1885  0.0229 -0.0269
27286W        W42755  14.637   1.607  10.921  0.2016  0.2797 -0.2226
27287W        W42756   3.104   1.845   3.056  0.0444  0.1131  0.2229
27288W        W42757   6.792   3.364  12.447  0.2371 -0.2340 -0.1446
27289W        W42758   6.171  15.258   1.980 -0.1535  0.0377 -0.0445
27290W        W42759   6.436  10.463   0.177  0.0206  0.1742 -0.1400
27291W        W42760  13.318   7.625  10.269  0.3727  0.0462 -0.0447
27292W        W42761   7.664  11.289  13.029 -0.2161  0.4105 -0.1699
27293W        W42762   2.496  12.571  15.814  0.1639  0.2516  0.2224
27294W        W42763  12.042   9.755  12.078  0.3574  0.0432  0.1393
27295W        W42764  13.888  10.514   3.726 -0.0967 -0.0685  0.4237
27296W        W42765   4.381   0.057   4.771  0.0222  0.1200 -0.1254
27297W        W42766   0.661   3.137  13.187 -0.0351 -0.1757 -0.1374
27298W        W42767  11.271   8.354   1.793 -0.0948  0.0338 -0.1884
27299W        W42768   2.405   6.211  14.248 -0.0145 -0.1736  0.2512
27300W        W42769   5.551  11.749  15.734  0.1831 -0.1043  0.0501
27301W        W42770   9.456  11.839  13.438 -0.1095  0.0936 -0.0886
27302W        W42771   1.052  11.838   3.249  0.2815  0.1046 -0.0208
27303W        W42772  13.121   3.852  12.681  0.0922  0.0278  0.1410
27304W        W42773   5.107   3.969  11.398  0.1797 -0.2102  0.2405
27305W        W42774  17.013  10.140  14.241  0.6377 -0.1115  0.0548
27306W        W42775   9.174   2.852   6.532  0.0454  0.1134 -0.0188
27307W        W42776   2.436  13.404   3.629 -0.0354 -0.2211  0.1154
27308W        W42777  15.713  12.461  11.760 -0.0089 -0.3357  0.0761
27309W        W42778   5.155   9.489   1.622 -0.1712  0.0005  0.1989
27310W        W42779  14.151   8.391  13.815  0.2212  0.1330  0.1960
27311W        W42780   6.176  16.144  13.953 -0.0650  0.3783  0.0292
27312W        W42781   2.271  14.624  12.878 -0.3270  0.0925  0.2096
27313W        W42782   9.767   3.328   2.948 -0.0917 -0.2399  0.1026
27314W        W42783  10.584   1.988  14.473 -0.2209 -0.0014  0.1418
27315W        W42784  17.292  14.767   5.502  0.2374 -0.1500 -0.0233
27316W        W42785   7.436   7.107  14.991  0.2703 -0.0033 -0.1332
27317W        W42786   7.824   1.411   0.654 -0.0704  0.2275 -0.0730
27318W        W42787  13.802  16.047   0.026 -0.2711  0.1848  0.0837
27319W        W42788  10.257  15.899   2.513 -0.0185 -0.1400  0.0125
27320W        W42789  17.462   9.654   2.698 -0.0526  0.1469  0.1464
27321W        W42790   4.789   8.015  13.891  0.3125  0.1851 -0.4385
27322W        W42791   2.385   7.885   1.231 -0.2389  0.1032 -0.1963
27323W        W42792   5.036  17.955  10.459  0.2146  0.0423  0.1429
27324W        W42793   9.281  14.368   1.307 -0.0797 -0.0765  0.2989
27325W        W42794   1.140  13.915   5.166  0.1970 -0.1095  0.1969
27326W        W42795  16.810  12.852  16.013  0.0969  0.2542 -0.1792
27327W        W42796  12.447   0.045  11.952 -0.2950  0.0535  0.2500
27328W        W42797   8.536   8.511   0.289  0.1948  0.1115 -0.2140
27329W        W42798  14.436  12.590  12.645  0.0867 -0.0586  0.0932
27330W        W42799   7.668   1.198  14.871  0.1780 -0.0761 -0.0533
27331W        W42800  17.881   3.545   1.021  0.0991  0.0137 -0.0068
27332W        W42801  12.949   9.643   0.166 -0.1007 -0.0080  0.2293
27333W        W42802   0.462   3.533   4.804 -0.1527 -0.0901  0.0328
27334W        W42803  10.974   7.879   0.961  0.1023  0.0721 -0.1998
27335W        W42804   9.380   0.492   1.439  0.1455 -0.0635  0.0875
27336W        W42805  12.189  11.448   1.364  0.1430  0.2279  0.0689
27337W        W42806  10.923   8.366  11.186 -0.0388 -0.0182  0.1118
27338W        W42807  14.386   7.371   0.116  0.0240 -0.1179 -0.0084
27339W        W42808   1.177   2.020   3.900 -0.1829 -0.0417  0.1720
27340W        W42809  12.856   8.894  15.807 -0.0569  0.0499 -0.2359
27341W        W42810   5.855   0.258  13.202  0.2301  0.0743  0.0722
27342W        W42811   1.975   1.765   5.581  0.0647 -0.0320 -0.3896
27343W        W42812  12.557  12.559   1.516 -0.3836  0.0904  0.1496
27344W        W42813  12.636  10.167   3.703  0.0821 -0.0712 -0.1708
27345W        W42814   5.170   9.895   0.469 -0.0241  0.0266  0.0458
27346W        W42815  17.611  12.427   3.739  0.0734  0.2548 -0.2183
27347W        W42816  14.814   9.259  15.440 -0.0744 -0.1870  0.0957
27348W        W42817   9.088   4.225   0.769 -0.1805 -0.3157  0.2440
27349W        W42818   3.664   7.170   4.637  0.0067  0.1792  0.2525
27350W        W42819   8.270   3.958   5.270  0.1780 -0.2681 -0.0781
27351W        W42820   3.081   4.343  12.926 -0.4106  0.0446  0.0576
27352W        W42821   7.048   9.335  12.977 -0.0073  0.0485  0.0414
27353W        W42822   8.188  17.180  14.196 -0.0555  0.1687 -0.1659
27354W        W42823   5.989  14.576  11.493  0.1910 -0.1195 -0.3071
27355W        W42824   8.322  14.164   1.317 -0.2533 -0.1241  0.0571
27356W        W42825   4.150  14.695  14.649  0.0639 -0.0166 -0.1370
27357W        W42826  15.527  16.783  15.029  0.0970  0.0134  0.0782
27358W        W42827  14.000  15.171  13.219  0.0491 -0.2975 -0.1168
27359W        W42828   6.284  15.610  15.395  0.0242  0.2280  0.3594
27360W        W42829   1.442   8.032   1.457 -0.3992 -0.0638 -0.1059
27361W        W42830   3.887   6.927   3.972 -0.0723  0.0530  0.0367
27362W        W42831   1.014  13.475   0.643 -0.2292 -0.2134 -0.4934
27363W        W42832  10.482  17.590   2.007  0.2384 -0.4592  0.2228
27364W        W42833   5.100  11.603  11.030 -0.2254 -0.0142  0.0506
27365W        W42834   9.522  14.092   4.060  0.3115  0.1633  0.0749
27366W        W42835  14.009  16.129  10.642  0.0139 -0.0358 -0.0385
27367W        W42836   4.192  12.967   0.511 -0.1452 -0.0138  0.2851
27368W        W42837  16.525  12.788   0.502 -0.2236  0.1031  0.1470
27369W        W42838   7.151   5.623   1.070 -0.0694 -0.1435  0.0494
27370W        W42839   0.300   6.355   2.919 -0.0561 -0.0565 -0.0643
27371W        W42840  17.575  10.189   0.403  0.0124  0.1212  0.2401
27372W        W42841   6.255   8.810   0.784  0.1555  0.1109  0.2529
27373W        W42842  10.664  12.767  11.197 -0.0566 -0.0809 -0.0867
27374W        W42843  15.547  10.944   3.873  0.3562  0.1684 -0.1586
27375W        W42844   6.591   4.278   4.264 -0.2585 -0.0805 -0.1419
27376W        W42845   4.614  17.647  14.859 -0.1798  0.0987 -0.2056
27377W        W42846  10.067   5.944  15.948  0.0703  0.0262 -0.2416
27378W        W42847  17.198  10.460   3.109 -0.0022 -0.1916 -0.0134
27379W        W42848  14.110  14.607  16.199  0.2224 -0.1314  0.0898
27380W        W42849   6.775   0.061   6.112 -0.1492 -0.0020  0.0725
27381W        W42850  14.696   5.840  13.796  0.0166  0.0652  0.2470
27382W        W42851  10.795  13.176  12.837 -0.2579 -0.1443  0.1653
27383W        W42852   5.730   5.716  15.571 -0.1938 -0.3017  0.0094
27384W        W42853  17.663   6.533  15.111 -0.0671 -0.1604 -0.2203
27385W        W42854   1.975   2.012   0.194  0.4623  0.1510  0.0763
27386W        W42855  12.003  10.418   4.964  0.1129 -0.0030  0.1599
27387W        W42856  16.670   4.848  13.171  0.1058  0.0038  0.1839
27388W        W42857   2.240  10.163   5.421 -0.1400 -0.4069  0.0841
27389W        W42858   8.312  12.046   5.397  0.0262  0.0589  0.1811
27390W        W42859  16.336   1.376  16.279 -0.0935 -0.0242 -0.0938
27391W        W42860   1.310   7.407   3.174  0.0232 -0.1043  0.2074
27392W        W42861   4.525   3.770   5.433 -0.0246 -0.1708  0.0798
27393W        W42862   1.492  14.444  12.453 -0.0301  0.1376  0.0551
27394W        W42863   6.094  16.423  16.280  0.1163 -0.0241  0.2003
27395W        W42864  14.714   8.479  12.192  0.0629 -0.2658 -0.4451
27396W        W42865  14.989  15.111  13.927  0.0770  0.3445  0.0390
27397W        W42866  11.200  11.869  14.572  0.1136 -0.0661 -0.0015
27398W        W42867  12.347  15.850  11.457  0.1532  0.1179  0.3167
27399W        W42868   7.003  12.997   0.020  0.1542  0.1154  0.0071
27400W        W42869   7.616  13.201  11.102  0.0270  0.0882 -0.0317
27401W        W42870  10.080   6.197   6.424  0.3226 -0.0605 -0.1027
27402W        W42871  12.226   4.495  14.491  0.0377 -0.0311 -0.0145
27403W        W42872   2.825   5.191   3.104 -0.1657  0.1594 -0.1079
27404W        W42873   8.725  12.318  15.663  0.2418 -0.0140 -0.0647
27405W        W42874   5.217  13.842   0.135 -0.0238 -0.1244 -0.0402
27406W        W42875   2.156  15.595  12.980  0.0706 -0.1781 -0.2157
27407W        W42876  14.119   8.953  12.312 -0.0186  0.1580  0.0850
27408W        W42877  14.013  13.193  10.837  0.1387  0.1154 -0.2944
27409W        W42878  14.791  15.419  14.724  0.0904 -0.2001 -0.2323
27410W        W42879   8.776   9.563   1.178 -0.0785 -0.1518  0.0726
27411W        W42880   9.422   4.459   2.517 -0.4148  0.1049  0.2086
27412W        W42881  12.645   7.031   2.032  0.0199 -0.2570  0.1222
27413W        W42882   4.124   9.671   0.531  0.2504 -0.1369  0.0813
27414W        W42883   4.171   6.293   3.352 -0.0702  0.2290  0.0972
27415W        W42884   1.332   8.596   1.434 -0.0529 -0.0832 -0.1594
27416W        W42885  12.086  14.700  10.986  0.1736 -0.2845  0.0479
27417W        W42886  15.699   2.039  10.827  0.0272 -0.0527  0.0432
27418W        W42887   2.732   4.598  11.243 -0.1570  0.2398 -0.1786
27419W        W42888  17.929   7.655   4.133 -0.0722  0.1736  0.2436
27420W        W42889  12.909  17.775  16.315 -0.2026  0.0018 -0.1938
27421W        W42890  17.605  10.698  10.322  0.2743  0.0549  0.1173
27422W        W42891  17.983  17.221   0.614 -0.0413 -0.1696 -0.0892
27423W        W42892  14.671   8.153   1.918 -0.0266 -0.1044  0.1207
27424W        W42893  10.740   9.875   2.802  0.2399 -0.2733 -0.0690
27425W        W42894   4.565   7.582   0.804  0.0665 -0.0587 -0.4774
27426W        W42895  16.965   6.666   4.868  0.0068  0.2177 -0.3170
27427W        W42896   4.665   7.607   2.401 -0.1729 -0.2440 -0.0358
27428W        W42897  12.626   6.457   4.754 -0.0755  0.1740  0.1364
27429W        W42898   0.396   4.934  12.802  0.0480 -0.0920  0.0914
27430W        W42899   1.520   9.307   4.103 -0.0196 -0.2920 -0.0811
27431W        W42900  16.596   4.252  16.188  0.0511 -0.2857  0.2398
27432W        W42901   0.449  16.595  14.303 -0.1244 -0.1111 -0.0242
27433W        W42902  12.877  15.874  12.856  0.0818 -0.0540  0.0706
27434W        W42903  15.317   1.180   0.282 -0.1501 -0.3266 -0.1546
27435W        W42904   0.276  15.730  11.645  0.0209  0.0894 -0.3470
27436W        W42905   8.752   1.318   4.845  0.0464  0.1888  0.1444
27437W        W42906   6.163  13.035   2.396  0.2341  0.2043 -0.0265
27438W        W42907   5.955   5.719  11.579 -0.0724  0.0419 -0.2542
27439W        W42908   1.255  15.882   0.936 -0.2693 -0.0133 -0.1145
27440W        W42909   0.247   2.522   5.304  0.1645 -0.3620  0.0983
27441W        W42910   7.677  12.611  12.746  0.0042 -0.1520 -0.0311
27442W        W42911  12.350  14.170  15.978 -0.0454 -0.1337  0.0763
27443W        W42912   1.162  12.368  12.646 -0.1090 -0.1599 -0.0204
27444W        W42913   8.886  15.561   3.777  0.2040  0.0596  0.2224
27445W        W42914  14.399   1.848  11.872 -0.1613  0.2308 -0.2385
27446W        W42915  10.007   7.315  12.824  0.2952 -0.0963  0.2199
27447W        W42916   5.570  14.730   2.605 -0.0653  0.1382  0.0665
27448W        W42917  17.794   8.613   1.793  0.0032  0.1822 -0.2562
27449W        W42918   6.293   9.479  13.451 -0.2067  0.2497  0.1750
27450W        W42919   2.367   2.015   1.049  0.1329  0.0848  0.1547
27451W        W42920   7.447  10.468   4.844 -0.0436  0.2488 -0.2921
27452W        W42921   2.713   7.617  14.202 -0.2541  0.2247 -0.2020
27453W        W42922   5.669  17.593  11.925 -0.2626 -0.1280 -0.1610
27454W        W42923   5.179  16.843   2.897  0.2421 -0.2324 -0.1138
27455W        W42924  10.545  10.916  14.017 -0.0166  0.2043 -0.3874
27456W        W42925   6.692   4.658   2.370 -0.0553 -0.2098 -0.1994
27457W        W42926  17.689  15.687   3.388  0.0383  0.1627  0.1236
27458W        W42927  10.403  13.872  13.045  0.0373 -0.0605 -0.0953
27459W        W42928  15.074  10.203  14.108 -0.0040 -0.1463  0.1575
27460W        W42929  17.851  10.378   5.012  0.2707  0.3138  0.2942
27461W        W42930   6.650  14.381   1.709  0.1149 -0.2495  0.2018
27462W        W42931  10.249   8.208  15.071  0.1022  0.1386 -0.0690
27463W        W42932  12.696   6.064  13.917  0.0233 -0.0088  0.1356
27464W        W42933   8.150   8.727  13.143 -0.2507  0.1298  0.0081
27465W        W42934  17.336  11.400   2.914 -0.1154 -0.1781 -0.0229
27466W        W42935  18.068   5.031   0.576 -0.1078  0.2350  0.2420
27467W        W42936  14.343   5.511  12.553  0.1145 -0.4678  0.5808
27468W        W42937   0.352  12.888  10.603  0.0472 -0.1062 -0.4048
27469W        W42938   7.901  12.072   3.523  0.1792 -0.0965 -0.2163
27470W        W42939  14.992  14.038   4.320 -0.0479  0.0686 -0.0816
27471W        W42940  13.258   0.692  12.356  0.1806 -0.2742  0.2984
27472W        W42941   0.061   5.943   1.478 -0.0495  0.2480 -0.1914
27473W        W42942   8.760   9.901  12.014  0.1782  0.0671 -0.0930
27474W        W42943  10.492   0.724  14.670  0.3169 -0.2124  0.1765
27475W        W42944   3.897   2.013  14.862 -0.1043  0.2632 -0.0057
27476W        W42945   9.339   9.727   2.841  0.1165 -0.2183 -0.0644
27477W        W42946   9.040   0.881  15.725  0.2773  0.3363 -0.0595
27478W        W42947   3.254  16.050  11.189 -0.0373  0.0117  0.2906
27479W        W42948   8.506   9.594  13.049  0.0415  0.1641 -0.1577
27480W        W42949  14.647  12.937   0.672 -0.0576  0.0591 -0.0251
27481W        W42950  17.719  15.227  12.878 -0.0927  0.2104 -0.0417
27482W        W42951   0.584   8.817   1.032  0.1993  0.0517 -0.1434
27483W        W42952   2.552   0.935  14.861  0.0706 -0.0139  0.0854
27484W        W42953   2.907  17.292   3.794  0.0568  0.1139  0.2032
27485W        W42954   6.932  15.527   0.397  0.1468  0.0203  0.1034
27486W        W42955  15.077   2.495  13.610 -0.2679  0.4797  0.3121
27487W        W42956   3.944  10.420  13.023 -0.2581 -0.0365 -0.3762
27488W        W42957  14.029   1.703   4.535 -0.1672 -0.1521  0.0062
27489W        W42958   8.888   3.925   3.619 -0.4012 -0.2139  0.1351
27490W        W42959  16.331   8.173  14.010  0.2280 -0.0941 -0.1445
27491W        W42960  12.932   2.973  12.443  0.1358  0.0810  0.0200
27492W        W42961  14.377  12.784   0.313 -0.0251 -0.1710  0.0473
27493W        W42962   9.324   1.916   5.954 -0.1423  0.1774 -0.1065
27494W        W42963  18.050  12.230  14.746  0.2016 -0.0191  0.4111
27495W        W42964  15.869   8.670  13.281 -0.2848 -0.0992  0.0562
27496W        W42965   6.814   4.123  14.314 -0.0781 -0.2297 -0.1751
27497W        W42966  11.586   3.626   3.440 -0.1845 -0.0879 -0.2358
27498W        W42967   4.532   7.425  15.406 -0.2117 -0.3085 -0.0736
27499W        W42968   5.726  15.725   5.277 -0.1663  0.0473  0.0141
27500W        W42969  11.924   9.394   1.409 -0.1101 -0.0677  0.0559
27501W        W42970  15.412   1.097  16.132  0.0752 -0.1733 -0.0111
27502W        W42971   6.524   0.906   4.554  0.0381  0.0861  0.0485
27503W        W42972   3.311  11.854   0.920 -0.0090 -0.0036  0.2330
27504W        W42973   9.081   5.041  11.175  0.1321 -0.5035 -0.2643
27505W        W42974   3.543  15.025   1.648  0.2175 -0.1657 -0.1825
27506W        W42975  10.448  13.846  14.860  0.0322  0.0284 -0.0346
27507W        W42976  11.048  17.955   1.358 -0.0565 -0.0021  0.0389
27508W        W42977   4.233   8.710   0.070 -0.0978 -0.1952 -0.1202
27509W        W42978  17.334   4.452  11.833  0.2581 -0.3991  0.0928
27510W        W42979  13.954  12.460   0.232  0.1396  0.0400  0.0242
27511W        W42980   3.804  10.416  11.006 -0.0845 -0.0884  0.2452
27512W        W42981  17.312   0.701  15.725 -0.0926 -0.0933  0.0114
27513W        W42982  16.031   9.982   1.359 -0.0616  0.1334  0.1076
27514W        W42983  17.601   1.934  13.731  0.2813 -0.5616  0.0759
27515W        W42984   1.500   4.008   2.900  0.1906 -0.1692  0.1043
27516W        W42985   5.979  16.045  15.987  0.1739  0.2071  0.2155
27517W        W42986  11.525   6.015   0.532 -0.0863  0.0080  0.1030
27518W        W42987   2.904   6.566   1.088  0.2456  0.0377 -0.1388
27519W        W42988  10.567   1.564   0.062 -0.2961  0.0424 -0.0512
27520W        W42989   5.256  15.845  12.166  0.0610 -0.2473  0.0740
27521W        W42990   4.341  12.721  10.960 -0.0708  0.1842 -0.2278
27522W        W42991   1.205  13.210   1.921  0.1455 -0.1610 -0.1247
27523W        W42992   0.975  16.926  10.987 -0.2136 -0.4232  0.0743
27524W        W42993   8.444   0.346   3.054 -0.1181  0.0316  0.0608
27525W        W42994  14.007  14.443   4.654  0.3755  0.0959 -0.1933
27526W        W42995   9.277  11.822   1.004 -0.0938  0.2094 -0.0295
27527W        W42996  14.047   5.961   1.342  0.1990 -0.0966  0.1262
27528W        W42997   5.976  11.721  12.283 -0.1960 -0.1441  0.2220
27529W        W42998  17.689  12.778  14.122 -0.1459 -0.0453  0.1753
27530W        W42999  14.989  17.516   1.027  0.1300  0.0488  0.1428
27531W        W43000  16.530   5.826  15.163  0.0837  0.1584  0.0730
27532W        W43001   6.228  14.074  12.660 -0.2418  0.1675 -0.2969
27533W        W43002  17.487   4.090  12.235  0.1376 -0.0870 -0.2835
27534W        W43003   6.078  14.513  13.486  0.2057  0.2405 -0.0764
27535W        W43004   4.514   1.922  15.383 -0.3324  0.1420 -0.0103
27536W        W43005   7.704  11.314  11.292 -0.0661  0.1041  0.0089
27537W        W43006   8.554  11.361   2.666 -0.2539  0.2170 -0.3759
27538W        W43007  16.504   0.446  12.757 -0.0159 -0.0478 -0.3566
27539W        W43008   0.629  10.356   5.493  0.1261  0.0224  0.0215
27540W        W43009  14.708   2.834   5.209 -0.1428 -0.0741 -0.1173
27541W        W43010   6.148   9.964   1.020  0.0447  0.2600  0.1438
27542W        W43011   3.327   5.806   0.304  0.3176  0.0730  0.2635
27543W        W43012  13.333   0.041  11.534  0.0489 -0.0735  0.4574
27544W        W43013  14.430  15.899   5.955 -0.1417  0.0492 -0.2297
27545W        W43014  13.389  15.448   0.653 -0.2383  0.0367  0.1293
27546W        W43015   5.149   5.635   4.175  0.4641 -0.1398  0.1487
27547W        W43016   2.412  13.272   5.965 -0.0026  0.2164  0.1783
27548W        W43017  17.883   7.822   1.689 -0.1280 -0.2711  0.1421
27549W        W43018  13.886   1.855  11.379  0.6664 -0.0804  0.1732
27550W        W43019   0.222  18.083   4.698 -0.2026 -0.1811  0.0846
27551W        W43020   3.595  14.483   4.689 -0.3453 -0.0210 -0.1953
27552W        W43021   8.675   6.467  11.659 -0.0384  0.1546 -0.2475
27553W        W43022  14.014   7.457  14.594  0.2354 -0.2538  0.3561
27554W        W43023  10.796   4.929   5.473 -0.0876 -0.2763  0.0545
27555W        W43024   2.043   4.416   2.462 -0.1903  0.3598 -0.1977
27556W        W43025  10.528  16.670  15.800  0.1526  0.0337 -0.0737
27557W        W43026   3.358   4.451   0.049  0.1557 -0.5170  0.1004
27558W        W43027   2.653  10.074   1.631  0.1306 -0.0803 -0.2606
27559W        W43028   6.105   6.716   1.350  0.0079 -0.1550  0.1492
27560W        W43029  10.261   1.403  15.561  0.0047  0.3188  0.2035
27561W        W43030   4.961  17.706   0.294  0.0346 -0.0533 -0.3051
27562W        W43031  16.417   3.474   4.967 -0.1209  0.1376 -0.1235
27563W        W43032  16.328   8.160  13.526 -0.1340 -0.0818  0.0154
27564W        W43033   5.053  10.735   5.105 -0.3060  0.1687  0.3073
27565W        W43034   0.757  14.937   5.101  0.3079 -0.1684 -0.0574
27566W        W43035  12.595  16.489  13.505  0.1015  0.0173 -0.1037
27567W        W43036  14.593   0.586   0.224  0.0489  0.2830  0.1562
27568W        W43037  10.449   1.006   3.872 -0.0189 -0.0559 -0.0307
27569W        W43038   0.444   8.777   5.124 -0.0628 -0.3900  0.0049
27570W        W43039  10.148   1.967   5.474  0.0901  0.1738  0.0606
27571W        W43040   7.743   8.697   3.530  0.2261 -0.1294  0.1524
27572W        W43041   9.153  10.188  11.120  0.2105 -0.0582  0.0401
27573W        W43042   2.348   4.547   4.394 -0.0252 -0.1638 -0.1541
27574W        W43043  10.552  10.837   3.090 -0.1598  0.1401 -0.2703
27575W        W43044  17.466   8.806  12.565  0.0407  0.1409  0.0339
27576W        W43045  13.313  17.019  12.218 -0.1143  0.0864  0.0977
27577W        W43046  15.949   3.648  12.925  0.2473  0.3371  0.1601
27578W        W43047  11.412  17.590   3.599 -0.3061 -0.0046  0.0131
27579W        W43048  10.343   3.392   6.062  0.0480 -0.0082  0.1148
27580W        W43049   4.328  15.447   2.632  0.0204 -0.0418 -0.2154
27581W        W43050   3.935  12.383   3.071 -0.3299 -0.0044  0.2139
27582W        W43051   4.125   7.580  13.352  0.0752  0.1988 -0.0268
27583W        W43052   0.044  14.585   3.678  0.4277 -0.1607 -0.0853
27584W        W43053   7.949   4.759  11.900  0.1140  0.0078  0.0555
27585W        W43054   6.819   3.571  10.832 -0.1945  0.0580  0.1661
27586W        W43055  13.093   4.821  10.556 -0.3170  0.0846  0.0150
27587W        W43056  12.079  10.678  13.024 -0.1165  0.2881 -0.1168
27588W        W43057  15.922   2.558   0.393 -0.0865  0.1551 -0.0694
27589W        W43058  12.832   0.836  15.932 -0.4051 -0.0266 -0.0238
27590W        W43059  17.898   9.377  13.446 -0.0235  0.2590 -0.0240
27591W        W43060   4.457   0.296   3.161  0.1145  0.0982 -0.3019
27592W        W43061  18.005  15.188   4.822  0.2035 -0.0061  0.0992
27593W        W43062  13.866  17.700  12.151 -0.1593 -0.3403 -0.1036
27594W        W43063   5.369   8.647  15.949 -0.1378 -0.3205 -0.1978
27595W        W43064   7.445  17.019  15.924  0.0420  0.2382 -0.0650
27596W        W43065   5.742   2.479   2.174  0.3490  0.0348  0.0292
27597W        W43066  11.753  17.683   3.012 -0.0772 -0.1825  0.0588
27598W        W43067   1.285  12.681   1.123  0.0424 -0.0315  0.1420
27599W        W43068   0.246   1.752   1.841  0.0558  0.1579 -0.0209
27600W        W43069   9.857   5.502   4.279  0.3495  0.0212  0.3327
27601W        W43070   5.838  16.601   4.218 -0.2168  0.0524  0.0630
27602W        W43071   9.777  12.843  15.552  0.1191  0.1353  0.1745
27603W        W43072   5.191  15.645  13.524 -0.3152 -0.1441 -0.0468
27604W        W43073   6.476   0.582  16.188  0.1099  0.0858  0.0405
27605W        W43074  16.444  11.032   5.487  0.2749  0.0935  0.1295
27606W        W43075   0.519   3.239   0.433 -0.2356 -0.0942 -0.0574
27607W        W43076   2.070  17.476  12.604 -0.1645 -0.0093  0.1072
27608W        W43077  15.211  17.085   1.381 -0.1762  0.0464  0.0779
27609W        W43078   6.473   1.692   4.928 -0.0117  0.1083 -0.0782
27610W        W43079   8.559   1.923  13.230 -0.1115  0.2862 -0.1240
27611W        W43080   6.413  16.061  15.747  0.0477 -0.0046  0.2185
27612W        W43081  16.079  14.863  12.141  0.2644  0.3101  0.1514
27613W        W43082   2.032   4.916   0.990  0.2844 -0.1631  0.0930
27614W        W43083  13.540  16.392   5.648  0.2540 -0.0077 -0.1425
27615W        W43084  17.565  12.563  13.628  0.0868  0.1328 -0.0107
27616W        W43085  16.282   2.996   4.729  0.0962  0.1149  0.0367
27617W        W43086   0.760   9.885   4.726 -0.0819 -0.0405 -0.1276
27618W        W43087  13.984  15.443  12.362  0.1709 -0.1743 -0.3187
27619W        W43088   3.174   9.463   1.737  0.3931 -0.0711 -0.2421
27620W        W43089  16.897  11.457   3.859 -0.1210  0.3052  0.2825
27621W        W43090  15.293  13.531  12.387 -0.4599  0.2362  0.1914
27622W        W43091  13.307   1.630   0.447  0.1762 -0.2078  0.0568
27623W        W43092  15.719   7.671   3.109  0.2535 -0.0457 -0.1061
27624W        W43093   7.846  16.791  14.390  0.2956 -0.1245 -0.2187
27625W        W43094   8.821  13.719  10.952 -0.1034 -0.3747 -0.0860
27626W        W43095  11.276  16.451   4.195  0.0542  0.1367  0.1677
27627W        W43096  16.548  11.376  13.802  0.3191  0.0267  0.0919
27628W        W43097   9.694   1.420  13.646 -0.1667 -0.1491  0.0680
27629W        W43098  11.747   8.067   1.956  0.0408 -0.0904 -0.0683
27630W        W43099   2.477   9.521  14.479  0.1709 -0.2343  0.1092
27631W        W43100   6.144  11.337   3.627 -0.1221  0.2215 -0.1462
27632W        W43101  17.210  15.229  10.923 -0.0056 -0.1908 -0.2272
27633W        W43102  10.352   9.225   2.291 -0.0811 -0.0163 -0.3291
27634W        W43103  10.142   3.018   5.317  0.0136 -0.0384  0.0385
27635W        W43104   4.417   1.203  11.097  0.0584 -0.1314 -0.2112
27636W        W43105   6.233  10.478  14.354 -0.2203 -0.0753  0.0699
27637W        W43106   1.407   7.914   2.874 -0.1471  0.2159  0.2221
27638W        W43107   7.175   3.226   3.447  0.0316  0.1877  0.0066
27639W        W43108   9.818   7.347   5.068  0.1257 -0.3954 -0.2213
27640W        W43109   8.205   2.028  14.786 -0.0620  0.1776 -0.2931
27641W        W43110  13.631  15.756  10.898 -0.0833 -0.1888  0.3437
27642W        W43111   3.555  15.745   0.314 -0.2592  0.2422  0.2937
27643W        W43112   8.426   1.550   1.829  0.0199 -0.2023  0.1287
27644W        W43113  13.178   5.858  14.134 -0.0201  0.2733 -0.1352
27645W        W43114  15.691   0.603   1.145 -0.0790 -0.0968  0.2468
27646W        W43115   6.649   2.081   2.380  0.0969 -0.1201 -0.1266
27647W        W43116  15.020  13.628  10.749  0.2856 -0.0224 -0.0895
27648W        W43117  17.134   6.481   5.918 -0.0530  0.2035 -0.0983
27649W        W43118   9.313   8.187  14.874 -0.1562  0.1732  0.1221
27650W        W43119  12.649   8.178   0.692  0.0542  0.1764 -0.2726
27651W        W43120  13.719   9.166  13.200  0.0190  0.2434 -0.1266
27652W        W43121  13.062  16.400  11.660 -0.1708 -0.0308  0.1758
27653W        W43122  17.577   4.504   5.278 -0.1316  0.2090  0.1208
27654W        W43123  16.030   3.192  11.816 -0.4095  0.0833 -0.0446
27655W        W43124   1.434   8.666   0.983  0.2364  0.0962  0.1774
27656W        W43125  12.117   0.263   3.476 -0.1248 -0.1332 -0.3220
27657W        W43126  16.560  11.883  14.017 -0.1292  0.2533  0.0208
27658W        W43127  14.932  10.405   1.406  0.0719  0.2287 -0.0727
27659W        W43128  10.718  13.487  12.376 -0.1257  0.0866  0.0290
27660W        W43129  10.560  14.394   4.021  0.1507 -0.2373 -0.0905
27661W        W43130   8.083   3.924  14.887 -0.6640  0.2556 -0.2998
27662W        W43131  10.324   9.507   2.753 -0.2326  0.2570  0.1064
27663W        W43132   1.738   4.811   5.023 -0.3026  0.2655 -0.0444
27664W        W43133   6.919  16.924   1.912  0.2183 -0.1206  0.0788
27665W        W43134   1.494  17.264  15.810  0.1259  0.0552 -0.1531
27666W        W43135  15.520  11.066  11.219 -0.1071 -0.3422  0.1753
27667W        W43136  17.370   7.332  14.766  0.2291  0.0370  0.1406
27668W        W43137   3.771   9.284   1.707  0.1175 -0.0461  0.0586
27669W        W43138  15.439  16.462  12.676 -0.1214  0.3507  0.0257
27670W        W43139   3.161   0.762   1.031  0.0326 -0.0277 -0.3175
27671W        W43140   8.652  17.279   2.472 -0.0091  0.2794 -0.0810
27672W        W43141   4.618  10.287   2.765 -0.0904  0.4347  0.1348
27673W        W43142  11.194   0.150   1.728  0.0448  0.1156 -0.3026
27674W        W43143  17.889  14.989   1.751 -0.1792 -0.1185  0.1806
27675W        W43144   0.862  16.911   0.230  0.0526 -0.0865  0.1927
27676W        W43145   9.621   5.290  12.690  0.1411 -0.0525  0.0580
27677W        W43146  10.326   8.494  13.197  0.0605  0.1510  0.3842
27678W        W43147   7.203  11.308  15.733  0.4213 -0.1736 -0.1791
27679W        W43148   4.288   6.926   1.145 -0.0166 -0.3660 -0.0559
27680W        W43149  13.716   5.182   3.728 -0.1832 -0.1222 -0.1907
27681W        W43150   3.056  16.273  12.316  0.1880  0.1378 -0.0268
27682W        W43151   5.861   4.395  11.999  0.1885  0.1061  0.0023
27683W        W43152  11.943   6.206   0.285 -0.0495 -0.1664 -0.1434
27684W        W43153   9.695  13.521   0.038  0.0558 -0.1953 -0.0290
27685W        W43154  11.800   0.856  13.628  0.0747  0.2585 -0.2503
27686W        W43155   1.911  12.571  14.756 -0.0525 -0.0080 -0.1608
27687W        W43156   5.217   2.183   0.947  0.0035 -0.1288  0.0112
27688W        W43157   3.889  17.060  14.447  0.1441 -0.0819 -0.0376
27689W        W43158   5.688  11.335  15.470 -0.0701  0.3531  0.1007
27690W        W43159  14.607   2.356   2.175  0.1281 -0.1278 -0.0547
27691W        W43160   5.836  17.151   0.966  0.1975 -0.2173 -0.0506
27692W        W43161  16.689  14.033  10.564 -0.1819 -0.1469 -0.0627
27693W        W43162   1.459  14.752  14.854 -0.2172 -0.0750 -0.0632
27694W        W43163  11.248   4.368   5.611 -0.0822  0.1433  0.3049
27695W        W43164  17.782   0.260  13.322  0.1866 -0.0008  0.1395
27696W        W43165  10.225  13.913   2.176 -0.0960 -0.0459 -0.1400
27697W        W43166  15.521  13.730   2.750  0.2281 -0.0441  0.1167
27698W        W43167   4.467   9.670  15.422 -0.0241 -0.3322 -0.0576
27699W        W43168   6.489   4.369   3.749  0.1894  0.2254 -0.3495
27700W        W43169   5.684   7.949   4.634  0.2201  0.0018  0.3509
27701W        W43170  16.798  11.371   4.641  0.1454  0.0957 -0.0994
27702W        W43171  16.242  13.833   4.443 -0.0258 -0.3749 -0.1147
27703W        W43172   8.298   8.781  15.152 -0.0559  0.0433 -0.1358
27704W        W43173   2.537  15.913   0.623 -0.0299 -0.2464 -0.1112
27705W        W43174  16.046   3.339  14.265  0.2801  0.2531  0.1243
27706W        W43175   2.566  11.441  15.626  0.1453 -0.1628 -0.0331
27707W        W43176   5.304   5.301  15.594 -0.1199 -0.0358 -0.0421
27708W        W43177  17.566  17.994   2.149  0.0224 -0.0509 -0.0898
27709W        W43178   8.524   2.956   4.421  0.0693  0.1225  0.4252
27710W        W43179  17.179  13.235   2.706 -0.1368  0.1411 -0.2351
27711W        W43180   9.019  13.495  12.675  0.0076 -0.2663  0.1262
27712W        W43181   8.473   7.735  10.281 -0.2047  0.2563  0.4158
27713W        W43182  14.439   4.702  16.288  0.1284  0.0498  0.1012
27714W        W43183   6.796   9.323  13.408  0.0499  0.1604  0.0036
27715W        W43184  13.922  14.979   2.478 -0.0981 -0.2073 -0.0868
27716W        W43185  10.059  16.736   4.309 -0.0509 -0.1190 -0.0307
27717W        W43186   7.135  13.549  14.850  0.1428  0.1169 -0.0511
27718W        W43187  12.917   3.525  12.137  0.1429 -0.0018  0.0922
27719W        W43188   7.668  12.507  15.929  0.1703 -0.0875 -0.4834
27720W        W43189  15.706  14.231  11.588 -0.3401 -0.0910  0.0966
27721W        W43190   4.082   9.547   3.608  0.0133  0.0211  0.1934
27722W        W43191   0.704   9.185  14.438  0.0392  0.0051  0.0865
27723W        W43192   5.530   2.842   1.602 -0.1514 -0.3017 -0.0278
27724W        W43193   9.867   2.995   6.202 -0.0503  0.4207  0.0524
27725W        W43194   1.330   7.101  13.744  0.0573  0.0168 -0.2599
27726W        W43195  13.971  18.089  13.415  0.0330  0.0635  0.2524
27727W        W43196   3.359  13.111   0.796  0.0298  0.0707 -0.1544
27728W        W43197  13.618   8.204  12.990 -0.1248  0.0565 -0.1609
27729W        W43198  15.857   1.215   0.134 -0.1008 -0.0662  0.2336
27730W        W43199   4.111  16.835  16.031 -0.1045 -0.0832  0.3985
27731W        W43200   8.471   2.381  14.539  0.2343  0.0832 -0.0039
27732W        W43201  16.176   3.899  12.591  0.4433 -0.0795  0.4174
27733W        W43202   5.966   1.751   1.488 -0.0435  0.1561  0.1635
27734W        W43203  13.607   3.480   4.192 -0.3180 -0.2175  0.0439
27735W        W43204   6.264  18.091  12.933  0.3909  0.0827  0.4110
27736W        W43205  12.465   7.959   2.019 -0.0285 -0.0956 -0.1469
27737W        W43206   8.482  10.402   2.057  0.2837  0.2387 -0.0309
27738W        W43207   4.548  15.894   1.312 -0.1460  0.2415 -0.0189
27739W        W43208   1.261   6.959  13.270  0.4615 -0.2332  0.1197
27740W        W43209  15.453  17.711   1.066  0.0192  0.1822  0.0400
27741W        W43210   5.879   9.779  13.410 -0.0887  0.2485 -0.1417
27742W        W43211  16.516  11.902   3.885  0.0788  0.1686 -0.0012
27743W        W43212  17.240  13.130   3.331  0.0293 -0.4524 -0.3105
27744W        W43213   2.553  13.271  14.293 -0.0392 -0.0128  0.1523
27745W        W43214   1.632  13.220  12.416 -0.0960 -0.0958 -0.1580
27746W        W43215  10.582  10.211   3.738 -0.1892  0.1879  0.0356
27747W        W43216   5.714   5.517   0.539 -0.2045  0.2409  0.2340
27748W        W43217  11.303   8.605   4.355  0.0940 -0.2182  0.0841
27749W        W43218  12.176   1.101   1.011  0.0701  0.1252  0.2933
27750W        W43219  11.863   4.011   1.259 -0.1616  0.1621  0.1066
27751W        W43220  12.469  11.449   3.239  0.2007 -0.0128 -0.1122
27752W        W43221   4.848   9.102   1.568 -0.5223 -0.0898  0.1094
27753W        W43222   5.174  14.181   5.824  0.2955  0.2946  0.0850
27754W        W43223  11.612  11.016   0.771 -0.0454  0.2424 -0.4720
27755W        W43224   4.950   1.052  12.560 -0.0812  0.0615  0.1706
27756W        W43225   6.646   9.607  12.976  0.0460  0.0832 -0.0623
27757W        W43226   5.664   8.350  12.370 -0.1111  0.0677 -0.0027
27758W        W43227   3.527  10.941  13.576  0.0323  0.1206 -0.1370
27759W        W43228   2.428   9.447  11.922 -0.2206  0.0258 -0.2139
27760W        W43229  14.715  11.965  16.204 -0.0650 -0.0538  0.0127
27761W        W43230   4.918  17.615  11.402 -0.1554  0.0142 -0.0014
27762W        W43231  17.285  16.477   5.423 -0.3122  0.2468 -0.2687
27763W        W43232  11.751   6.702  15.137  0.2030  0.3041 -0.0028
27764W        W43233   1.617   4.323  12.561 -0.1342  0.0425  0.4049
27765W        W43234   8.435   6.767  12.298  0.1164  0.1891  0.1457
27766W        W43235   4.074   8.394   3.677 -0.0153 -0.1021  0.0357
27767W        W43236   5.331   3.284   2.609  0.0442  0.0798  0.1453
27768W        W43237   6.305  15.193   2.439  0.0603  0.0576  0.0724
27769W        W43238  12.816  13.456   3.038  0.1937  0.0170  0.1834
27770W        W43239   4.304  13.507  12.653  0.1548  0.0810  0.1224
27771W        W43240  16.727   3.109   1.727 -0.2293 -0.2022  0.0059
27772W        W43241  12.432   9.290   3.780 -0.2683 -0.0413  0.0197
27773W        W43242  14.105  16.117  14.679  0.1902  0.0696 -0.1078
27774W        W43243  17.050  14.204  11.335 -0.0662 -0.3141  0.0280
27775W        W43244   2.912  17.992  13.802 -0.2239 -0.1992  0.1552
27776W        W43245   7.381   7.574  13.437  0.2214  0.1335 -0.0777
27777W        W43246  10.547  13.311   2.199 -0.0808 -0.5418  0.1611
27778W        W43247  10.772   4.439   4.655  0.2300  0.0362 -0.1106
27779W        W43248   3.503   2.838  12.529 -0.0283  0.1124 -0.1250
27780W        W43249   4.901  15.643  11.127  0.0307 -0.2654 -0.1438
27781W        W43250   6.383   0.661  12.159 -0.1119  0.5087 -0.0987
27782W        W43251  12.061   6.273  15.196  0.0986  0.1747 -0.1946
27783W        W43252  16.521   4.311   4.489 -0.0259 -0.0012 -0.0671
27784W        W43253  11.971  13.404   1.247  0.2053 -0.2094  0.2048
27785W        W43254   9.139  13.895   4.700  0.1428 -0.3423  0.0707
27786W        W43255   1.356   2.824  12.447 -0.1950  0.0746 -0.1075
27787W        W43256  17.064   2.015   5.761  0.0194 -0.2317 -0.0297
27788W        W43257  12.812   3.504  15.238 -0.0421 -0.2976 -0.0624
27789W        W43258   7.213   4.677   4.768  0.0360  0.0418  0.1884
27790W        W43259   8.968   3.938  13.837 -0.1380  0.1519  0.1842
27791W        W43260  10.020   5.546   5.200 -0.0459 -0.4050 -0.1329
27792W        W43261   4.565   4.626  14.899 -0.0857  0.3617 -0.3499
27793W        W43262  17.140   2.425  14.935  0.0520 -0.0246 -0.1029
27794W        W43263  14.226  16.722   1.309 -0.1263 -0.2094 -0.0809
27795W        W43264  12.726   5.950  12.836  0.4995 -0.0881  0.0138
27796W        W43265  10.646   3.536   4.686 -0.2795  0.2807 -0.3445
27797W        W43266  17.135  15.127   5.176  0.0453 -0.0876 -0.0656
27798W        W43267   9.843  12.838  13.810 -0.0291  0.0374  0.1469
27799W        W43268   1.270   5.225  11.747  0.1506  0.0138 -0.0164
27800W        W43269  15.042   6.009   2.133  0.0795  0.0738  0.1565
27801W        W43270  17.069   4.857   5.113 -0.2985 -0.1117 -0.1110
27802W        W43271   4.286  11.409   4.064 -0.1289  0.0053  0.2281
27803W        W43272   7.929   0.648  12.750 -0.0866 -0.0183 -0.0205
27804W        W43273  13.601   8.067   2.835  0.2049 -0.1835  0.3188
27805W        W43274  12.529   0.198   1.842  0.2518 -0.1273  0.2017
27806W        W43275  16.480   5.771   5.163  0.1111 -0.0379 -0.1606
27807W        W43276   6.253  12.545   2.374 -0.4544 -0.0302  0.0933
27808W        W43277   8.052   8.295  14.512  0.2344  0.0803  0.0782
27809W        W43278  17.275   6.814  14.786 -0.1901  0.0356  0.0324
27810W        W43279  13.451  14.871  14.864  0.0068  0.0268  0.0683
27811W        W43280  15.427  12.184  12.453  0.0337 -0.2407 -0.3933
27812W        W43281  12.421   7.909  16.145 -0.2321  0.1952 -0.2637
27813W        W43282   1.793   5.338  14.251 -0.2352 -0.3495 -0.2942
27814W        W43283   9.709   3.653   4.693  0.0888 -0.1083  0.0943
27815W        W43284  14.875   5.002  13.219 -0.0817 -0.1537  0.0212
27816W        W43285  13.520   2.532  16.310  0.0494  0.1891 -0.4556
27817W        W43286   8.370   3.300  15.468 -0.1329  0.0566  0.2548
27818W        W43287  10.872  16.321   6.253 -0.0079 -0.0944 -0.0075
27819W        W43288  16.222  11.543  13.426  0.3131 -0.3539 -0.1719
27820W        W43289   8.007   0.511  14.675 -0.1567 -0.1166  0.1044
27821W        W43290  10.153   8.843  11.664 -0.2815  0.4442  0.4034
27822W        W43291  10.850   3.961  14.788 -0.1443  0.1827 -0.2475
27823W        W43292   7.109  17.578   2.658  0.1542  0.0297  0.2196
27824W        W43293  14.359  16.852   2.954 -0.3169  0.0005 -0.3041
27825W        W43294  12.268  17.215   3.766 -0.1806  0.1293  0.3859
27826W        W43295  11.293   5.570  11.324 -0.0600  0.1016  0.0366
27827W        W43296  13.552  11.792   5.361 -0.1217 -0.3525  0.1168
27828W        W43297   0.601   9.741   5.205 -0.0487 -0.1252  0.0976
27829W        W43298   1.763  16.255  12.641 -0.1100  0.1055  0.2954
27830W        W43299   2.384   9.576   4.293  0.1302 -0.0084  0.0492
27831W        W43300   6.397  16.917  16.024  0.2095 -0.3199 -0.1142
27832W        W43301   2.330   2.318  15.530 -0.3419  0.0590 -0.4269
27833W        W43302   2.015   9.542  11.630 -0.1672 -0.3934  0.1190
27834W        W43303  12.770  16.974   5.059 -0.4027  0.2131  0.2283
27835W        W43304  14.030   0.983  11.181  0.1069  0.1556  0.2194
27836W        W43305  11.264  13.843   3.077 -0.1155  0.1240  0.2022
27837W        W43306   7.490  10.094   2.785  0.1773  0.2263 -0.0732
27838W        W43307   4.981  11.699  14.983  0.2428  0.1939 -0.0476
27839W        W43308   0.132   3.927  14.366  0.0832 -0.0166  0.0358
27840W        W43309  16.562  11.177  13.317  0.1701 -0.1289 -0.1371
27841W        W43310  16.512   7.451   3.257 -0.0857  0.3321  0.2710
27842W        W43311  15.831   8.787   2.763 -0.0018 -0.0248  0.1341
27843W        W43312   4.492  10.583   3.172  0.1160 -0.0915 -0.0570
27844W        W43313   8.875  14.233   0.950  0.0558 -0.0504 -0.0162
27845W        W43314   9.268  12.610   4.362  0.1264 -0.0476 -0.0919
27846W        W43315   9.453   9.699  15.668  0.2045  0.0574  0.0759
27847W        W43316  14.980   1.531   3.067 -0.0967  0.0928 -0.5088
27848W        W43317  13.412  13.507   3.733 -0.0171  0.0795 -0.0042
27849W        W43318  17.393  17.347   0.924  0.1240 -0.1297  0.0357
27850W        W43319   6.660   2.794   2.087  0.1289 -0.1414  0.0999
27851W        W43320  14.843   4.571  14.092 -0.2197 -0.2152 -0.0416
27852W        W43321   7.500   2.638   2.182 -0.0226 -0.0613  0.1671
27853W        W43322  16.026   6.321  12.548  0.3043 -0.2006 -0.1605
27854W        W43323   9.076   5.750  12.733  0.0494 -0.2101  0.0755
27855W        W43324   9.179  15.264  11.341  0.0265  0.0463  0.0544
27856W        W43325  12.286  13.947   5.199  0.0124  0.1107  0.0906
27857W        W43326   5.962   7.914  13.120 -0.0683  0.3101  0.2269
27858W        W43327   3.977   2.017  15.682 -0.0294 -0.0453  0.1718
27859W        W43328   2.263   6.154   4.881  0.2900 -0.0279  0.0007
27860W        W43329   0.282   9.202   5.593  0.1142  0.5237 -0.2774
27861W        W43330  15.980  17.969  11.336  0.1467  0.2272  0.0653
27862W        W43331   6.535   9.715   2.785  0.0391 -0.0759  0.2284
27863W        W43332  15.561   6.288   4.384  0.0925  0.1639 -0.2567
27864W        W43333  15.588   9.105   5.321  0.1822 -0.0795 -0.2379
27865W        W43334   2.125   7.370   4.925  0.0439  0.3293  0.0073
27866W        W43335  13.312   8.975  11.863  0.1030  0.0314  0.0700
27867W        W43336   5.543  15.893  11.757 -0.3998 -0.0162  0.2399
27868W        W43337  15.043   7.748   5.241  0.2429  0.0257 -0.2525
27869W        W43338  11.364   7.693   3.257 -0.0833 -0.3832 -0.0796
27870W        W43339  13.791  13.068  11.729 -0.1649  0.0913 -0.0219
27871W        W43340  13.385   4.199   1.556 -0.0681  0.0464  0.2053
27872W        W43341  14.066   8.240   4.009  0.1289 -0.1523  0.0478
27873W        W43342  12.050   1.862  11.824  0.2191 -0.1829 -0.2101
27874W        W43343   5.763   2.253  10.476  0.1516  0.1085  0.1907
27875W        W43344   6.017   3.450  15.479 -0.2746 -0.0523  0.0068
27876W        W43345  15.905  12.934   1.351 -0.0347 -0.1670 -0.0213
27877W        W43346   8.439   2.637  15.354  0.1175  0.0107 -0.0694
27878W        W43347  14.565   8.668   4.677 -0.0310  0.0496 -0.1679
27879W        W43348   3.267  17.203   5.318 -0.1237 -0.1554  0.3351
27880W        W43349  15.670  10.213  10.179 -0.3046  0.0925 -0.0493
27881W        W43350  13.994   5.999   4.258  0.0452 -0.1589 -0.1272
27882W        W43351   2.196   0.261  14.156  0.1384  0.0254 -0.1049
27883W        W43352  13.561   3.057   6.203  0.0150 -0.3201  0.1729
27884W        W43353   2.572  15.230   1.360  0.3918  0.1294 -0.1113
27885W        W43354  17.683  11.617  15.313  0.2337 -0.0057 -0.0111
27886W        W43355  13.407   7.870  14.960 -0.2676  0.1095 -0.0033
27887W        W43356   0.325  13.325   2.788  0.0301  0.1392 -0.1294
27888W        W43357   7.117  14.470   5.241  0.0116 -0.1910 -0.1236
27889W        W43358  17.455  14.884  14.603  0.3674 -0.1295 -0.0027
27890W        W43359  17.065  16.549  13.216  0.3299  0.2580 -0.0203
27891W        W43360  16.010   7.463   2.433 -0.0421 -0.0651  0.0728
27892W        W43361   8.460   9.463   3.065 -0.2855 -0.0930 -0.3287
27893W        W43362  14.677   6.282  12.590 -0.1452  0.0037 -0.1691
27894W        W43363  15.847   2.111  12.297  0.1085 -0.1019  0.3083
27895W        W43364  16.736  15.566  15.459  0.0690  0.1388  0.0330
27896W        W43365   8.566  17.870   3.345  0.0896 -0.4003 -0.2129
27897W        W43366   3.262   6.375  15.549  0.2192 -0.0766 -0.0539
27898W        W43367   9.863   4.011   3.702  0.0031  0.0747 -0.1976
27899W        W43368  11.871   8.150  13.676 -0.2205 -0.0577 -0.0065
27900W        W43369  12.518  15.314   1.930 -0.1186  0.1761  0.0471
27901W        W43370   4.205   3.654   4.993 -0.1028 -0.0232 -0.0066
27902W        W43371   6.626   2.780  12.569  0.2675  0.1022 -0.1375
27903W        W43372  16.403   3.315  11.416  0.1904  0.0429 -0.1483
27904W        W43373   3.799   6.913  14.337 -0.0003 -0.2511  0.1791
27905W        W43374   2.141  14.769  11.945 -0.1542 -0.0952 -0.0268
27906W        W43375   9.976  10.882   4.995 -0.1120  0.2268 -0.1806
27907W        W43376   0.782  14.523   3.160  0.3437 -0.0810  0.2646
27908W        W43377   5.017   2.419  13.121 -0.1256  0.2902  0.2548
27909W        W43378   1.742   9.889  10.029 -0.1255 -0.0113 -0.1794
27910W        W43379  10.607   1.185  13.819 -0.0745 -0.0080  0.0295
27911W        W43380   8.615   2.459  11.937 -0.1121  0.2440  0.2913
27912W        W43381   1.038   4.507   1.514 -0.1464  0.1171  0.0240
27913W        W43382  18.023  13.360   5.443 -0.1573 -0.4003  0.1677
27914W        W43383   2.897   6.093   3.580  0.2175  0.2399  0.2319
27915W        W43384   8.521   7.652  12.461 -0.0044  0.0581  0.2760
27916W        W43385   4.258  13.454  14.223  0.1755  0.0280 -0.1040
27917W        W43386   6.846   8.688   5.839 -0.1251 -0.2690 -0.1047
27918W        W43387  13.209   7.078   0.289  0.0255  0.0890  0.0039
27919W        W43388   1.253   4.722  14.988 -0.2795 -0.1736  0.0052
27920W        W43389  11.249  13.683   1.250 -0.1351  0.0867 -0.0374
27921W        W43390  14.845  12.289  15.826 -0.2061 -0.1208 -0.1326
27922W        W43391   9.289   2.070   0.817  0.0225 -0.1298 -0.4441
27923W        W43392  10.086  12.001   5.472 -0.0921 -0.0634 -0.0183
27924W        W43393  11.351  16.397  13.127  0.0238 -0.0745 -0.2086
27925W        W43394  14.448  12.077  12.939  0.0680 -0.0250 -0.2765
27926W        W43395  10.104  10.853  16.025 -0.1134 -0.0408  0.2430
27927W        W43396   4.079  16.628   2.792 -0.2143  0.0075  0.3244
27928W        W43397  10.834  16.275  13.019  0.2180  0.0247 -0.3405
27929W        W43398  12.036  15.330   3.859  0.0924 -0.1462 -0.1874
27930W        W43399  12.448   6.371   5.478  0.1252  0.0338  0.1544
27931W        W43400   8.060   6.268   3.953 -0.2367  0.2059 -0.2336
27932W        W43401   9.393   3.430  13.110  0.0816 -0.2231  0.2571
27933W        W43402   6.158   8.623   3.783 -0.3596  0.0755 -0.1617
27934W        W43403  12.981   0.489  14.081 -0.4360 -0.1655  0.0663
27935W        W43404   9.877   3.801   5.155 -0.2340 -0.0114 -0.1174
27936W        W43405  10.632  16.167   2.019 -0.1493  0.0590  0.1461
27937W        W43406  10.600  12.618  11.716 -0.1092  0.1708  0.3162
27938W        W43407  12.904  17.691  15.439  0.1220  0.0934 -0.0972
27939W        W43408   6.805   1.498   3.306  0.0593 -0.2790 -0.4147
27940W        W43409  16.473  16.065   2.510  0.2022 -0.3657 -0.0877
27941W        W43410   0.998  17.545   5.739  0.4868 -0.0674 -0.0546
27942W        W43411  16.658   9.194   0.586  0.3379  0.3932  0.0952
27943W        W43412   3.077   8.275   2.667  0.1419  0.0614  0.1698
27944W        W43413  18.027  14.894   2.282  0.0281 -0.1365  0.2296
27945W        W43414  12.423  11.155   1.717 -0.1031  0.2023 -0.2059
27946W        W43415  11.925  16.067  13.937  0.3390  0.1676  0.1275
27947W        W43416  13.181  15.874   1.101 -0.1475  0.0166  0.0012
27948W        W43417  17.338   0.362  15.281 -0.0927  0.0811 -0.0261
27949W        W43418   8.594   4.262  13.676 -0.1502  0.1620 -0.3750
27950W        W43419  17.833  11.331   4.219 -0.2498  0.1948 -0.1052
27951W        W43420  16.359   9.517   0.182 -0.1303 -0.0812 -0.1481
27952W        W43421   2.637   5.569   0.883 -0.2689  0.0948 -0.3032
27953W        W43422   9.960   4.290   0.363  0.0080 -0.1092  0.2359
27954W        W43423  13.885  13.694  10.963 -0.0473 -0.1466  0.0729
27955W        W43424  15.296   0.812   1.881  0.1293 -0.0106  0.0163
27956W        W43425   1.175  13.418   4.501  0.1517 -0.3189 -0.2818
27957W        W43426   2.148  13.075  11.757  0.2753  0.0933  0.0629
27958W        W43427  10.603   5.009   2.252 -0.1234  0.1109 -0.0644
27959W        W43428  11.923  18.016  16.039 -0.1875  0.0304 -0.0704
27960W        W43429   6.822  11.971   0.959 -0.0215 -0.0646  0.1587
27961W        W43430  10.126  13.659  12.507 -0.1970  0.0092  0.2149
27962W        W43431  16.787  11.473  14.320 -0.3217  0.1183 -0.2420
27963W        W43432  11.418   2.742   2.168 -0.0301  0.2646  0.1560
27964W        W43433  17.326  13.096   0.695 -0.0548  0.1910 -0.0851
27965W        W43434  10.150  12.614  11.306 -0.1823  0.1567  0.4092
27966W        W43435   8.372  10.537  14.491  0.3591  0.0611 -0.1482
27967W        W43436   8.541   2.772  16.258  0.0198  0.1000  0.1072
27968W        W43437   9.988   5.506  13.106 -0.1521 -0.2802 -0.0357
27969W        W43438  12.645  14.346  12.566 -0.1657 -0.0814 -0.2819
27970W        W43439   1.282   8.646   4.866 -0.2200 -0.3830 -0.0450
27971W        W43440   2.441  14.319  11.890  0.3470  0.1749  0.0264
27972W        W43441   4.844   0.799   3.151 -0.0112  0.1174  0.0302
27973W        W43442   6.871   7.443   4.668 -0.2082 -0.0194  0.0484
27974W        W43443   5.635  15.295  15.672  0.0589 -0.3380  0.2062
27975W        W43444   2.077   4.097   0.886  0.1951 -0.0698 -0.0642
27976W        W43445  17.318   5.716   2.732 -0.1112  0.3465 -0.0381
27977W        W43446   6.755   2.343   5.502  0.1428  0.0213 -0.0097
27978W        W43447  15.164   7.706   2.994  0.1119  0.0348 -0.2242
27979W        W43448   9.261   0.367  12.309  0.1492 -0.0701 -0.0536
27980W        W43449   8.787  16.361  14.101 -0.0793  0.1971 -0.1324
27981W        W43450  17.724   4.088  11.774  0.1722  0.0067 -0.2552
27982W        W43451   9.827  17.476   1.159 -0.1621 -0.2025 -0.0661
27983W        W43452   1.589   2.177   1.572  0.1693 -0.2376 -0.1850
27984W        W43453   4.586  17.368  12.124 -0.0937  0.1737  0.0927
27985W        W43454   7.323   1.685  14.059  0.2905  0.3243  0.1380
27986W        W43455   1.929  15.364  13.534  0.0642  0.2511 -0.1844
27987W        W43456   0.979   3.218   0.885 -0.1852 -0.3862 -0.3401
27988W        W43457   4.438  16.848   1.457 -0.0992  0.1078  0.0518
27989W        W43458  17.754   6.838   1.870  0.1573  0.2746 -0.0363
27990W        W43459   8.884   1.166  11.208 -0.3124 -0.2548  0.0631
27991W        W43460  10.999  17.751   5.291 -0.0357  0.0151  0.0218
27992W        W43461   0.582   3.038   3.018 -0.2477  0.0845  0.1497
27993W        W43462   8.152   5.020   1.043  0.0047  0.1198  0.3969
27994W        W43463   0.412   7.554   5.739 -0.3477  0.0470  0.0551
27995W        W43464  15.815   3.662  11.612 -0.1396  0.0357 -0.1594
27996W        W43465   7.686   2.672   1.517  0.0656 -0.0876  0.2383
27997W        W43466  14.598   4.711   4.607 -0.1227 -0.1834  0.0308
27998W        W43467  16.434   4.990   3.008 -0.3251  0.2793 -0.2928
27999W        W43468  14.258   1.564   3.668  0.0345  0.1219  0.1852
28000W        W43469   1.916   6.536   4.643  0.1764 -0.2150  0.0500
28001W        W43470  10.315  16.806   4.745  0.2093  0.2839 -0.1646
28002W        W43471   7.166   4.789  15.413  0.2681  0.0998  0.1141
28003W        W43472   4.383   3.392   2.895 -0.1228 -0.0588 -0.1361
28004W        W43473  18.080   7.215   0.352  0.0222  0.5113  0.1887
28005W        W43474  12.084  14.850  11.491  0.1067  0.0933  0.2014
28006W        W43475  12.725   0.869  15.206  0.0206 -0.2908 -0.0843
28007W        W43476   7.520  10.635   5.296  0.2230 -0.0101 -0.1966
28008W        W43477   4.070   0.028  10.973 -0.1658 -0.2198  0.0027
28009W        W43478   7.626  10.086   1.747  0.0081  0.1411  0.1803
28010W        W43479  16.832   3.926   2.800  0.0708 -0.1115  0.0364
28011W        W43480  11.611  13.018  13.550 -0.3459 -0.1451 -0.0623
28012W        W43481  13.555  14.222   2.167  0.1073  0.2834  0.0218
28013W        W43482   3.503  16.834  13.998 -0.0898 -0.1444  0.0588
28014W        W43483  14.420   5.465  13.978 -0.2682  0.0453  0.1781
28015W        W43484   0.005   6.855   1.426 -0.1849  0.4400 -0.1064
28016W        W43485   8.280   0.210   1.660  0.1048 -0.1578 -0.0475
28017W        W43486   0.723   6.897   2.125 -0.1692 -0.0878  0.1453
28018W        W43487   6.998  11.151   0.801 -0.2644  0.1759  0.1334
28019W        W43488   6.799   1.680   4.232  0.1624  0.1832 -0.3818
28020W        W43489  14.826   8.935  13.299  0.0497 -0.2949  0.1031
28021W        W43490   2.652   5.725  15.792 -0.1722  0.1026 -0.2819
28022W        W43491  12.000  14.458  16.288  0.0548  0.1540  0.3031
28023W        W43492   3.835  10.519  15.597  0.0285 -0.1572  0.2273
28024W        W43493   4.933   8.125   0.322  0.0334 -0.4004 -0.0610
28025W        W43494  15.393   4.470   5.224  0.0111 -0.1908  0.2688
28026W        W43495   7.884   6.464   0.876  0.1034 -0.2826 -0.0036
28027W        W43496  13.417  17.152   5.024 -0.0197  0.3166 -0.0056
28028W        W43497  13.583  10.793  13.877  0.1509  0.0406 -0.1393
28029W        W43498  11.031   0.808   0.367  0.1594  0.0283 -0.1518
28030W        W43499   5.906   1.813  11.486 -0.1217 -0.4780  0.0625
28031W        W43500  16.456   3.338   0.390  0.1591 -0.0633  0.0590
28032W        W43501   2.385   0.207  11.240 -0.0931 -0.0746 -0.2294
28033W        W43502  17.994   2.347  13.791  0.1764 -0.0995  0.0701
28034W        W43503   5.477   1.619   1.631  0.2902  0.2550 -0.1355
28035W        W43504  13.064   7.402   1.331 -0.4206  0.1535 -0.3284
28036W        W43505   3.295  13.102   2.358  0.0627 -0.2073 -0.0150
28037W        W43506  12.102   5.566   2.775  0.1332 -0.1787  0.0272
28038W        W43507   7.689   5.616  12.060  0.1268 -0.1437  0.0113
28039W        W43508  13.289  12.176  14.803 -0.3506  0.2823  0.1761
28040W        W43509   0.522   1.357   1.593 -0.3108  0.0227 -0.3294
28041W        W43510   3.253  14.393  10.430 -0.1753  0.1528 -0.3304
28042W        W43511   1.157  12.548   5.256  0.0194  0.0978  0.0461
28043W        W43512  17.991  17.418   3.261  0.0981 -0.4968 -0.1332
28044W        W43513  15.732  17.162   0.596 -0.0812 -0.1713 -0.0357
28045W        W43514   5.438  11.892   4.258 -0.0868 -0.0982  0.1557
28046W        W43515   9.998   2.190  15.874 -0.3323 -0.0830 -0.2472
28047W        W43516   2.618  14.673  15.442  0.0005 -0.0650 -0.2077
28048W        W43517  17.239   5.325  14.917  0.1585  0.0738 -0.0595
28049W        W43518  16.338   0.490  15.302  0.1933  0.0127  0.0657
28050W        W43519   2.323   9.707   5.342  0.0019 -0.0458 -0.0616
28051W        W43520   5.369   3.826   0.099  0.2347 -0.1568 -0.2718
28052W        W43521  13.550  11.378  14.968  0.0704 -0.2724 -0.3355
28053W        W43522   6.863   6.106  15.328  0.2344 -0.1263 -0.0002
28054W        W43523  16.297  17.334   0.682 -0.0224  0.2224 -0.2124
28055W        W43524   8.978   4.098   5.078 -0.1080 -0.0224 -0.1197
28056W        W43525  16.139  13.378   5.400 -0.0700 -0.0000  0.1780
28057W        W43526  14.346   2.297  15.545  0.1176 -0.1749  0.1483
28058W        W43527   5.916   9.609   1.337 -0.2339  0.3318  0.2965
28059W        W43528   6.238   4.648   0.790 -0.0446 -0.2803  0.1932
28060W        W43529   9.218   5.702  10.597  0.2090  0.0980 -0.1711
28061W        W43530   8.755  17.518  13.025  0.3023 -0.0340 -0.1927
28062W        W43531  16.617  16.021  10.929  0.1299 -0.3054 -0.0579
28063W        W43532   5.471  10.462  10.111 -0.0251 -0.1338 -0.0466
28064W        W43533   6.347  16.430   5.746  0.1988 -0.2623 -0.0105
28065W        W43534   8.800   2.637  15.813  0.0480 -0.1542 -0.0643
28066W        W43535  17.607  12.707   6.432 -0.0722  0.0149 -0.0221
28067W        W43536  13.529  15.156  13.028 -0.0086 -0.0921 -0.1639
28068W        W43537  14.186   8.229   1.825  0.1272 -0.1252 -0.2340
28069W        W43538  13.620   1.037   4.078  0.1604 -0.0034 -0.0210
28070W        W43539   1.147   1.349   5.030  0.1130 -0.2940 -0.1629
28071W        W43540   0.602  10.356   5.012  0.2917 -0.2385 -0.0009
28072W        W43541  15.859   4.879  12.599  0.2677  0.4076 -0.1279
28073W        W43542   7.504   1.325  12.450  0.0900 -0.1345 -0.0406
28074W        W43543   6.124   4.093  12.867 -0.0748 -0.2304 -0.1368
28075W        W43544   0.922   7.500  14.736 -0.0229  0.1662  0.3231
28076W        W43545   4.529  12.011  16.093 -0.2387 -0.1851 -0.0425
28077W        W43546   1.160  14.064   2.361  0.1886  0.2099  0.0487
28078W        W43547  14.060   5.161  14.162 -0.0586  0.1699 -0.0454
28079W        W43548  13.917  15.834   2.984 -0.1442 -0.1353 -0.1245
28080W        W43549  10.286  14.257   5.191  0.0677 -0.1330 -0.0381
28081W        W43550  12.044   2.411  16.063  0.1006  0.0199  0.0804
28082W        W43551   9.898  13.651   3.167  0.0932  0.0917 -0.0976
28083W        W43552   5.689  16.998  14.103 -0.5009 -0.2520  0.0780
28084W        W43553   6.233  13.813   2.887 -0.1470  0.1206  0.0903
28085W        W43554  15.614  17.148  15.818  0.2363 -0.0835 -0.2759
28086W        W43555  12.954  13.955  12.719 -0.1260  0.0057  0.1759
28087W        W43556  16.389   0.053   5.988  0.0618 -0.2902 -0.0325
28088W        W43557   6.939  13.503   0.123 -0.0973  0.0846  0.0153
28089W        W43558  12.159   4.382  14.004 -0.3527  0.3930  0.1333
28090W        W43559   8.254  15.482  10.310  0.5156  0.2918 -0.1110
28091W        W43560  16.169  12.796  10.428  0.2640  0.0363 -0.2811
28092W        W43561  15.567  17.632  10.619 -0.0672 -0.3312  0.0007
28093W        W43562   4.336   7.526   6.050 -0.0135 -0.0456 -0.1868
28094W        W43563   5.812  10.749  12.006  0.2654 -0.2467  0.1394
28095W        W43564   4.452  16.082  16.024 -0.1919  0.0978  0.1642
28096W        W43565   9.680  17.769   0.278  0.0272 -0.1226  0.0164
28097W        W43566   5.671   6.566  16.004  0.2275 -0.0434 -0.0227
28098W        W43567  17.339   0.032   4.170  0.1277 -0.2207  0.0275
28099W        W43568  10.383  16.436  16.235 -0.2199 -0.0939 -0.0495
28100W        W43569  11.900   3.485   5.433 -0.1294  0.0221  0.2188
28101W        W43570  14.480  16.301  12.700  0.1140  0.0977  0.0909
28102W        W43571  14.492   0.016   3.863  0.1022 -0.0151  0.0753
28103W        W43572  15.768   3.362   3.622  0.1430  0.1285 -0.1355
28104W        W43573   9.860  13.987   0.294  0.1279  0.1990 -0.1942
28105W        W43574  15.957  17.035  11.908 -0.0567  0.2205  0.1831
28106W        W43575   0.560   4.134   0.993 -0.2611  0.0337 -0.0598
28107W        W43576   9.041  16.957  11.225  0.0393 -0.1739  0.1221
28108W        W43577  12.101  16.662   4.557 -0.0932  0.0195 -0.0815
28109W        W43578   7.516   7.509  11.969 -0.1508 -0.0167 -0.1741
28110W        W43579   6.471  10.805   2.135 -0.2644 -0.2385 -0.2285
28111W        W43580   2.084  15.280   1.276 -0.0607 -0.1466  0.2306
28112W        W43581  14.595  14.232   3.012  0.3880 -0.1253  0.1007
28113W        W43582   4.798   9.438   1.964 -0.0827  0.1589  0.0603
28114W        W43583   4.679   1.376   4.366 -0.0056  0.0494 -0.0247
28115W        W43584   6.269   5.327   4.184 -0.2013 -0.2100  0.2646
28116W        W43585   1.771   7.777  13.207 -0.1110 -0.1420 -0.0347
28117W        W43586  13.908   7.110  16.272  0.2734 -0.0893  0.0060
28118W        W43587  11.784  13.312   4.734 -0.1712 -0.0173 -0.0600
28119W        W43588  10.839   9.557   3.672  0.0855 -0.0940 -0.1907
28120W        W43589   5.623  16.630  13.759 -0.3400 -0.0049 -0.1548
28121W        W43590  16.834   4.683  13.720 -0.0446 -0.2825 -0.0026
28122W        W43591   7.880  17.325   1.853 -0.2586  0.0448 -0.0180
28123W        W43592  14.245   3.284  12.868  0.1630 -0.0252  0.1861
28124W        W43593  15.525  15.592  12.573 -0.0767 -0.0226 -0.1918
28125W        W43594   3.773  10.403  14.302  0.1158 -0.0590  0.2583
28126W        W43595  10.485  13.195  15.510  0.0527 -0.0058 -0.2516
28127W        W43596   9.519  13.000  14.576 -0.2280  0.0503 -0.2820
28128W        W43597  14.486  14.164   4.499 -0.0801 -0.4019 -0.2511
28129W        W43598   5.656   1.569  16.311 -0.1040  0.0857 -0.3527
28130W        W43599  10.503  14.344  12.112 -0.3304 -0.0594  0.1031
28131W        W43600  14.935   5.404   5.216 -0.0246  0.0976 -0.1316
28132W        W43601   8.969  10.387   3.295 -0.2702  0.0521 -0.5950
28133W        W43602  16.177  15.853   2.949  0.0790  0.1628 -0.3366
28134W        W43603  14.487  10.186  12.863  0.0622 -0.1435  0.0452
28135W        W43604  11.415   3.955  12.761 -0.1972  0.0407  0.0331
28136W        W43605  15.535  15.595   4.435 -0.1486 -0.0304  0.0232
28137W        W43606   6.808   6.599   3.899 -0.0677 -0.1114  0.1416
28138W        W43607  15.117  12.816   1.936  0.2472 -0.1999  0.1974
28139W        W43608  13.802   6.931  12.869  0.0324 -0.1987 -0.1580
28140W        W43609  17.090  14.775  11.170 -0.2222  0.1452  0.2801
28141W        W43610  13.352  10.621  13.452  0.0805 -0.3494 -0.0444
28142W        W43611  16.135   2.166   2.324 -0.1460  0.1657 -0.0485
28143W        W43612  17.839   9.493   3.985  0.0099  0.2396  0.0618
28144W        W43613  11.085  14.832  15.257  0.1909  0.2014 -0.1501
28145W        W43614  14.851  10.454   3.741  0.0274 -0.1587 -0.3801
28146W        W43615   6.257  16.487  15.813  0.2502  0.0433 -0.0834
28147W        W43616  14.428   7.637   5.314  0.2230 -0.1446 -0.0257
28148W        W43617  15.308   3.376   2.902  0.1358  0.0632  0.1962
28149W        W43618   5.529   7.851  14.692  0.2234  0.1396  0.4360
28150W        W43619   6.382   5.330   3.590  0.1084  0.1625 -0.0791
28151W        W43620   1.952  17.438  11.543  0.0437  0.3373  0.0256
28152W        W43621  10.930  16.167  12.080 -0.2876  0.1091  0.1648
28153W        W43622  15.790   9.746  13.002 -0.0641  0.0813  0.2258
28154W        W43623   4.778   0.757   0.814 -0.0539  0.0036 -0.0977
28155W        W43624   9.489  12.155  14.382 -0.1528  0.1360 -0.1999
28156W        W43625  13.398   1.069  14.635 -0.0065  0.2474  0.2408
28157W        W43626   8.735   3.281  12.743  0.0643  0.0606  0.3014
28158W        W43627  13.481  10.364   2.001 -0.0014 -0.0686 -0.0517
28159W        W43628   0.239  11.801   3.092 -0.1266  0.0870  0.2780
28160W        W43629  10.833  12.184  16.292  0.0308 -0.0580  0.0797
28161W        W43630  15.057  16.186   2.118  0.3217  0.1116 -0.2782
28162W        W43631   7.468  11.486  15.358  0.0700  0.3113  0.1585
28163W        W43632  16.921  12.650   1.282  0.1585 -0.1292  0.0666
28164W        W43633   6.270  14.769  11.113 -0.0359 -0.1708  0.2111
28165W        W43634  16.349   7.507   4.862  0.0680 -0.0446  0.0285
28166W        W43635  14.834   9.137   4.708  0.2719 -0.0436  0.1097
28167W        W43636   1.654   7.028  11.473  0.1080 -0.1354  0.1913
28168W        W43637   5.936  17.342   5.467 -0.0379  0.1350  0.2908
28169W        W43638   2.988  10.452   0.496 -0.0962  0.1005 -0.1730
28170W        W43639  16.494  17.740   4.036 -0.2911  0.0114 -0.1272
28171W        W43640   2.114   3.955   1.421 -0.0529  0.0927  0.3328
28172W        W43641   3.256   1.939   5.814  0.2329  0.3054  0.0220
28173W        W43642   0.665   6.925   3.557 -0.0400  0.1247 -0.3334
28174W        W43643  17.444   9.751   3.733  0.1810 -0.3515  0.3030
28175W        W43644   6.022   4.051   3.535  0.2702  0.0010 -0.2851
28176W        W43645   9.792   9.563  11.867 -0.1030 -0.1500 -0.0493
28177W        W43646  17.579  15.720  12.092 -0.1384  0.0828 -0.0231
28178W        W43647  12.320   0.495   0.365  0.0709  0.2630  0.0706
28179W        W43648   9.322  10.785  11.872  0.0253  0.0176  0.1682
28180W        W43649   6.129   2.839  14.766 -0.2063  0.1791  0.2383
28181W        W43650  10.470   7.100   3.543  0.4285 -0.0269 -0.0229
28182W        W43651   4.884  16.605  11.776  0.2395 -0.2606 -0.0773
28183W        W43652   6.704   1.616   2.505 -0.0809 -0.1039 -0.3586
28184W        W43653  13.394   0.712   2.038  0.0447  0.1252 -0.2698
28185W        W43654   8.567  10.448   3.008  0.1961 -0.1563 -0.2097
28186W        W43655  11.678   0.274   1.896 -0.1226 -0.1805 -0.1028
28187W        W43656  14.418   8.219   0.964 -0.2344 -0.3137 -0.2161
28188W        W43657   3.277   1.263  14.221 -0.1567  0.2660 -0.0597
28189W        W43658   1.872   8.629   3.596  0.0914 -0.0371 -0.1260
28190W        W43659   0.470   1.209  16.191 -0.0413 -0.0337  0.1427
28191W        W43660   4.138   1.546   4.306 -0.1254  0.3787  0.1052
28192W        W43661   2.966   8.181  12.110 -0.2321 -0.0311 -0.2361
28193W        W43662   7.766   4.885   0.650 -0.1099 -0.3325  0.3470
28194W        W43663  14.761  10.113   2.940 -0.3407  0.0733  0.4039
28195W        W43664   3.123  14.675  15.581  0.0684  0.1795 -0.4198
28196W        W43665   0.444   4.690   1.569 -0.2611 -0.1378  0.4330
28197W        W43666  13.293   6.318   2.023 -0.0073 -0.0559  0.0553
28198W        W43667   2.954   3.704   0.958  0.0894 -0.1860 -0.2663
28199W        W43668   0.151  13.893   4.482  0.0444 -0.0078  0.3165
28200W        W43669   0.298  12.673   3.712 -0.0140 -0.2390  0.3158
28201W        W43670  12.157   0.532   2.879 -0.3662 -0.2456 -0.0569
28202W        W43671   4.085   0.463   0.934  0.1761 -0.1933 -0.1313
28203W        W43672  12.984   1.076   0.662 -0.0701 -0.0370  0.1111
28204W        W43673   7.610  10.233  11.722  0.0831  0.0321  0.1898
28205W        W43674   4.050  17.173   1.171 -0.1995 -0.0093 -0.0017
28206W        W43675   9.777   5.846   5.529  0.0956 -0.3706 -0.3831
28207W        W43676  17.770   6.063  10.970 -0.2323  0.1547 -0.2866
28208W        W43677  14.907   2.418   4.129 -0.3505 -0.2260 -0.1266
28209W        W43678   9.429   7.378  15.382  0.3270 -0.0333  0.0175
28210W        W43679  11.526   6.112  13.816  0.0463 -0.1304  0.2119
28211W        W43680   3.379  12.354  15.524  0.1480 -0.3855  0.2391
28212W        W43681  13.356   3.921   4.121 -0.0840  0.2000  0.1646
28213W        W43682  10.346   9.741  11.723  0.0268  0.1224 -0.0976
28214W        W43683   2.361  17.881   4.098 -0.2659 -0.1760 -0.0303
28215W        W43684  13.873  14.145   0.180 -0.2278  0.0298  0.0299
28216W        W43685   2.243   6.957  16.199 -0.0787 -0.5178 -0.0985
28217W        W43686   5.785   6.654  11.403  0.0838 -0.0015 -0.1301
28218W        W43687  16.779  16.237  12.382 -0.1026 -0.0963 -0.0379
28219W        W43688  15.895   0.786   4.354  0.0516  0.2063  0.0474
28220W        W43689   6.034   6.026   3.307  0.0507  0.1342  0.0848
28221W        W43690   6.860   7.169   1.936  0.0910 -0.1943  0.4289
28222W        W43691  11.312  12.525   1.507  0.0139 -0.0204 -0.0624
28223W        W43692  10.594  13.218   3.513  0.1227  0.3136  0.2692
28224W        W43693   4.278  10.410  13.448  0.0107 -0.3138 -0.2173
28225W        W43694  10.264   0.005  11.250  0.1213 -0.0726  0.1261
28226W        W43695   0.679   1.423   2.326 -0.1164  0.1599  0.0907
28227W        W43696  11.796  10.126  14.708 -0.1681 -0.0555 -0.1092
28228W        W43697   6.337   3.534  11.214  0.1297  0.2081  0.1169
28229W        W43698   6.861   0.741  14.295 -0.3821  0.0590 -0.0440
28230W        W43699   0.833  15.362   0.317 -0.3586 -0.1920 -0.0918
28231W        W43700   6.700   3.738   1.849  0.2846  0.0442  0.1492
28232W        W43701   6.974   0.729   4.015 -0.1342  0.3829  0.0016
28233W        W43702  15.062   5.749   5.745 -0.0154 -0.0919 -0.1101
28234W        W43703   7.211  12.472  11.039  0.0909 -0.0073  0.1275
28235W        W43704  17.244  13.136  12.165 -0.0619 -0.2249 -0.1862
28236W        W43705  12.125  13.028  13.436  0.0207 -0.1905 -0.1417
28237W        W43706   6.366   4.026  10.809 -0.1792 -0.1197 -0.2097
28238W        W43707  10.176  10.463  13.497 -0.0565  0.2682 -0.0311
28239W        W43708  10.110   2.177   4.230 -0.0493 -0.2258  0.0594
28240W        W43709  13.640   9.504  14.325 -0.1198  0.2970  0.0003
28241W        W43710  13.929  12.075   3.259 -0.0811 -0.1073 -0.0309
28242W        W43711   9.803  10.597   5.421 -0.1393  0.0989 -0.0534
28243W        W43712   6.581  16.798  13.241 -0.0846  0.1591  0.1724
28244W        W43713   3.536  17.716  14.000  0.1219 -0.0172  0.2869
28245W        W43714  10.116  10.147   3.866  0.0950  0.0701  0.1873
28246W        W43715  11.243  12.177   0.320 -0.2068 -0.3498 -0.0724
28247W        W43716   4.610   3.121   3.315 -0.2811  0.0332  0.2346
28248W        W43717   8.230  11.152  11.231  0.2745 -0.1786  0.1634
28249W        W43718  17.887  17.810  13.998  0.2550 -0.0341 -0.1153
28250W        W43719  15.531  15.467  14.659 -0.1123  0.2702 -0.1144
28251W        W43720   5.695  14.567   3.913 -0.0077 -0.2018 -0.1319
28252W        W43721  14.109   1.475  11.039 -0.1743 -0.2241 -0.2043
28253W        W43722  13.659  12.617  13.415  0.1027 -0.1150 -0.2433
28254W        W43723   3.230   4.385  11.193  0.0415  0.1386 -0.2126
28255W        W43724  13.463  16.175   4.181 -0.2083 -0.1811  0.2114
28256W        W43725  10.926  14.499   1.852  0.0507 -0.3490 -0.0851
28257W        W43726  15.207   0.389   1.601  0.1716 -0.0110 -0.2533
28258W        W43727  10.450  12.017  15.333 -0.0773  0.0706  0.1710
28259W        W43728   9.884   0.042   0.720 -0.3113 -0.2392 -0.1339
28260W        W43729  12.404  10.054  12.525  0.0354 -0.2261  0.1438
28261W        W43730   3.963  10.946   2.050  0.1480 -0.0216 -0.1013
28262W        W43731   3.799  15.083   2.771 -0.3064 -0.0275  0.3210
28263W        W43732  13.897  11.908   2.559  0.0969 -0.3095 -0.2207
28264W        W43733  16.341  10.479  15.356  0.1787 -0.0142  0.1389
28265W        W43734   4.879   5.388   5.309 -0.0237 -0.3673 -0.0612
28266W        W43735  11.639  10.306   5.659  0.1138 -0.0668  0.1004
28267W        W43736   9.450   7.650   4.937 -0.1093  0.1992  0.2520
28268W        W43737   5.888   8.796   3.406  0.1850 -0.0756 -0.1713
28269W        W43738  12.756  18.098  14.169  0.0854 -0.0689  0.0578
28270W        W43739  10.618   4.758   1.282 -0.3043 -0.1925 -0.0254
28271W        W43740   9.235  14.399   3.150  0.0560 -0.0868 -0.2357
28272W        W43741  11.443  10.786   5.877  0.0112 -0.1054  0.0474
28273W        W43742   2.114   3.095  13.829  0.0595 -0.1592  0.2824
28274W        W43743  11.367   1.040  14.317 -0.0907  0.1597  0.2382
28275W        W43744   0.427   7.384  14.699 -0.3116 -0.0940  0.0169
28276W        W43745  16.951   9.658   1.474  0.1260  0.2912 -0.0679
28277W        W43746  11.402   9.495   1.503 -0.0688 -0.0827  0.0579
28278W        W43747  17.569   4.320   4.531  0.0664 -0.0707  0.1089
28279W        W43748   6.625   9.672   1.732  0.1645  0.1343  0.0093
28280W        W43749  15.150  15.302  11.576 -0.2118  0.0261  0.0833
28281W        W43750   3.453   0.745   4.979  0.0821 -0.1310  0.2083
28282W        W43751   3.719  13.502   0.929 -0.1892  0.0181 -0.0600
28283W        W43752   5.525   7.147   1.562  0.1990 -0.3069  0.1285
28284W        W43753  15.091   4.759   4.342 -0.1943 -0.1243 -0.3631
28285W        W43754   3.873   4.395  13.312  0.0056  0.2361  0.3478
28286W        W43755   8.605   2.762   3.941  0.0895  0.0083 -0.0898
28287W        W43756  14.497  15.502   5.396  0.2389  0.2751 -0.2473
28288W        W43757   4.911   8.455   0.795  0.1232 -0.1746  0.0194
28289W        W43758  10.951  12.342  11.945  0.2943 -0.1022 -0.0871
28290W        W43759   4.615  11.708   2.789  0.2281 -0.0874  0.0278
28291W        W43760   3.596   6.223   1.470 -0.0365  0.1248 -0.1878
28292W        W43761  16.219   0.615  15.848  0.1333 -0.0775 -0.0637
28293W        W43762  14.166  10.388  15.487  0.4058  0.2649 -0.3385
28294W        W43763  17.910  13.971   5.417 -0.1788 -0.2261  0.2094
28295W        W43764  16.492  15.300   0.571 -0.0916 -0.0996  0.1751
28296W        W43765  10.826   3.134  15.903  0.4353  0.0999 -0.0273
28297W        W43766   7.164   9.624   3.274  0.0835 -0.2314 -0.0954
28298W        W43767  14.166  11.523   4.739  0.1300  0.0174 -0.0400
28299W        W43768  12.080  13.950  13.955 -0.0446  0.0515  0.1020
28300W        W43769  17.444   4.171   3.641 -0.2055 -0.1432  0.3107
28301W        W43770   8.715  11.197  11.499 -0.2450  0.0347  0.1228
28302W        W43771  11.331   5.368   3.844 -0.4985  0.2310  0.1692
28303W        W43772   3.339   8.384   0.620  0.0049 -0.1178  0.0284
28304W        W43773   3.939  14.832   0.384 -0.0914  0.1800  0.1474
28305W        W43774  17.698   4.559  12.112 -0.1584  0.1184 -0.0707
28306W        W43775   5.163  11.573  15.408 -0.3196 -0.0495 -0.1214
28307W        W43776  14.355  17.028  15.502  0.3800 -0.1331 -0.1161
28308W        W43777  15.083   8.547   4.775 -0.0196  0.1302 -0.1006
28309W        W43778   0.925   7.962  11.247 -0.0215 -0.0250  0.0743
28310W        W43779   7.567   3.075   0.341 -0.0618 -0.2011 -0.0584
28311W        W43780  13.278  10.920  14.949  0.1018  0.2875  0.0803
28312W        W43781  12.021  17.648   5.011 -0.0907  0.0124  0.1735
28313W        W43782   9.374  16.008  15.379 -0.0858  0.1134 -0.0891
28314W        W43783   6.542  10.898  10.631 -0.0815  0.1027  0.0751
28315W        W43784   3.520   1.577   6.047 -0.1810  0.2349  0.3532
28316W        W43785   9.949   6.374   3.882  0.1938 -0.1399 -0.0563
28317W        W43786   9.783  10.047   2.907  0.0164  0.0441  0.0657
28318W        W43787  15.406   0.425  13.933 -0.3909 -0.2963  0.2623
28319W        W43788   3.503   6.434   0.989 -0.5386  0.1088 -0.0186
28320W        W43789  14.893   4.082  15.516 -0.2190 -0.0451 -0.1289
28321W        W43790  13.381   5.694  11.557  0.0681  0.1422 -0.1098
28322W        W43791  15.572  11.401   5.219  0.0220 -0.1252  0.0665
28323W        W43792  14.969   1.094   4.395 -0.0044 -0.0305  0.0315
28324W        W43793   3.280   0.819   0.510 -0.2021 -0.1431  0.3326
28325W        W43794   3.202  17.735   3.420  0.0490  0.3239  0.0678
28326W        W43795  12.565   5.742   4.185  0.1529 -0.3937  0.2852
28327W        W43796  13.617   5.263   5.852 -0.1835 -0.2275 -0.0428
28328W        W43797   3.748   6.897   0.894  0.2120  0.0331 -0.0764
28329W        W43798   4.309   9.929  12.458  0.3039 -0.1844  0.1804
28330W        W43799   4.014   4.239   3.079 -0.0415  0.1249  0.1600
28331W        W43800  13.578   7.937   5.193 -0.1189  0.2863 -0.2788
28332W        W43801  16.166  16.394   4.184 -0.3826 -0.2929 -0.0961
28333W        W43802  16.822  15.592   4.046 -0.0918 -0.2308  0.5162
28334W        W43803  13.825   1.236   4.660 -0.0104  0.1589 -0.0837
28335W        W43804   3.823   2.708  13.741 -0.0594  0.1211  0.1629
28336W        W43805  15.368  17.695   4.078 -0.2778  0.0963  0.3567
28337W        W43806  13.624  17.631  11.606  0.1815 -0.1671  0.1355
28338W        W43807  17.756  13.307   1.418  0.3992 -0.0594  0.1871
28339W        W43808  15.803  12.286  13.585 -0.0105  0.0172 -0.2441
28340W        W43809  11.982  15.887   4.032  0.1187  0.0149 -0.2582
28341W        W43810   8.587  15.685   4.649  0.0188  0.2576 -0.1262
28342W        W43811   5.970   1.751  14.433  0.2401  0.2548 -0.0199
28343W        W43812  17.389  11.558   5.261 -0.2853  0.0214  0.0838
28344W        W43813   9.707   8.277  14.606  0.0587 -0.3435 -0.0148
28345W        W43814  10.422  15.097  14.181 -0.0523 -0.1093  0.0472
28346W        W43815   5.116   6.425   1.208 -0.0859 -0.3627 -0.1497
28347W        W43816   3.541  13.118  10.882  0.1311 -0.4855  0.0853
28348W        W43817  14.316  10.756   4.479 -0.0248  0.1617  0.1206
28349W        W43818   5.504   0.039  15.349  0.1191 -0.0517 -0.0920
28350W        W43819  16.407   4.436  13.238 -0.0464  0.1340 -0.2959
28351W        W43820  16.009   7.507  14.654  0.0589 -0.2636 -0.0866
28352W        W43821  13.790   0.436  13.430  0.3411  0.0198  0.1797
28353W        W43822  10.925   5.170   4.083  0.1852 -0.1494  0.1387
28354W        W43823  15.281  16.277  14.511 -0.1653 -0.0893 -0.1631
28355W        W43824   2.031   5.969  14.616  0.0575 -0.2341 -0.1457
28356W        W43825  12.582   1.769   3.037 -0.0286 -0.1132 -0.1003
28357W        W43826  17.533   6.825   5.069  0.3337  0.2340 -0.0574
28358W        W43827   3.653   5.052   4.526  0.0203 -0.0431  0.1233
28359W        W43828  16.940  16.637  13.777 -0.1969  0.2828 -0.1068
28360W        W43829  14.265   9.358   4.051  0.1530 -0.3129  0.0953
28361W        W43830  16.176  17.666   3.633 -0.2865  0.0128  0.0844
28362W        W43831   4.661  13.127   3.192 -0.2903  0.0469  0.0370
28363W        W43832  13.286   4.845  11.905 -0.2381 -0.1954  0.0565
28364W        W43833  14.613   1.506   2.638  0.3453  0.1808 -0.1911
28365W        W43834  16.416   4.252  12.312  0.0832 -0.1960  0.1913
28366W        W43835  16.398   0.354   4.387  0.0206  0.0756  0.3772
28367W        W43836   0.548  16.196  11.151 -0.1880  0.2282  0.3273
28368W        W43837  12.577   2.865   0.832  0.1371  0.1072 -0.2174
28369W        W43838   6.761   2.309   2.827 -0.1080 -0.1608 -0.0934
28370W        W43839   4.645   7.382  11.382 -0.0396 -0.3403 -0.0215
28371W        W43840  14.304   6.838  12.567  0.0085  0.1042  0.1219
28372W        W43841   7.731   2.952  16.131 -0.1586 -0.5008 -0.2073
28373W        W43842   8.593   1.350  15.480  0.3998 -0.1700 -0.2095
28374W        W43843   4.712  17.496  15.628  0.1732  0.0775 -0.0225
28375W        W43844   2.039   1.301  11.906 -0.1594  0.0194 -0.2174
28376W        W43845   0.599  14.707   2.689  0.0616  0.3097  0.0270
28377W        W43846   3.250   6.076  15.939 -0.1168  0.1154  0.0685
28378W        W43847  17.329   0.772   0.248 -0.0663  0.2317 -0.0756
28379W        W43848  10.469   2.807  16.225  0.1054  0.0238  0.3621
28380W        W43849   2.743   1.632   0.884 -0.2598 -0.1596  0.0007
28381W        W43850  11.363  16.291   2.952  0.0987 -0.1576 -0.1420
28382W        W43851  17.720   5.275  14.695 -0.4410 -0.0387 -0.1777
28383W        W43852   0.332  13.822  12.040  0.3344  0.2735 -0.2747
28384W        W43853   7.959   8.713   1.206 -0.2020  0.0012 -0.0705
28385W        W43854   1.356   0.529   2.037 -0.0484 -0.2298 -0.0111
28386W        W43855   6.969  14.390  12.401  0.0890 -0.2819 -0.0579
28387W        W43856  14.241   0.555   4.796 -0.2929  0.0241  0.0874
28388W        W43857  16.551   3.479   1.290 -0.0399 -0.0445  0.1941
28389W        W43858  15.819   6.553   3.391 -0.1137  0.1820  0.1260
28390W        W43859   7.439  17.429   0.219  0.3085  0.1754  0.2345
28391W        W43860  10.204  13.589  14.451  0.0751 -0.0431 -0.1343
28392W        W43861   2.167  14.032  11.600 -0.0259  0.0489 -0.0914
28393W        W43862  13.309   1.188  13.093 -0.1826 -0.2534  0.2455
28394W        W43863  17.696   8.173  15.665  0.1436  0.0181  0.2076
28395W        W43864   4.038  11.029  15.584  0.0789 -0.0945 -0.3358
28396W        W43865  14.115  13.506  15.827 -0.0436  0.0922 -0.1222
28397W        W43866   6.459  16.985   2.110  0.0776 -0.0562  0.3492
28398W        W43867   9.238  16.740   1.332 -0.0614 -0.5601  0.1221
28399W        W43868   2.283   5.553   2.431 -0.1188 -0.0118 -0.1112
28400W        W43869   0.437  17.018  11.104  0.0970 -0.1105 -0.0001
28401W        W43870   8.413   5.807  14.332 -0.0030  0.3532 -0.0290
28402W        W43871   1.080  10.572  15.083 -0.0306 -0.1499 -0.3216
28403W        W43872   9.369   0.677  15.048 -0.0951  0.1884  0.1790
28404W        W43873   0.671   0.068  12.915 -0.1862  0.2048  0.2600
28405W        W43874   1.404   8.892   3.494 -0.0149 -0.1764 -0.3138
28406W        W43875  16.306   4.517   5.647  0.1688  0.2215 -0.3517
28407W        W43876  13.359   8.610  12.216 -0.2351 -0.1379  0.1363
28408W        W43877  11.830   1.092   5.838 -0.0889  0.0838 -0.0948
28409W        W43878   4.484   5.082   2.033  0.1054 -0.1838  0.1219
28410W        W43879  10.566   7.210   3.081  0.0459 -0.1734  0.2100
28411W        W43880   2.490   0.749  12.886 -0.0888 -0.0564 -0.0074
28412W        W43881   4.543  17.197   0.995 -0.1620 -0.1136  0.1520
28413W        W43882   5.790  14.990   2.243  0.2409  0.1733  0.0565
28414W        W43883   3.258  13.521   2.853 -0.2052  0.1713  0.0502
28415W        W43884  11.069   8.223  15.990 -0.3307 -0.0085  0.1812
28416W        W43885   2.095   9.047   3.446 -0.0036 -0.1857  0.0266
28417W        W43886  14.450   2.986  14.856 -0.1079  0.1634 -0.1650
28418W        W43887  13.494   7.042  13.305  0.0448  0.0529  0.1373
28419W        W43888  17.658  15.603   4.710 -0.0583 -0.1404  0.2550
28420W        W43889   2.901   0.319   1.057  0.0834  0.4925 -0.1709
28421W        W43890   4.800  11.704  11.854  0.1083 -0.0236  0.1714
28422W        W43891   1.342   1.443   3.088  0.2544 -0.1928 -0.0919
28423W        W43892  16.877  14.660   2.928 -0.0964 -0.1796  0.2767
28424W        W43893   8.505   8.329  15.179 -0.1140 -0.0445 -0.3239
28425W        W43894  15.325   5.352   1.493  0.0408 -0.0640  0.0125
28426W        W43895  11.084  16.403  15.108 -0.2158 -0.0485 -0.2116
28427W        W43896  13.589   7.422  10.707  0.1601  0.1191 -0.2586
28428W        W43897   0.332   3.943   4.585 -0.0645 -0.3479  0.0309
28429W        W43898  13.585   2.035   1.378 -0.1973  0.2944 -0.2371
28430W        W43899  12.184   1.809  13.616  0.1826  0.0071 -0.1141
28431W        W43900   1.817  10.902   3.999  0.0894  0.0005 -0.0582
28432W        W43901  11.188   4.385  11.938  0.1786 -0.1221 -0.3505
28433W        W43902   3.976   0.159   3.292 -0.0778 -0.1356  0.0570
28434W        W43903   5.565  11.406  11.809 -0.2289 -0.1796 -0.2957
28435W        W43904   1.046   6.930   1.127 -0.1657 -0.2038 -0.0425
28436W        W43905   2.543  13.803  11.798 -0.1369  0.0193  0.1024
28437W        W43906  13.679  14.189   2.682 -0.1986 -0.0851  0.1187
28438W        W43907   2.436   4.223   2.160 -0.0075  0.1624 -0.1460
28439W        W43908  12.839   5.555  13.821  0.0642  0.0222 -0.1729
28440W        W43909   3.189  15.189  15.882 -0.1184  0.1378  0.2405
28441W        W43910  13.574   3.362   1.476 -0.0413 -0.1405 -0.0245
28442W        W43911   3.162  10.826   0.974 -0.1263  0.3733 -0.2677
28443W        W43912   3.784   2.836   1.567 -0.0541  0.0367  0.2190
28444W        W43913   0.888   8.414   4.523 -0.1390  0.0783 -0.0587
28445W        W43914   0.605   5.196  13.751 -0.1160 -0.3714 -0.3481
28446W        W43915   6.597  11.665   5.019  0.0865 -0.0162 -0.1502
28447W        W43916  11.492  14.135   1.139  0.4339 -0.1764 -0.1300
28448W        W43917   3.890   6.626   1.319  0.0036 -0.0164  0.0724
28449W        W43918   2.163  15.751   2.180 -0.2324  0.2460  0.2847
28450W        W43919   1.999   3.033   1.520  0.0812 -0.3806 -0.0314
28451W        W43920  15.610   3.014   2.613 -0.1752 -0.0330 -0.2182
28452W        W43921   8.348  15.822  12.904  0.2562  0.0020 -0.0159
28453W        W43922   9.872  18.037  15.449 -0.0631  0.0070 -0.1536
28454W        W43923   7.120   0.397   4.412  0.3101 -0.0659  0.1585
28455W        W43924   7.317  17.905  13.464  0.0460 -0.1780 -0.0382
28456W        W43925  18.039  12.565   2.998 -0.2015 -0.1970 -0.2996
28457W        W43926   6.595   9.808  14.878 -0.3050  0.1403 -0.1036
28458W        W43927   6.394  16.878   5.157 -0.0967 -0.0172 -0.0670
28459W        W43928  13.292  14.050   3.580  0.0705 -0.0355  0.1461
28460W        W43929   7.251   1.949   5.619 -0.1120  0.1658 -0.1545
28461W        W43930  16.563   1.401   2.921  0.1400 -0.2489  0.0875
28462W        W43931   5.444   2.699   3.513 -0.2688 -0.0583 -0.2291
28463W        W43932  13.996   1.968  15.387  0.0462 -0.0178 -0.1202
28464W        W43933   0.229   0.706   5.823  0.0666  0.1029  0.1104
28465W        W43934  15.699   0.577  16.023  0.2014 -0.3043  0.0487
28466W        W43935  12.147  16.551   3.284  0.2290  0.1711  0.1956
28467W        W43936  15.769   4.621   4.940 -0.0017 -0.0749 -0.1896
28468W        W43937   4.559   3.714   9.909 -0.2105 -0.2060  0.1584
28469W        W43938   5.801  14.550   9.964  0.4236 -0.3035 -0.4039
28470W        W43939   3.549   7.508  10.134  0.0400  0.0657 -0.1021
28471W        W43940   3.014   0.575   4.357  0.1891 -0.0555  0.0539
28472W        W43941   7.639   2.487   3.981 -0.1441  0.1238  0.1134
28473W        W43942  13.336  14.417  13.526  0.1906 -0.0009 -0.2404
28474W        W43943  15.326  11.659   2.571 -0.2063  0.2768 -0.0641
28475W        W43944   2.444   1.562  13.148  0.0419 -0.3134  0.0209
28476W        W43945  12.059   0.490  13.840  0.0079 -0.1159  0.1566
28477W        W43946  17.188   3.071   1.730  0.2114  0.1204 -0.0720
28478W        W43947  12.874  13.460   1.545 -0.2284  0.1544 -0.1518
28479W        W43948   7.242   7.758   4.931  0.1526  0.1583 -0.1118
28480W        W43949  17.872   8.657  12.874 -0.0247  0.1118  0.0384
28481W        W43950  16.831   5.824  13.010  0.0982  0.3090  0.2141
28482W        W43951  16.123  11.613  16.301 -0.1926  0.2750 -0.0911
28483W        W43952   5.823   9.863  15.223 -0.2724  0.1261 -0.0952
28484W        W43953   7.488   7.026   1.543 -0.0212 -0.3288  0.1006
28485W        W43954  11.759   8.154  15.614  0.3010  0.1139  0.3316
28486W        W43955  13.928  15.562   0.050  0.1960  0.0725 -0.0594
28487W        W43956  10.739   3.001   5.964  0.1276  0.1927  0.0109
28488W        W43957  14.134   9.975   2.894 -0.0883  0.0276 -0.0070
28489W        W43958   8.399   2.979  11.346 -0.1953 -0.0569 -0.2153
28490W        W43959   2.006   5.268   5.037 -0.1952 -0.2693 -0.0545
28491W        W43960   1.058   8.833  14.218 -0.2560  0.0642  0.2605
28492W        W43961  16.629   8.544  11.756  0.0076 -0.0516  0.0980
28493W        W43962  10.694  11.034  14.628 -0.0249  0.1151 -0.0762
28494W        W43963  12.669   5.621  12.196  0.3915 -0.1877 -0.2281
28495W        W43964   5.640  17.290   0.541  0.1701  0.5145  0.0819
28496W        W43965   4.093   4.204  11.846 -0.1553  0.0682  0.2574
28497W        W43966  17.008  10.675   4.041  0.3153 -0.0050  0.3703
28498W        W43967  17.211   6.566   0.427  0.1751  0.1120  0.1294
28499W        W43968  16.561   7.609   0.186 -0.0258 -0.2695 -0.0949
28500W        W43969   4.445   5.487   0.148 -0.4136 -0.0712 -0.1029
28501W        W43970   7.272  15.221   2.232  0.1006 -0.0611 -0.0797
28502W        W43971  11.501   7.909  15.945 -0.0385  0.2115  0.3619
28503W        W43972  16.965  12.686   3.376  0.2596 -0.0045  0.1808
28504W        W43973   6.119   3.645   2.493  0.2718  0.0416  0.0687
28505W        W43974   3.187   0.932  16.125 -0.3849  0.2377  0.2140
28506W        W43975  14.987  17.894  13.769  0.0199 -0.0049  0.0499
28507W        W43976   2.586   5.205   2.584 -0.0689 -0.1318  0.1694
28508W        W43977  17.016  12.650  12.021  0.0087  0.0212 -0.0197
28509W        W43978  14.469   1.491   0.141  0.0649  0.0001 -0.0504
28510W        W43979   8.698   1.254   2.679  0.0089  0.0236  0.3753
28511W        W43980  10.931  12.451   5.306  0.2279 -0.0656  0.0258
28512W        W43981   4.830  13.721   2.143  0.1843  0.0415  0.0105
28513W        W43982  12.960  11.051  13.967 -0.1414  0.0362 -0.1830
28514W        W43983  17.512  11.234  14.949 -0.2076  0.0364 -0.1877
28515W        W43984  17.740  13.836   4.566  0.0201 -0.1126 -0.0922
28516W        W43985   8.205  16.611   2.815  0.3102 -0.2648  0.0166
28517W        W43986  11.575   2.088   5.937  0.0213  0.0419 -0.3050
28518W        W43987   5.875  12.267   2.147 -0.0294  0.3922 -0.0682
28519W        W43988   2.727  15.380   5.796  0.0944  0.0891 -0.2623
28520W        W43989  16.210   8.830  11.920  0.1904  0.1612  0.0161
28521W        W43990   1.476   3.075   3.755  0.0338  0.1346  0.0579
28522W        W43991  17.443   6.818  15.616 -0.2099  0.2661  0.1499
28523W        W43992  15.613  12.127  15.586 -0.1202 -0.0501 -0.0335
28524W        W43993   5.938  17.973   3.748  0.1539  0.1024 -0.0580
28525W        W43994   3.708   4.357   3.484  0.2764 -0.0313  0.1453
28526W        W43995  10.087   7.230   2.906  0.1247 -0.0079  0.1408
28527W        W43996   3.070   3.319  13.477 -0.0946  0.0187 -0.2067
28528W        W43997   1.331  13.298   3.002  0.1230 -0.1009 -0.0585
28529W        W43998   6.184   7.310  13.679  0.2990 -0.0458 -0.4168
28530W        W43999   6.942   9.970  12.282  0.0303  0.1472  0.1601
28531W        W44000  11.513   9.001  13.783  0.2283  0.1203 -0.0772
28532W        W44001  16.722   4.139  14.582  0.1631 -0.0358  0.3645
28533W        W44002   7.553   7.835   2.481 -0.2155 -0.1521 -0.0385
28534W        W44003  13.517  16.858  15.184 -0.1422 -0.1401  0.0726
28535W        W44004   5.066   1.527   1.357 -0.0631 -0.0539 -0.1431
28536W        W44005  11.821  15.719   0.178 -0.0356 -0.4108  0.0310
28537W        W44006   9.703   8.650  15.780 -0.0765  0.0398 -0.0007
28538W        W44007   6.416   7.434   5.001 -0.0712  0.0457  0.0428
28539W        W44008   7.223   6.551  11.458  0.2242 -0.2151 -0.0151
28540W        W44009  14.013   5.980   3.306  0.0237  0.3304  0.1307
28541W        W44010   4.689   3.447   0.479  0.1798  0.0851  0.1558
28542W        W44011   1.654   2.223  13.688 -0.1346  0.0302  0.0328
28543W        W44012  16.500   0.169   0.961  0.0889 -0.0660 -0.2830
28544W        W44013  17.307   9.747  10.337 -0.0151 -0.2709  0.1107
28545W        W44014  14.993  17.792  12.582  0.1006 -0.2344  0.1475
28546W        W44015  15.050   1.529   0.155 -0.0367 -0.1731  0.0512
28547W        W44016  13.308   2.968  11.583 -0.0547 -0.1120 -0.1102
28548W        W44017   1.541   7.968   0.218  0.1568  0.1938 -0.1191
28549W        W44018  11.314   7.828  11.858 -0.1442  0.2469 -0.1113
28550W        W44019   6.522   3.621   2.802 -0.3971  0.0549  0.2428
28551W        W44020   0.068   9.827  12.212  0.1780  0.0986 -0.1747
28552W        W44021  10.325   7.173  13.271 -0.1304 -0.2161 -0.1427
28553W        W44022  10.097  15.141   4.989 -0.0441  0.0070  0.0500
28554W        W44023   8.955  16.060   2.385  0.0648 -0.1884 -0.1790
28555W        W44024  12.879   9.364  16.080  0.0842 -0.1882 -0.2524
28556W        W44025   1.466  10.458  13.216  0.1808  0.0060  0.4666
28557W        W44026   0.873   4.421  12.060  0.3145  0.0287 -0.0500
28558W        W44027  12.759  12.303   0.208  0.1400 -0.2274 -0.3398
28559W        W44028  17.889   5.367   0.892  0.0739 -0.1234 -0.2917
28560W        W44029  15.626  12.104  14.032 -0.0519  0.0411  0.0298
28561W        W44030   2.589   4.588  15.884 -0.1173 -0.1018  0.4360
28562W        W44031  14.027   5.521   0.340  0.3025  0.1387  0.2280
28563W        W44032   4.896  17.628  10.931  0.0039  0.1503 -0.0275
28564W        W44033   3.755   1.130  14.415  0.0010  0.0850  0.0765
28565W        W44034   1.983   1.959  10.612 -0.0185 -0.0684  0.0631
28566W        W44035   9.506  10.577  10.958 -0.1628 -0.1173 -0.2492
28567W        W44036  11.431   8.831  14.999 -0.1824  0.0333 -0.1391
28568W        W44037   0.547  13.417  14.085  0.0587 -0.0363 -0.0713
28569W        W44038  13.036   3.933  11.824 -0.0150  0.0773 -0.3607
28570W        W44039   9.500   0.254   2.301 -0.2066 -0.0438 -0.0608
28571W        W44040   9.120   3.351   5.282 -0.0532  0.0400 -0.0179
28572W        W44041  11.667  15.197   3.490  0.1157  0.3419 -0.1476
28573W        W44042  11.647  16.085   5.088 -0.0948 -0.3085  0.0275
28574W        W44043   3.242   5.046   9.810  0.0731 -0.2775  0.0751
28575W        W44044   6.799   8.346  14.935  0.3728 -0.1620  0.3961
28576W        W44045   1.375  15.617  10.922  0.1307 -0.1170  0.3088
28577W        W44046  16.262  17.528  14.817 -0.1064 -0.0686  0.0679
28578W        W44047   0.199   4.018   0.068  0.1337 -0.1348  0.0921
28579W        W44048   1.260  12.802   5.634  0.0111 -0.1677  0.1449
28580W        W44049   1.534   5.040   0.928  0.3932  0.0680 -0.2506
28581W        W44050   7.633   6.712  11.264 -0.0787 -0.1879 -0.1940
28582W        W44051   3.250  10.461   2.935  0.1288  0.1193 -0.1187
28583W        W44052  11.968   5.846   4.227  0.0595 -0.1107 -0.0844
28584W        W44053   8.881  17.460   0.716  0.0060 -0.0982  0.0948
28585W        W44054  14.412  13.475  13.038  0.2966 -0.0422  0.0820
28586W        W44055  16.885   2.103   0.908 -0.1074  0.2271  0.1838
28587W        W44056   4.244   3.636   0.745 -0.2372  0.2346  0.2430
28588W        W44057   6.610   9.998  15.677  0.1589  0.0459 -0.3952
28589W        W44058  11.129  10.528  13.455  0.0666  0.2999  0.1959
28590W        W44059   0.804   5.367   4.761 -0.1308  0.0244 -0.2279
28591W        W44060   0.722  16.727  10.206 -0.0438 -0.1104 -0.0561
28592W        W44061   0.977  12.724   0.331 -0.1728 -0.1137  0.0460
28593W        W44062   0.821   1.280  14.994  0.1501 -0.1340 -0.1388
28594W        W44063   6.357   6.215  16.109 -0.1884 -0.0003  0.0202
28595W        W44064  17.366  11.157   1.360 -0.0255 -0.0922  0.1039
28596W        W44065  11.042   5.790   2.523 -0.2639 -0.1395 -0.2769
28597W        W44066  14.977   6.471  15.318 -0.2170 -0.0523 -0.1674
28598W        W44067  17.660  10.127  14.340  0.0826 -0.0944 -0.0937
28599W        W44068   4.019  16.159   3.894 -0.0222 -0.2967  0.0725
28600W        W44069  13.494   9.964  11.126  0.3580  0.1755  0.2095
28601W        W44070  11.010  15.400   5.964 -0.2457 -0.0514  0.1979
28602W        W44071   2.539   0.366   0.482  0.0702 -0.1598  0.0799
28603W        W44072  17.139   4.065  14.859 -0.1902 -0.3696  0.3682
28604W        W44073  15.760  10.742   5.960 -0.0739  0.1565  0.3175
28605W        W44074  12.691  15.858   1.715  0.0236 -0.0116 -0.0406
28606W        W44075   0.936  17.689   1.939  0.1850 -0.0667 -0.3006
28607W        W44076  11.732  16.255   3.534  0.3508 -0.1308  0.2738
28608W        W44077   6.853  14.537  15.845  0.4087  0.0180 -0.0921
28609W        W44078  15.875   5.895   0.862  0.1986  0.2237  0.0440
28610W        W44079   7.600   3.995   0.171  0.2397  0.2139 -0.0668
28611W        W44080  13.237   8.911   3.251  0.2832 -0.1497 -0.2527
28612W        W44081  17.700  12.031  15.583  0.0076 -0.1459  0.1022
28613W        W44082  11.793   2.083   3.831  0.1016 -0.0398  0.1692
28614W        W44083   1.971  10.193  15.854  0.1236  0.1229 -0.2153
28615W        W44084   0.095  15.450  16.068 -0.0638  0.3470  0.0849
28616W        W44085   5.904   3.425  11.392 -0.3203 -0.0854  0.1316
28617W        W44086   6.666   9.750   2.277  0.0933 -0.1585 -0.2792
28618W        W44087   3.909   0.455  15.158  0.3160 -0.0158 -0.2247
28619W        W44088   7.912   2.990  15.522  0.0969 -0.0502  0.3220
28620W        W44089   5.516   1.637   3.408  0.0619 -0.1255  0.0065
28621W        W44090   7.510   3.301   2.346  0.1925  0.0267  0.1933
28622W        W44091  17.583   7.512   1.478 -0.0163 -0.1850 -0.2717
28623W        W44092   6.624  10.563   3.799 -0.0226 -0.2152 -0.0075
28624W        W44093  10.236  17.689   0.263 -0.0818  0.0443  0.0100
28625W        W44094   4.134   8.261   0.378  0.0938  0.2495 -0.0795
28626W        W44095   0.726   1.629  15.332 -0.1998 -0.2469  0.0619
28627W        W44096  12.259  12.146   0.514 -0.2030  0.1551 -0.2117
28628W        W44097   0.055  11.528   5.520 -0.3066 -0.1597 -0.0234
28629W        W44098  14.752  16.429   4.305 -0.0834  0.2185 -0.4269
28630W        W44099  11.467   3.786   2.577  0.0532 -0.2868 -0.0831
28631W        W44100   0.826   5.045  11.488  0.1762  0.0328 -0.0265
28632W        W44101  10.229   5.614  16.266  0.1027  0.1640 -0.0437
28633W        W44102   5.427  16.244   0.753  0.0136  0.0479  0.1508
28634W        W44103  13.926  11.728  13.580  0.2180  0.1516  0.1257
28635W        W44104  10.652   7.297  11.159 -0.2741  0.0847 -0.0378
28636W        W44105   4.342  12.334  11.278  0.0721  0.1889 -0.1804
28637W        W44106  17.966   4.355  16.189 -0.5426  0.0592  0.0600
28638W        W44107  17.668   1.871  14.227  0.1786 -0.1469 -0.0995
28639W        W44108   3.542   6.496  11.650  0.2921 -0.4339  0.0263
28640W        W44109   7.817   6.136   2.020  0.0374 -0.1103  0.0068
28641W        W44110  12.258   3.757  13.951 -0.0787  0.2231 -0.1408
28642W        W44111   2.766   7.461  11.535  0.0599 -0.0691  0.3283
28643W        W44112   3.884   0.632  14.617 -0.0973  0.1045  0.1454
28644W        W44113   5.298  12.077  11.001  0.1809  0.1088  0.0899
28645W        W44114  17.108   6.429   2.366  0.3393 -0.1254  0.0332
28646W        W44115   8.354  17.203  13.127 -0.1141  0.0497  0.0519
28647W        W44116   9.770  10.504  14.402  0.1644 -0.1849 -0.1386
28648W        W44117  15.030   9.808  13.027 -0.1323  0.1263  0.0786
28649W        W44118   8.495  15.532   4.159 -0.2763  0.0242  0.0881
28650W        W44119   1.199   5.221   0.522  0.0036 -0.4080  0.3189
28651W        W44120  10.192  12.475   0.884 -0.0434 -0.1517  0.2120
28652W        W44121   5.042   5.864  12.688 -0.3138  0.2363 -0.3419
28653W        W44122   4.165   6.966  15.158 -0.3132  0.1509  0.0639
28654W        W44123  16.085   9.991  14.548 -0.2459  0.0383 -0.0046
28655W        W44124   2.385  15.482  13.874  0.1088 -0.1549 -0.0857
28656W        W44125   8.435   3.868  11.368 -0.1012  0.1077 -0.0740
28657W        W44126   3.253  15.154   4.318 -0.0434  0.0031  0.1677
28658W        W44127  15.139   1.521   2.573  0.2870 -0.3773  0.0019
28659W        W44128  15.583   7.100  12.136  0.1423 -0.0699 -0.0868
28660W        W44129  10.736   2.304  15.428 -0.0112 -0.2105 -0.1115
28661W        W44130  12.100   4.419   1.451  0.1838 -0.0955  0.0710
28662W        W44131  10.619   5.359  15.022 -0.2351  0.2563 -0.2845
28663W        W44132   7.222  13.967   2.284  0.1953 -0.0472 -0.0905
28664W        W44133  17.570   6.993  13.703  0.1134  0.1681  0.0139
28665W        W44134  15.409  17.853  16.167  0.2397  0.1008  0.1365
28666W        W44135  14.810   6.054  16.164 -0.1399  0.0615 -0.0760
28667W        W44136  13.422   9.222   0.635 -0.1638  0.0249  0.1216
28668W        W44137  11.856   6.266   3.838 -0.2194  0.0082 -0.0555
28669W        W44138   8.672   7.680   1.799  0.1445  0.2823  0.2789
28670W        W44139   5.377  13.347  12.744 -0.2686 -0.0121  0.2017
28671W        W44140   3.807   0.030  12.280 -0.3213  0.0941 -0.0779
28672W        W44141   5.004   2.229   4.764  0.1147 -0.1431 -0.2215
28673W        W44142   8.562  17.076   5.888  0.0440  0.0376  0.1840
28674W        W44143   4.313  10.064  14.944  0.1123  0.2140  0.6098
28675W        W44144  16.682   1.699  14.929 -0.0659 -0.2979 -0.0946
28676W        W44145   9.603  15.664  14.933 -0.1194 -0.1356  0.1672
28677W        W44146   3.784   1.997   6.216 -0.0730  0.0415 -0.1341
28678W        W44147  13.281   1.903  13.752  0.1240  0.0563  0.1107
28679W        W44148   9.934  12.500  14.604 -0.0053  0.2648 -0.0569
28680W        W44149  11.989   4.264  12.072  0.4307  0.0508  0.0136
28681W        W44150   6.281   4.260  14.571  0.1429  0.3098 -0.0224
28682W        W44151   6.179  13.309  11.308  0.3206 -0.0242 -0.1923
28683W        W44152  14.780   2.847   0.507  0.1463 -0.1394 -0.4093
28684W        W44153   8.945  12.353  13.764  0.1302  0.3639 -0.0911
28685W        W44154   6.631  13.666   1.050  0.0582 -0.1692 -0.2315
28686W        W44155  10.944   5.257  12.278 -0.3010 -0.0210 -0.1449
28687W        W44156   6.803  10.585  14.418 -0.1642 -0.0318 -0.1849
28688W        W44157  14.187  17.632  13.574  0.1954  0.2170 -0.0719
28689W        W44158  17.406  15.656  13.137  0.1881 -0.0838 -0.0549
28690W        W44159   1.507  11.740   3.566 -0.4593 -0.0697 -0.1574
28691W        W44160  14.954  13.620   5.204 -0.1856  0.0074 -0.0626
28692W        W44161  13.571   0.055   4.288  0.3794  0.1660  0.2255
28693W        W44162  10.941   3.984  12.129 -0.0212 -0.2617  0.0668
28694W        W44163  15.945  12.519  15.766 -0.1717  0.3908 -0.2834
28695W        W44164   7.947   2.468  15.436  0.0678 -0.0868  0.3403
28696W        W44165  16.895   0.270  12.958 -0.2673  0.0606 -0.1086
28697W        W44166   1.731   5.537  14.687  0.1669  0.3210 -0.0643
28698W        W44167  10.330   3.686   1.238  0.1676  0.0664  0.1460
28699W        W44168   3.474  16.659  15.080  0.4700  0.0303 -0.1114
28700W        W44169   0.567   6.653   4.760 -0.1914 -0.1109  0.0508
28701W        W44170   6.008   6.829   2.617 -0.0546 -0.1911 -0.1652
28702W        W44171   8.120   0.739  11.234 -0.0877 -0.2339 -0.1219
28703W        W44172   0.593   9.242   3.953 -0.4609  0.2167 -0.0563
28704W        W44173   4.008  13.710  13.809 -0.0996 -0.0262  0.1441
28705W        W44174  16.909   1.572  13.914  0.0692  0.0271 -0.0066
28706W        W44175  13.843   9.063  15.102  0.0711  0.0709  0.0103
28707W        W44176  14.998   8.043  13.683 -0.2379  0.0943 -0.0788
28708W        W44177  10.927   3.118   2.463 -0.0577  0.2595  0.0992
28709W        W44178   7.689  12.367  14.550 -0.0142 -0.0572 -0.0770
28710W        W44179  17.730  17.447  11.362  0.0695 -0.1249 -0.1021
28711W        W44180   3.266   7.127   2.044  0.0708  0.2478 -0.0789
28712W        W44181   3.955   0.257   4.626  0.1588  0.0701  0.0176
28713W        W44182   6.773  10.258   2.457  0.0073 -0.2075  0.0422
28714W        W44183   8.615   8.251  12.220 -0.2279 -0.2288 -0.3466
28715W        W44184   5.951   0.891  12.284 -0.1776 -0.0612 -0.1512
28716W        W44185   6.350  16.047   2.487 -0.2760  0.2403  0.0731
28717W        W44186  11.987   9.337   3.551  0.2116  0.2598  0.2917
28718W        W44187  15.446   5.992  14.188 -0.0055 -0.0801  0.4072
28719W        W44188  10.695   6.115  11.857  0.1701 -0.0359  0.2479
28720W        W44189  15.227   6.471  15.859 -0.0782 -0.0476 -0.1917
28721W        W44190  17.179   2.078  11.377 -0.3539 -0.0857  0.1429
28722W        W44191   0.037  10.924  16.258 -0.3478 -0.3436 -0.0447
28723W        W44192  13.427  10.776   3.773 -0.0283  0.0336  0.0923
28724W        W44193   4.205   5.962   3.789 -0.3165  0.1294  0.2378
28725W        W44194   4.688   7.621   3.671  0.0463  0.1607 -0.0491
28726W        W44195   1.439   9.429  15.700 -0.0926 -0.0184 -0.1343
28727W        W44196  16.119  14.386   0.822 -0.1837  0.0049  0.0974
28728W        W44197   8.627   9.329   5.493  0.0057 -0.0015  0.1045
28729W        W44198   6.486   9.835  11.440  0.0869  0.0530  0.0095
28730W        W44199   9.797   5.051   2.112  0.2243  0.0794  0.4399
28731W        W44200  10.593   1.982   0.819  0.0784 -0.1822  0.3499
28732W        W44201   7.734   0.198   3.587 -0.2208  0.3444 -0.0502
28733W        W44202  17.563   9.484   6.103  0.0912 -0.0327 -0.3068
28734W        W44203  10.020  10.046  12.022  0.1304  0.0351 -0.1703
28735W        W44204  15.699  12.018   4.108  0.0466  0.1712 -0.1954
28736W        W44205   5.649   4.531  15.387 -0.1756 -0.2269 -0.2175
28737W        W44206   4.542  13.031  12.820 -0.0659 -0.2001 -0.1846
28738W        W44207   0.221  16.813   5.115  0.1364 -0.2323 -0.1194
28739W        W44208   1.868  13.652   1.998  0.1901 -0.2349  0.0947
28740W        W44209   3.907  12.275  13.809 -0.0067 -0.0424  0.0681
28741W        W44210  11.040  17.255   5.794  0.0833 -0.2190  0.0062
28742W        W44211  13.996   2.551  11.041 -0.1890 -0.1128 -0.1503
28743W        W44212   3.688   6.757   0.166  0.2470 -0.4573  0.0893
28744W        W44213  16.148  16.213  10.188  0.1253  0.0750  0.1632
28745W        W44214  11.287   6.835  15.055  0.1662  0.2178  0.1056
28746W        W44215   8.778   1.862   1.557 -0.3060 -0.0254  0.1574
28747W        W44216   5.848   6.797   1.752  0.2311 -0.1381 -0.1054
28748W        W44217  10.925  14.042  14.923 -0.3904  0.0869 -0.0674
28749W        W44218   7.343  13.992   3.480  0.3574  0.1589 -0.0331
28750W        W44219   4.893  16.286  16.306 -0.2384  0.2279 -0.0727
28751W        W44220   2.667   1.192   1.168 -0.0331 -0.1953  0.0378
28752W        W44221   3.410  12.485  13.522 -0.3675 -0.0212  0.0097
28753W        W44222   8.727   5.473  12.807 -0.1409  0.1665 -0.1585
28754W        W44223  12.111   6.508  12.351  0.1138 -0.1771 -0.3453
28755W        W44224   9.320  15.114  11.838  0.1141 -0.1100 -0.0029
28756W        W44225   5.913   2.453   3.478 -0.0200  0.0069 -0.0778
28757W        W44226   1.751   2.414  14.663  0.1275  0.2755 -0.0674
28758W        W44227   9.510  16.524  12.671  0.2807 -0.0514  0.1857
28759W        W44228   1.954  10.372  10.977  0.1864  0.1461  0.0229
28760W        W44229  11.643   1.981  14.379  0.0177  0.0656 -0.1630
28761W        W44230  13.812   1.523  15.460 -0.2440  0.3510  0.0767
28762W        W44231   2.394  12.139   0.342  0.2813  0.3723 -0.2255
28763W        W44232   5.007   1.178   4.711  0.1436 -0.1925  0.0023
28764W        W44233  14.125   2.605  13.352 -0.0325 -0.0334 -0.1781
28765W        W44234   4.775  17.052  14.710  0.0372  0.0369  0.1800
28766W        W44235  10.904   4.015  12.648  0.2207  0.1338 -0.0100
28767W        W44236  12.991   0.459   3.252  0.0331 -0.2157  0.1066
28768W        W44237  17.431  14.389  15.751  0.0294  0.1573  0.2177
28769W        W44238   2.930  16.108  11.643 -0.2371  0.0765  0.1059
28770W        W44239   8.012   0.136   0.797  0.4247  0.1260 -0.0392
28771W        W44240   2.907   0.136   3.627 -0.1326  0.2990 -0.1863
28772W        W44241   3.724   1.624   0.176 -0.2278  0.0349 -0.1022
28773W        W44242   1.797   7.113   3.368  0.0475  0.1022  0.1093
28774W        W44243   1.576  17.196   4.954 -0.0387 -0.0061 -0.0403
28775W        W44244  14.961  10.976   1.552  0.0072 -0.1481 -0.1086
28776W        W44245   7.623  16.844  12.483 -0.1015  0.0477  0.2068
28777W        W44246   6.688   3.801  16.011  0.0222 -0.1918 -0.1357
28778W        W44247   2.274  14.349  15.577 -0.1187  0.0227 -0.1554
28779W        W44248   3.053   3.914  14.727 -0.2521  0.1268  0.0407
28780W        W44249   2.288   1.712  12.622  0.0008 -0.3578 -0.1042
28781W        W44250  16.096   5.815   1.358  0.1501 -0.0118  0.0938
28782W        W44251   5.961  10.153  14.062 -0.3053 -0.0132  0.2780
28783W        W44252  10.401   1.336   2.602 -0.4276 -0.1462  0.1147
28784W        W44253   0.209   8.526  12.628 -0.1407 -0.0451 -0.3310
28785W        W44254  17.856  12.630   5.016  0.1709 -0.1300 -0.0530
28786W        W44255   1.699   8.398   1.769  0.2327  0.1767 -0.2792
28787W        W44256   4.440   8.551  13.134  0.0245 -0.0817 -0.0972
28788W        W44257  16.625   8.397   2.043 -0.0091 -0.1841  0.0685
28789W        W44258   1.963  12.032   1.261  0.0903 -0.0620 -0.0289
28790W        W44259   2.802   4.930  15.038  0.0948 -0.2019 -0.1625
28791W        W44260   9.789   2.137   4.612  0.0791  0.1074  0.4234
28792W        W44261  16.850   9.685   0.620 -0.0326 -0.2965  0.2642
28793W        W44262   5.385   3.623   4.911  0.2112  0.0362  0.1377
28794W        W44263   3.025  14.875  16.198  0.2051  0.3254  0.0476
28795W        W44264  11.677   3.201  13.066 -0.2548  0.0677  0.2031
28796W        W44265   6.188  13.277  16.136  0.0447  0.2045  0.0521
28797W        W44266  11.829   1.904   0.433 -0.0807 -0.1587  0.0309
28798W        W44267   9.903   9.057   2.498  0.2450 -0.3629  0.0569
28799W        W44268  14.798  12.259  13.297 -0.0816  0.1038 -0.0059
28800W        W44269  17.020  11.797   0.120  0.1716  0.0015 -0.0781
28801W        W44270   3.200   1.411  15.793 -0.1223 -0.1807  0.1819
28802W        W44271  10.201  10.019  16.270 -0.2795 -0.3342 -0.0645
28803W        W44272  10.919  14.041   4.056 -0.0865 -0.0598  0.0584
28804W        W44273  12.939   4.990   4.592 -0.2536 -0.2028 -0.0059
28805W        W44274   5.796   4.070   5.606  0.0396 -0.1974  0.1668
28806W        W44275   8.346   0.787  15.099 -0.1294 -0.1130  0.0311
28807W        W44276  16.914   1.384  16.199  0.2235 -0.1069 -0.3736
28808W        W44277   4.665  10.223   2.292 -0.0367 -0.1959 -0.0494
28809W        W44278   6.537   1.312  15.350 -0.1017 -0.3710 -0.4270
28810W        W44279   1.332  13.731   2.727 -0.0741 -0.1410  0.1427
28811W        W44280   9.822   9.565  10.044 -0.2947  0.0036 -0.0450
28812W        W44281   6.953  16.120  10.976  0.0211 -0.0313 -0.2324
28813W        W44282  10.292   8.807  14.426 -0.3779  0.0079 -0.0210
28814W        W44283   9.590   5.051   0.329  0.0829  0.2206 -0.0517
28815W        W44284  12.028   0.031  12.284 -0.2352 -0.3439 -0.1060
28816W        W44285  16.937   2.874   2.138 -0.0409 -0.1418  0.0550
28817W        W44286  16.094   3.434   1.495 -0.3204  0.1671  0.0683
28818W        W44287   1.354   2.886  15.333  0.1261 -0.2800 -0.0577
28819W        W44288   7.744  13.598   0.200 -0.1256  0.4797 -0.4668
28820W        W44289  14.244  11.957   2.923 -0.0220  0.0052 -0.1684
28821W        W44290   6.348   1.002  14.418  0.0438 -0.0274 -0.2354
28822W        W44291   3.737   9.153  15.589 -0.3785 -0.3431  0.1902
28823W        W44292  13.592   1.067  10.865  0.0150 -0.1269 -0.0816
28824W        W44293  13.609  17.082  15.996 -0.1242  0.3311  0.0737
28825W        W44294  16.844  10.156  14.804  0.2019 -0.2744  0.2163
28826W        W44295   2.674   7.628   2.029 -0.1755  0.0629  0.0816
28827W        W44296  17.176   7.011   5.751 -0.0171  0.3308  0.0657
28828W        W44297  13.388   2.987   2.352 -0.0376  0.2415 -0.1223
28829W        W44298  14.528   1.453  14.804  0.1868  0.1810 -0.0782
28830W        W44299  10.465   9.875   1.805 -0.3679  0.0577 -0.2655
28831W        W44300  10.018  11.356   4.388  0.1018  0.2058  0.0802
28832W        W44301   8.610   8.919  13.356  0.0585  0.1058 -0.0172
28833W        W44302   9.503   3.724  14.402  0.1896  0.2112  0.3068
28834W        W44303  17.036  12.017  11.283 -0.0153  0.1126 -0.6460
28835W        W44304  11.116   8.874   3.976  0.1069 -0.1416 -0.2311
28836W        W44305  13.506  14.863  15.927 -0.1009  0.1048 -0.0858
28837W        W44306   8.260   4.898  13.213  0.0397 -0.3536  0.1417
28838W        W44307   9.347   7.776   3.024  0.1438  0.3493 -0.0777
28839W        W44308  11.628   7.606  14.051 -0.0304  0.1423 -0.0919
28840W        W44309   6.679   6.146  14.007  0.0411 -0.1881 -0.0118
28841W        W44310  16.163   7.929  12.920  0.0634 -0.1908  0.3045
28842W        W44311   8.025   2.792   4.228  0.4566  0.0078 -0.0908
28843W        W44312   3.716  10.388   4.148  0.1512  0.1228  0.0480
28844W        W44313   4.944   3.109  11.813  0.1090 -0.0281 -0.0441
28845W        W44314   8.131   1.079   5.197  0.1826  0.1201  0.1501
28846W        W44315   1.498  12.534  13.959  0.1326  0.0796  0.2299
28847W        W44316  17.347  15.851  14.074  0.3434  0.0224 -0.4548
28848W        W44317   6.833   1.580  14.921  0.0454 -0.2272  0.2547
28849W        W44318   9.321   7.198   3.025  0.0035  0.1686  0.0483
28850W        W44319   2.516   4.666  12.750  0.1586 -0.2401 -0.0351
28851W        W44320   4.949   2.714   0.027 -0.0526 -0.2246  0.2395
28852W        W44321   6.624  15.385   4.526  0.0469  0.2501  0.2564
28853W        W44322  15.999   8.833  11.440 -0.0617 -0.0803 -0.0547
28854W        W44323   4.812  14.556  14.095 -0.4075 -0.1807 -0.0248
28855W        W44324   4.946  16.796   1.703 -0.0265 -0.0782  0.0244
28856W        W44325   1.099   2.237   5.091 -0.0306 -0.0376  0.1166
28857W        W44326  11.687  15.214   5.376 -0.0187  0.0408 -0.0771
28858W        W44327   2.164  16.224   9.929  0.1883  0.1373 -0.0031
28859W        W44328  14.826  13.550  14.595  0.2833  0.0301  0.0508
28860W        W44329   3.715  13.339   3.172 -0.0168  0.0703 -0.1948
28861W        W44330   5.841   2.800   4.927  0.0048  0.1367 -0.1611
28862W        W44331  17.183  16.109  15.270 -0.1463 -0.1758 -0.1989
28863W        W44332   8.734   4.026  15.635  0.4375 -0.3072 -0.0111
28864W        W44333  16.906   7.909   0.661 -0.1080 -0.2255 -0.0347
28865W        W44334   9.027  14.349  10.308  0.1274  0.2012  0.2974
28866W        W44335   5.978   9.549  12.473 -0.2245  0.0939 -0.2250
28867W        W44336   0.208   0.349   3.922 -0.4021 -0.0849  0.0553
28868W        W44337   6.060  11.641   0.116  0.1219  0.1915  0.0087
28869W        W44338  12.882   9.980   0.769 -0.1720  0.0118 -0.0198
28870W        W44339   2.364  17.040  15.023  0.0815  0.0103 -0.3099
28871W        W44340  12.815   3.017  10.945 -0.0507 -0.0655 -0.1571
28872W        W44341  13.912  14.305   1.818  0.0020  0.1198  0.0496
28873W        W44342  14.772   2.969  10.959  0.3004 -0.1340 -0.0915
28874W        W44343   3.372  10.016   3.880 -0.2713  0.2271  0.2198
28875W        W44344   2.860  13.784   4.760  0.3718  0.2725  0.2424
28876W        W44345   5.611  14.466   0.666  0.0778  0.1399  0.1066
28877W        W44346   0.220  10.962   6.609  0.1993 -0.0406 -0.1070
28878W        W44347   3.526  13.740  14.833 -0.0537 -0.1345  0.0736
28879W        W44348  12.606  14.805  13.187  0.0253 -0.0149 -0.0289
28880W        W44349   2.737   2.384   4.714 -0.0601 -0.0178 -0.3295
28881W        W44350  17.497  14.005  11.616 -0.0985  0.0134  0.1945
28882W        W44351   3.291   1.363  11.415 -0.2826 -0.0489 -0.0391
28883W        W44352   7.648  17.679   2.103  0.1470 -0.2141  0.2934
28884W        W44353   3.894   0.282   1.859 -0.0231  0.1439  0.0617
28885W        W44354  15.543   6.811   5.126  0.0662 -0.0303 -0.1174
28886W        W44355  15.237   4.130  12.989  0.0778 -0.1653 -0.0271
28887W        W44356  15.829   1.965   1.280 -0.2681  0.2111 -0.3014
28888W        W44357   5.261  16.867   2.142  0.0208  0.1066 -0.0542
28889W        W44358   8.797   9.348   0.747 -0.5039  0.2834  0.2751
28890W        W44359  11.080   6.012   3.777  0.1354  0.1739  0.6173
28891W        W44360   7.274   9.000  11.444 -0.1016 -0.0887  0.4418
28892W        W44361  12.349  13.600   0.819  0.0187  0.2648 -0.0537
28893W        W44362   2.441  13.983  14.728  0.0403 -0.1393  0.1446
28894W        W44363   3.569  11.406   5.953  0.0357  0.0210 -0.2364
28895W        W44364   5.510   3.142   0.797 -0.0884 -0.1282 -0.0911
28896W        W44365  14.891   2.076  13.791  0.0928  0.1232  0.1102
28897W        W44366  15.447  13.744   2.253  0.1373 -0.0283  0.0534
28898W        W44367   0.312  11.774  13.453 -0.1720 -0.1317  0.0239
28899W        W44368   0.535   2.527   2.122 -0.0661 -0.3031 -0.0066
28900W        W44369  14.630   6.583   4.329 -0.1373 -0.0496  0.0006
28901W        W44370   0.726  12.126   3.059 -0.0412  0.0727 -0.1675
28902W        W44371  14.702  14.501  15.430 -0.1289  0.1021 -0.1603
28903W        W44372   4.755  12.837  12.335 -0.0510  0.1852 -0.5471
28904W        W44373   8.667   4.297   2.716  0.0214  0.0066  0.3040
28905W        W44374  10.992  14.124   5.299  0.0634  0.3046  0.2258
28906W        W44375  15.436  10.350  15.931  0.0844 -0.0089  0.5027
28907W        W44376  12.237  13.530   4.776 -0.0833 -0.2770 -0.0314
28908W        W44377  13.197  16.594   2.881 -0.0988 -0.2011 -0.0102
28909W        W44378   4.180  12.105  11.748 -0.0057  0.2046 -0.1305
28910W        W44379   8.365  13.804   0.973 -0.0379  0.4913  0.3110
28911W        W44380   1.797   1.843   1.932  0.0114 -0.0654 -0.1065
28912W        W44381  15.485  16.181   3.710  0.1477 -0.0329  0.1386
28913W        W44382   6.084  12.507  10.165  0.0950  0.0498 -0.2397
28914W        W44383   6.708   9.268  14.769 -0.0090 -0.1867 -0.3069
28915W        W44384   7.292   7.553  11.040 -0.0587 -0.0079  0.0030
28916W        W44385  15.998   0.609   1.627 -0.0197 -0.1985 -0.0816
28917W        W44386  15.248   9.763  14.661  0.1395 -0.1565 -0.1101
28918W        W44387  13.087   9.365  11.610 -0.1557 -0.0840 -0.2120
28919W        W44388   0.068   7.544   0.787  0.2176  0.4462  0.2415
28920W        W44389  15.168  15.073   2.125  0.0581  0.1601  0.1382
28921W        W44390   5.801   1.616   4.871  0.3337 -0.0671 -0.0772
28922W        W44391  11.672   8.120   5.123  0.2906  0.0562 -0.2933
28923W        W44392  14.425   7.451   1.526  0.1177  0.1574  0.2457
28924W        W44393  10.471  13.810   4.812 -0.0286 -0.1869  0.1291
28925W        W44394   0.192   3.357   0.846  0.3557 -0.0294  0.2155
28926W        W44395   9.663   9.523   5.428  0.1569  0.0308  0.2198
28927W        W44396  14.019  17.159  15.117  0.0131 -0.0306  0.3380
28928W        W44397  13.606   3.803   5.049 -0.1514 -0.2573  0.0309
28929W        W44398   0.367  12.788   2.618  0.2034  0.3636  0.1154
28930W        W44399   7.588  15.875  14.636 -0.2132  0.0929  0.1498
28931W        W44400  17.954  11.081  12.958  0.1521  0.2115  0.2461
28932W        W44401   4.575   0.783  16.105 -0.1230  0.2682 -0.0255
28933W        W44402  16.820   8.462   2.803  0.1162 -0.0481  0.0787
28934W        W44403   4.790   7.492   5.279  0.1939 -0.0048 -0.0249
28935W        W44404   4.901   1.756   4.556  0.3166 -0.2812 -0.3996
28936W        W44405  15.986   3.709  14.737 -0.0449  0.4199  0.1523
28937W        W44406  14.242  12.040  15.386  0.0667 -0.1815 -0.1422
28938W        W44407   7.292  17.966  12.823 -0.0189 -0.2323  0.0850
28939W        W44408   2.284   4.972  12.409 -0.0447  0.0444  0.1791
28940W        W44409  14.579   9.601  14.987 -0.0858 -0.1256 -0.0497
28941W        W44410   6.264   6.377  12.827  0.2045 -0.1072 -0.2643
28942W        W44411   3.669  15.009   4.612  0.1447 -0.2034 -0.2069
28943W        W44412   9.748   7.322  13.844  0.0321 -0.3954 -0.1239
28944W        W44413   2.999   9.936   2.077  0.3558  0.1061 -0.0658
28945W        W44414  15.238  11.121  13.519 -0.5162 -0.0286  0.0397
28946W        W44415  14.256   1.160   2.791 -0.2601 -0.1608  0.0908
28947W        W44416  14.807   0.869   2.081 -0.0199 -0.0225 -0.0081
28948W        W44417   3.157   8.289  12.980 -0.0797  0.2830 -0.2953
28949W        W44418   2.832  10.089   3.884  0.0604 -0.0383 -0.1142
28950W        W44419  17.439   9.685   0.084 -0.2059 -0.1402 -0.2783
28951W        W44420  16.893   4.630  15.582 -0.2185  0.2339 -0.0537
28952W        W44421   5.905   0.612  14.579 -0.1713  0.0051  0.0371
28953W        W44422   8.437  17.281   1.441 -0.0851 -0.1664 -0.1530
28954W        W44423  12.237  16.386   0.673 -0.0512  0.2685 -0.1597
28955W        W44424  17.468   7.614   2.578 -0.1736  0.0220 -0.2441
28956W        W44425  11.166   1.870  10.828  0.2477  0.1960  0.1907
28957W        W44426   6.071  16.347   1.395 -0.1592  0.0918  0.1977
28958W        W44427   6.228   8.520   2.870 -0.1639  0.2523  0.1346
28959W        W44428   1.822  17.462   3.511  0.1849 -0.1023  0.0041
28960W        W44429  14.080   3.642   4.800 -0.1706  0.1596 -0.0141
28961W        W44430  16.389   6.031   3.004 -0.2562 -0.0781 -0.1400
28962W        W44431  14.479  10.325   1.230  0.4745  0.1171 -0.0314
28963W        W44432  11.579  11.542  14.779  0.0997 -0.2273 -0.0793
28964W        W44433   2.360   4.444  14.508  0.4823  0.2122 -0.0399
28965W        W44434  13.672   8.228  12.024 -0.2215  0.0714 -0.1708
28966W        W44435   5.979  15.339  14.051  0.0916  0.2641 -0.0970
28967W        W44436   6.697  16.937  12.215 -0.0548 -0.0663  0.1414
28968W        W44437   1.116  15.100   5.393 -0.2909  0.0388 -0.1112
28969W        W44438   3.366   6.997  16.077  0.0047  0.1447 -0.1184
28970W        W44439   0.620  14.129  14.699  0.3364 -0.1007  0.3517
28971W        W44440   4.734   7.719   5.807  0.1979  0.3032  0.1871
28972W        W44441   2.892   7.528   1.217  0.3466 -0.0510 -0.2296
28973W        W44442  13.313   3.841   1.242  0.0745 -0.0277 -0.3166
28974W        W44443   5.195   1.232  15.092 -0.1347  0.0711  0.1133
28975W        W44444  14.564   5.573   2.753 -0.2435 -0.0123 -0.0058
28976W        W44445   1.595   4.289   4.963 -0.2452 -0.1768 -0.0475
28977W        W44446  15.864   9.433  10.627 -0.0197 -0.2378  0.0611
28978W        W44447   8.207   7.336   3.970 -0.1847 -0.0201  0.0075
28979W        W44448  10.769   7.835  15.817 -0.1616 -0.0372  0.1900
28980W        W44449   1.413  17.396   1.224 -0.0962  0.1007  0.0027
28981W        W44450   7.471  15.372  10.794 -0.0951  0.5256 -0.1427
28982W        W44451   4.692   4.013   5.882  0.2346 -0.2210 -0.0287
28983W        W44452   3.936   2.302   0.683 -0.3529  0.0696  0.1625
28984W        W44453   2.491  15.260   4.991  0.0667  0.0526  0.1486
28985W        W44454   6.775  15.095  11.840  0.2872 -0.2097 -0.3185
28986W        W44455   5.002   0.597  12.161 -0.0613 -0.1724  0.0885
28987W        W44456   1.696  12.607   2.258  0.0298  0.0419 -0.0825
28988W        W44457  17.611   7.871   3.735 -0.2881  0.3260  0.0940
28989W        W44458  16.274  11.748   0.536  0.1797 -0.0016  0.0341
28990W        W44459   3.587   7.555   2.562 -0.1591  0.0778 -0.3252
28991W        W44460   0.182  16.790  15.695 -0.1650  0.1991 -0.1664
28992W        W44461   1.578  17.883  11.647  0.0212  0.0981  0.2440
28993W        W44462   7.114  13.416  12.307  0.1141  0.0618  0.0951
28994W        W44463   6.734   3.180   3.151 -0.0732  0.1882 -0.0945
28995W        W44464   8.066  16.956   4.227  0.2919  0.1478 -0.3103
28996W        W44465   0.764  15.465  13.082  0.1367 -0.4340 -0.0896
28997W        W44466   2.871  11.068  13.535  0.0985  0.0544  0.0749
28998W        W44467  16.694   7.947   4.616  0.1261  0.0665 -0.3744
28999W        W44468   5.052  14.906  11.564 -0.0860  0.4143 -0.0638
29000W        W44469   3.093   2.657   4.603  0.1668  0.4837 -0.0350
29001W        W44470  13.582   7.385  12.996  0.0197  0.0213  0.0096
29002W        W44471   0.224   8.107   4.400 -0.1228  0.0169  0.3484
29003W        W44472   4.127  11.320   0.982  0.0815  0.0929 -0.0334
29004W        W44473   6.429   7.494  14.719 -0.0002 -0.0970 -0.0291
29005W        W44474  17.404   1.303  12.423 -0.2756 -0.1592 -0.4227
29006W        W44475   0.477   0.216   3.109  0.0599 -0.1114  0.1872
29007W        W44476  11.507  17.640   4.132 -0.0404 -0.0592  0.1554
29008W        W44477  15.789   4.124  14.916 -0.2755  0.2000 -0.1829
29009W        W44478   1.957  17.288   0.695 -0.3203  0.2165 -0.1271
29010W        W44479   6.868   4.508  12.394  0.0855 -0.0034 -0.0297
29011W        W44480   5.062   2.086  14.357  0.4768 -0.2108 -0.0878
29012W        W44481  11.195   7.970   0.528  0.0726 -0.0974  0.0459
29013W        W44482   9.879   7.216  15.546 -0.2090 -0.2265  0.0870
29014W        W44483   8.698   6.262   1.850  0.0464  0.2338 -0.1620
29015W        W44484  10.269  10.522  14.070 -0.1728  0.0357 -0.1538
29016W        W44485  17.278   0.896  12.893  0.0500 -0.0520  0.0888
29017W        W44486   7.727  16.979   0.138  0.2127 -0.1418 -0.0373
29018W        W44487  13.055  12.010   5.582  0.2221 -0.0277 -0.0238
29019W        W44488  12.473   9.607   3.237 -0.1287 -0.2348  0.5785
29020W        W44489   7.709   0.353   0.393 -0.2212  0.1137  0.1046
29021W        W44490   3.039  16.466   1.055 -0.0943  0.2919 -0.1728
29022W        W44491  17.719  15.621  10.307 -0.0040 -0.1362 -0.2531
29023W        W44492   8.708  16.629  12.587  0.2581  0.1189  0.2292
29024W        W44493   3.795  13.309  11.384 -0.1448 -0.4213 -0.1048
29025W        W44494   1.655  12.679   5.328  0.1142 -0.0332  0.0054
29026W        W44495  15.731  14.752   5.200  0.0240  0.0387  0.0115
29027W        W44496   7.720  16.017  12.106 -0.1447  0.2083  0.0431
29028W        W44497  13.744   1.545  13.244 -0.1028  0.0372  0.1948
29029W        W44498   4.398   3.067   6.221 -0.0208 -0.2058  0.1713
29030W        W44499   0.498  13.973  11.136  0.0197  0.3224 -0.0125
29031W        W44500   8.101   1.872   2.102  0.1208  0.3550 -0.4507
29032W        W44501   2.663   2.547   3.803 -0.0861  0.1510  0.0250
29033W        W44502  12.240  16.727  13.292 -0.0611 -0.2014 -0.0484
29034W        W44503  13.655  12.766   0.467 -0.2424 -0.1244  0.2549
29035W        W44504  15.434  11.831   1.071 -0.3477  0.0119  0.1442
29036W        W44505   1.009  17.531   0.819 -0.0945 -0.0039 -0.0208
29037W        W44506  14.576  15.144   1.086  0.1668 -0.0320 -0.1164
29038W        W44507  11.710   5.635   4.587  0.0968 -0.0423 -0.2041
29039W        W44508   0.024   4.884  15.429 -0.0706 -0.0836 -0.0275
29040W        W44509  16.119   7.279   0.390  0.0026  0.0772  0.2065
29041W        W44510  17.367   3.956   5.302  0.0258 -0.2052 -0.2442
29042W        W44511   0.028   3.831   3.122 -0.0141 -0.3331 -0.1409
29043W        W44512   6.057   2.182  15.064  0.0626 -0.1973 -0.0293
29044W        W44513   1.970  10.746  13.287  0.1008  0.1089 -0.2992
29045W        W44514   1.298   7.314  15.544 -0.3932 -0.2493  0.2635
29046W        W44515  17.723   8.830   3.057 -0.2809  0.0694  0.0125
29047W        W44516   6.058   1.566   5.820  0.1711  0.2322 -0.4494
29048W        W44517   9.195  16.709  14.323 -0.2221 -0.0369 -0.2339
29049W        W44518  11.113  10.475  11.397 -0.1329 -0.1674 -0.0400
29050W        W44519   8.249  13.204   3.625  0.0302  0.1748 -0.0046
29051W        W44520  11.491   4.429   1.443  0.1249 -0.0064 -0.1039
29052W        W44521   9.399   2.354   0.464  0.0540 -0.1076 -0.1106
29053W        W44522   6.675  14.934  13.026  0.1107 -0.1728 -0.1830
29054W        W44523   2.987  16.839  14.086  0.0427  0.2872  0.0439
29055W        W44524  15.457   5.289  13.931  0.1302 -0.0602  0.1891
29056W        W44525  10.837   6.795   3.199 -0.2668  0.1627  0.0070
29057W        W44526   4.236  11.474   1.956  0.0486  0.3991  0.1449
29058W        W44527   6.510   8.768  15.927 -0.2175 -0.1096  0.2087
29059W        W44528   3.728   0.237   4.148  0.2179 -0.0864  0.0112
29060W        W44529   3.058  18.037   1.377 -0.0435  0.1770  0.3967
29061W        W44530  14.223   9.865  12.620 -0.2148 -0.1063  0.0006
29062W        W44531   0.675  14.133   1.973  0.0563  0.0685 -0.1575
29063W        W44532  15.707  16.515  13.124  0.0987 -0.1351  0.2107
29064W        W44533  14.853   8.045  13.123 -0.0605 -0.0720  0.1201
29065W        W44534  12.062   2.795   4.596  0.0200  0.0069  0.1779
29066W        W44535  13.575  17.919   3.576  0.1644  0.0889 -0.1048
29067W        W44536  14.479  14.523  11.198  0.1297 -0.0431  0.0394
29068W        W44537   2.453   3.596  12.825 -0.2921 -0.0263 -0.0009
29069W        W44538   4.162  13.819   4.843  0.0105 -0.1849  0.0491
29070W        W44539   4.874   1.226   5.184 -0.1326 -0.0864 -0.3900
29071W        W44540   5.721  18.024   0.535  0.0624 -0.1361 -0.0674
29072W        W44541   2.075   6.894  11.652  0.0719  0.0828 -0.2184
29073W        W44542  15.406   2.662  11.404  0.1551 -0.1553 -0.0012
29074W        W44543   2.582  13.334   5.474  0.0845  0.0799  0.0547
29075W        W44544   2.202   9.539   0.966  0.1523 -0.1427 -0.0656
29076W        W44545   5.633   1.287   0.398  0.1022 -0.0960 -0.4250
29077W        W44546  17.495   5.033  11.924 -0.0331 -0.0801 -0.0465
29078W        W44547   2.770  16.024   4.280  0.1769  0.2348 -0.0553
29079W        W44548  16.723   5.510  14.871  0.3325  0.3106 -0.0291
29080W        W44549  16.494   4.215   2.500  0.0217 -0.2915  0.0447
29081W        W44550   7.550  12.009   5.384  0.1477 -0.2060  0.1038
29082W        W44551   9.929  14.022  14.665  0.0266 -0.3673 -0.0543
29083W        W44552  12.780   7.825   5.853 -0.0358 -0.0693 -0.0051
29084W        W44553   3.237  16.540  11.305  0.2149  0.2042 -0.0883
29085W        W44554  16.015   8.070  11.341  0.1700  0.1266  0.0974
29086W        W44555   7.195   1.669   1.828 -0.0412 -0.0822  0.1088
29087W        W44556  15.731  13.533  15.094  0.0524  0.2577 -0.0920
29088W        W44557  12.140  16.470  16.155 -0.1481  0.0405 -0.2251
29089W        W44558  12.946   4.941  14.436  0.0577  0.1176  0.0249
29090W        W44559  10.191  15.108  12.263 -0.3072 -0.1026 -0.1541
29091W        W44560  12.245  13.086  12.922  0.3810  0.0446 -0.2735
29092W        W44561   9.529  17.023   5.709 -0.1677 -0.0624 -0.1306
29093W        W44562  10.942   8.874  11.070  0.1509 -0.2235 -0.0483
29094W        W44563   3.042   2.951  11.812 -0.1247 -0.2354 -0.0754
29095W        W44564   6.152  17.836  11.862  0.1691 -0.0961 -0.0364
29096W        W44565   3.245  16.847   0.788  0.1211 -0.0082  0.2379
29097W        W44566   5.959   3.828  11.162 -0.1476 -0.1644  0.1360
29098W        W44567  15.839   5.994  13.298  0.2310 -0.2596  0.0804
29099W        W44568   4.237  14.428  12.698 -0.0074 -0.2621 -0.1153
29100W        W44569   4.402   8.788   9.979  0.0635  0.1528 -0.0573
29101W        W44570  13.829   1.306   3.721 -0.4511 -0.1871 -0.2646
29102W        W44571   0.041  15.796   3.557  0.1347  0.2874  0.0494
29103W        W44572   5.170  13.739   1.569 -0.0041  0.1508 -0.0001
29104W        W44573   2.876   8.971   0.744  0.3006 -0.1725 -0.0354
29105W        W44574   7.141  14.457   4.208 -0.0990 -0.1576 -0.3445
29106W        W44575  12.337   9.024   0.084 -0.0372 -0.1188 -0.0386
29107W        W44576  13.915  16.798  15.426 -0.1670  0.0539 -0.0236
29108W        W44577   5.368   7.361   4.315 -0.0496 -0.3823 -0.2021
29109W        W44578   2.465   7.002   3.258  0.2218 -0.2397  0.0285
29110W        W44579   6.999   5.960  12.369 -0.0743 -0.1289  0.2874
29111W        W44580  10.327  11.322  15.858 -0.4695 -0.0746 -0.1835
29112W        W44581   1.747   7.638   3.219  0.1177 -0.0942  0.1731
29113W        W44582  12.274   0.963  12.644  0.1864  0.0380 -0.1360
29114W        W44583   2.028   6.717   3.257  0.2522  0.2383  0.1038
29115W        W44584   3.946  11.350   1.459 -0.0164 -0.0157  0.3070
29116W        W44585   8.868   3.182  13.249 -0.1143  0.1280  0.0836
29117W        W44586   3.121   2.297  14.644  0.1833 -0.0828  0.3480
29118W        W44587  16.343   2.914  13.905  0.0742 -0.0255 -0.2368
29119W        W44588   2.647   5.948   1.469  0.3609 -0.1218 -0.0325
29120W        W44589  10.302   4.103  14.847 -0.0858 -0.0628  0.0851
29121W        W44590   3.180   9.360   2.963 -0.2444 -0.1046 -0.2410
29122W        W44591   5.245   3.172  13.226  0.2652 -0.0893  0.0707
29123W        W44592  10.312   3.762  12.844 -0.0031 -0.3781  0.3857
29124W        W44593  16.811  16.825   0.556 -0.2301 -0.0562 -0.0100
29125W        W44594   8.049  14.015   0.509 -0.0794  0.1133  0.2169
29126W        W44595  11.576  14.062  13.709  0.0280  0.2830  0.0344
29127W        W44596  10.883   8.544   0.620 -0.0836 -0.2255  0.2372
29128W        W44597  13.463  18.098  13.469  0.0506 -0.0004 -0.1066
29129W        W44598   8.804   1.861  13.732  0.0977 -0.3718 -0.2741
29130W        W44599   6.080   8.145   3.399  0.0007 -0.1762 -0.0350
29131W        W44600   5.679  11.348   5.280  0.3014 -0.2661  0.0072
29132W        W44601  15.121   4.911   1.711 -0.1209 -0.2843 -0.0592
29133W        W44602   1.998  15.662  12.294 -0.1188 -0.0768  0.1870
29134W        W44603  14.866   7.181  10.456  0.0417  0.0217 -0.0690
29135W        W44604   3.630   5.218  15.873 -0.2930 -0.1199  0.0216
29136W        W44605  16.038   8.844  12.433 -0.0718 -0.0381  0.1651
29137W        W44606  17.145   3.988  11.777  0.0205  0.2604 -0.0598
29138W        W44607  12.590   3.697   1.449 -0.2582  0.1519 -0.2132
29139W        W44608  16.777   7.794   2.022  0.0608 -0.0867 -0.2337
29140W        W44609   6.150   2.141   0.462  0.0202  0.1378  0.0826
29141W        W44610  10.146  16.590  12.186  0.3508  0.2062  0.1363
29142W        W44611  15.475  17.686  15.097 -0.0299  0.0888 -0.0420
29143W        W44612   3.353   2.796  13.527  0.1668  0.2456  0.0553
29144W        W44613  14.253   4.826   1.990  0.1359  0.3687  0.0162
29145W        W44614   5.591  12.087  11.432  0.2801 -0.0028  0.0210
29146W        W44615  13.457   8.847   2.049  0.1403  0.1818  0.2513
29147W        W44616  14.924  17.252  14.648 -0.1927 -0.0924 -0.0809
29148W        W44617   6.796  12.369  15.672 -0.0842 -0.1335  0.0702
29149W        W44618   1.218  15.082  15.200  0.1314  0.0172 -0.0268
29150W        W44619   9.131  10.971   1.528  0.1470 -0.0128  0.1188
29151W        W44620  11.050   6.654  13.231  0.1889  0.1587  0.1643
29152W        W44621   2.949  10.055  11.350  0.1073 -0.3291  0.2779
29153W        W44622   0.921   6.599   3.249 -0.2037  0.1282  0.1207
29154W        W44623   9.659   6.231   1.647 -0.1383 -0.2031 -0.1458
29155W        W44624   9.716   0.435  12.672 -0.0823 -0.0107  0.1078
29156W        W44625   9.644   9.942  14.423 -0.1637 -0.2462  0.0191
29157W        W44626   9.673  15.477   5.341  0.1635  0.0997 -0.0383
29158W        W44627   8.220  14.489  13.984  0.2175 -0.2269  0.1679
29159W        W44628   3.544   7.468  14.284 -0.1640 -0.2059  0.0830
29160W        W44629   4.500   5.795   1.707 -0.0036 -0.2676 -0.0527
29161W        W44630   6.437  17.900  13.399 -0.0916  0.0380 -0.0198
29162W        W44631  17.691  13.634   0.200  0.2800 -0.0337  0.0069
29163W        W44632   3.761   5.466   4.109  0.0312 -0.0234 -0.1312
29164W        W44633   2.300  17.062  14.551  0.1800 -0.0119 -0.0535
29165W        W44634   8.257   9.410   1.996  0.0391 -0.4309  0.1389
29166W        W44635   5.795  12.222   0.583 -0.0401  0.2260 -0.3591
29167W        W44636   4.401   0.761   4.062 -0.1937  0.0556  0.3145
29168W        W44637  12.679  14.382   4.993  0.1879  0.0857  0.0174
29169W        W44638  13.427   6.211  15.617 -0.1665  0.0043 -0.2192
29170W        W44639   0.583   0.540   1.405 -0.0267 -0.1064  0.1462
29171W        W44640  10.945  10.813  15.469 -0.0461 -0.4663  0.0798
29172W        W44641  10.754   3.223  14.318  0.0852  0.3194  0.1299
29173W        W44642   0.060   6.020  11.365 -0.1285  0.0795  0.1863
29174W        W44643  11.122   6.298  13.655 -0.3688 -0.2838  0.2650
29175W        W44644  16.684   7.154   0.305 -0.0498 -0.1670 -0.2598
29176W        W44645  13.191  10.070   1.681 -0.1759 -0.1279  0.2962
29177W        W44646   4.462   9.235  14.323  0.0687 -0.0991  0.0132
29178W        W44647   9.518   8.876   2.163 -0.3542 -0.0582  0.0145
29179W        W44648   1.342  13.812   0.908 -0.0283  0.1045  0.1678
29180W        W44649  16.053   1.744   2.002  0.0773 -0.0612 -0.0816
29181W        W44650   5.603   2.840   6.240  0.1841 -0.1617  0.0168
29182W        W44651   8.225   3.496   1.116  0.0708  0.2201  0.1903
29183W        W44652   9.833  11.454  15.058  0.1715 -0.0626 -0.0846
29184W        W44653   1.268   4.095   1.435 -0.2089 -0.4975  0.0708
29185W        W44654   4.966  13.177  13.034 -0.0550  0.1898  0.0721
29186W        W44655   6.822   2.971   1.167  0.1023  0.0636 -0.0588
29187W        W44656  14.787   0.749   3.303  0.1699  0.0832  0.0222
29188W        W44657  16.188  13.944   3.882 -0.3058  0.1392 -0.2590
29189W        W44658  17.741   5.261   3.534  0.2805  0.1455  0.0856
29190W        W44659  10.730  12.076  15.807  0.0290 -0.0352 -0.0989
29191W        W44660   9.987   9.199   5.985  0.0894 -0.0861  0.0260
29192W        W44661   3.693  14.408   0.065 -0.4163  0.3783  0.2431
29193W        W44662   1.247   4.314  12.999  0.0396  0.1123  0.0404
29194W        W44663  14.171  11.476  10.233  0.2282 -0.0400  0.1183
29195W        W44664  13.486   0.053  15.772  0.3107 -0.1690  0.0526
29196W        W44665   1.738   3.088  12.203  0.1130  0.1991 -0.1574
29197W        W44666   3.295  12.781  15.812  0.0059 -0.2444  0.2023
29198W        W44667   3.600   4.223   5.332 -0.0777 -0.1702 -0.0116
29199W        W44668   6.596  17.880  11.549 -0.0173  0.0060  0.0821
29200W        W44669  11.541  10.653  13.175  0.3040  0.0334  0.0582
29201W        W44670   5.284  14.973  12.033  0.2332  0.0723  0.0956
29202W        W44671  16.242  11.631  12.710  0.0407  0.1616  0.0210
29203W        W44672   5.505   4.118  15.647 -0.4050  0.1988  0.2916
29204W        W44673   1.169   8.955  15.806 -0.0333  0.0390  0.3943
29205W        W44674   3.558  16.745   5.689 -0.0741 -0.0466 -0.2542
29206W        W44675  11.459   4.107   4.895 -0.0605 -0.1620 -0.1772
29207W        W44676  13.819   3.294   3.686  0.0082 -0.1136  0.0275
29208W        W44677   0.703   7.018  14.899  0.1691 -0.2134  0.1764
29209W        W44678   2.659  17.734  15.556 -0.0440 -0.1363 -0.1535
29210W        W44679   9.196   9.780  14.264  0.1198 -0.0216  0.1819
29211W        W44680   4.091   9.018  13.382 -0.2063  0.0669 -0.0734
29212W        W44681   7.158   1.836  13.257 -0.1810 -0.1380  0.1241
29213W        W44682  17.544   5.236   4.493  0.1205  0.0587  0.0031
29214W        W44683   9.654   3.820  10.522  0.0669 -0.2577 -0.2036
29215W        W44684  11.975  16.915   3.577  0.2338 -0.1202  0.1813
29216W        W44685  17.705  10.756  12.650  0.0718 -0.2893 -0.1733
29217W        W44686   9.645   4.208  14.370 -0.1122 -0.0794  0.0735
29218W        W44687   8.596   3.831   1.472 -0.0336 -0.1249  0.0282
29219W        W44688  14.150  14.455   2.707 -0.1291 -0.5215 -0.1078
29220W        W44689   0.715  14.171  16.160 -0.0691 -0.0770 -0.1563
29221W        W44690  17.607   7.434   9.768  0.0390 -0.1304  0.0345
29222W        W44691  12.498  13.745  11.517 -0.1688 -0.1315  0.0054
29223W        W44692  15.357  11.234   3.441  0.0430  0.3532 -0.0396
29224W        W44693  16.696   4.182  10.915  0.4342 -0.1449  0.0021
29225W        W44694   7.309  12.159   4.495  0.0309  0.0121  0.0728
29226W        W44695   1.114   4.614  11.663 -0.0906  0.2364  0.3579
29227W        W44696   8.399   8.489   4.582 -0.0124  0.0920 -0.4127
29228W        W44697   1.198   1.847   2.877 -0.2637 -0.1998  0.0962
29229W        W44698   1.254  11.563   1.492 -0.2155  0.0772 -0.0480
29230W        W44699   1.828   2.261   2.200  0.3850  0.0255 -0.1251
29231W        W44700   6.761   9.160  11.480 -0.0081 -0.0169  0.0814
29232W        W44701  11.580   1.403  12.436  0.4133  0.1133  0.2510
29233W        W44702   3.533   1.641   4.080 -0.1319  0.0511  0.0025
29234W        W44703   1.126  10.500  14.587  0.1613  0.1606 -0.1996
29235W        W44704   7.104  11.397   5.623 -0.0651 -0.1850  0.2042
29236W        W44705  16.031   0.283  12.681  0.1037  0.0148  0.2841
29237W        W44706   9.565  10.985  13.670 -0.3319  0.0902 -0.1046
29238W        W44707   2.433  13.937   4.690 -0.1079  0.0578 -0.2724
29239W        W44708  16.080  12.654  16.285 -0.3218  0.0577  0.0075
29240W        W44709  16.693   2.324   5.900  0.3335 -0.1863 -0.2168
29241W        W44710   4.938  18.024  16.178 -0.0595 -0.0825 -0.0428
29242W        W44711   0.056  12.922  12.295  0.1072  0.2415 -0.0522
29243W        W44712   1.267   9.129  12.458 -0.1211 -0.1413  0.0379
29244W        W44713   4.922  17.468   1.260  0.0648  0.0289  0.1096
29245W        W44714  12.573  14.580   2.209  0.1740  0.1472 -0.0712
29246W        W44715   4.413  16.147  13.276 -0.0726  0.0255  0.3926
29247W        W44716  12.690   5.776   1.400 -0.1016 -0.0639  0.1289
29248W        W44717   1.380  13.471  16.271  0.1305  0.4108 -0.2285
29249W        W44718   6.203   3.598   3.845 -0.6399  0.1852  0.0166
29250W        W44719  14.415  10.005  15.232 -0.3667 -0.3435  0.0905
29251W        W44720  12.910   5.938   4.738 -0.2559 -0.1717 -0.1379
29252W        W44721  17.896   4.614   3.641 -0.0219  0.1202 -0.0057
29253W        W44722   3.765  14.599  11.788 -0.0566  0.2470 -0.1097
29254W        W44723   1.390  15.574  14.859 -0.1935 -0.0590  0.0161
29255W        W44724   5.082   4.811  12.055 -0.3342 -0.3264  0.0244
29256W        W44725  17.220   6.171  11.713 -0.0594  0.6179 -0.1747
29257W        W44726   5.885  14.166   3.683 -0.2542 -0.0729  0.1528
29258W        W44727  14.999   6.460   5.655  0.1812 -0.2415  0.0073
29259W        W44728   2.959  17.917  11.750 -0.1720 -0.0072  0.0733
29260W        W44729   0.876  11.448  12.022  0.1432 -0.2181  0.0010
29261W        W44730   1.391   1.075  15.041 -0.1032  0.0327 -0.3011
29262W        W44731   0.541   8.414   2.732  0.1301 -0.3353 -0.0668
29263W        W44732  12.724   4.297  15.925  0.1125 -0.0978 -0.0439
29264W        W44733  13.247  12.815  14.518 -0.1898  0.2262 -0.1511
29265W        W44734   2.733   9.815   2.446  0.1793 -0.2785 -0.0119
29266W        W44735   8.957   6.876  11.512  0.0041 -0.0779  0.0265
29267W        W44736   7.878   2.152  12.855 -0.1954  0.0386 -0.1721
29268W        W44737  16.307   5.456  15.534 -0.1186  0.0212 -0.0988
29269W        W44738   1.728   5.898   6.023  0.0025 -0.2525 -0.2310
29270W        W44739   1.503  12.682   4.454 -0.2176  0.1456 -0.2114
29271W        W44740  18.073   8.653  14.394 -0.2558 -0.0325 -0.0116
29272W        W44741   0.497   2.283  10.987 -0.1647  0.2086  0.2138
29273W        W44742  12.684   1.488   2.668  0.2312  0.1849  0.0282
29274W        W44743   4.602  10.182  11.333  0.1837  0.1250  0.1682
29275W        W44744   6.182  11.956  14.238  0.0663  0.1722  0.0414
29276W        W44745   4.951   7.911   0.777 -0.0753  0.1265 -0.1629
29277W        W44746  11.291  15.754  10.743  0.0803  0.0015  0.3855
29278W        W44747   0.220  10.599  14.310 -0.1647  0.2496  0.0622
29279W        W44748   0.725  10.474   6.030 -0.1882 -0.3215 -0.3061
29280W        W44749  17.703  15.344   2.180 -0.4071  0.1476  0.2405
29281W        W44750   7.451  10.558   1.927 -0.0605  0.1101  0.0286
29282W        W44751  15.680   7.185  10.817  0.0180  0.0297  0.2401
29283W        W44752  12.631   9.995   2.703  0.0407 -0.1753  0.0311
29284W        W44753  12.219  13.094  14.692 -0.2401  0.1184 -0.1900
29285W        W44754   5.792  16.662   2.170 -0.3783  0.2597 -0.1799
29286W        W44755   7.557   3.433  13.416  0.1709 -0.0375 -0.0646
29287W        W44756   6.876   0.045  13.556 -0.3383 -0.0906  0.0354
29288W        W44757   0.204  15.916  15.928  0.1777  0.0529  0.0476
29289W        W44758   5.882   6.930  13.875  0.1738  0.2196 -0.0513
29290W        W44759  16.242  13.214  12.308 -0.0430  0.1583 -0.1582
29291W        W44760  12.314   0.592   2.395  0.0380  0.2939 -0.0253
29292W        W44761  16.438   6.805  11.905 -0.1172  0.0761  0.2398
29293W        W44762   7.782  13.657  13.075  0.1018 -0.0522 -0.0206
29294W        W44763   6.068   4.951   2.238  0.2479 -0.3174  0.0110
29295W        W44764  16.878   3.646  14.748 -0.2440 -0.1836  0.0608
29296W        W44765   4.694   5.878   0.434 -0.2124  0.2964 -0.0907
29297W        W44766  17.915   3.051   3.039  0.0969 -0.2656 -0.1231
29298W        W44767   8.566  11.388   3.141 -0.0940 -0.0557 -0.0465
29299W        W44768  14.028   5.088  15.001 -0.0857  0.1308  0.1671
29300W        W44769   9.657   2.272   0.020  0.0687 -0.1814  0.0967
29301W        W44770   3.840  15.781   1.864 -0.0668  0.2183  0.0562
29302W        W44771   6.541   8.164  15.317 -0.1163 -0.3012 -0.0364
29303W        W44772  15.089   3.907  15.098 -0.1190 -0.2065  0.2022
29304W        W44773  12.486  17.863   0.803 -0.1090 -0.0571  0.1704
29305W        W44774  14.361   9.506  13.708 -0.0660 -0.0475  0.0875
29306W        W44775  10.658  16.080  15.212  0.2966 -0.0365 -0.0496
29307W        W44776  15.508  13.906   1.266  0.0282  0.3116 -0.0437
29308W        W44777   7.246   8.072  13.451  0.0809  0.1267  0.0170
29309W        W44778   2.866   4.419   3.948  0.0766  0.0353 -0.0213
29310W        W44779  16.857  16.402   4.794  0.2308 -0.3648  0.0878
29311W        W44780   5.395  11.880   3.751  0.2861 -0.3359  0.0575
29312W        W44781   0.110   4.035   4.096  0.0075 -0.1040 -0.0704
29313W        W44782  14.927   8.520  10.506 -0.1104  0.2059 -0.2027
29314W        W44783   4.979  15.664   0.951  0.3805 -0.1009  0.2367
29315W        W44784   1.899  10.296   1.541  0.0749 -0.2022  0.0945
29316W        W44785   6.404  12.356  16.173  0.2475  0.2096 -0.0665
29317W        W44786  14.562   7.578  14.978 -0.4004 -0.0852 -0.0255
29318W        W44787  12.293   0.693   5.190 -0.0966  0.2941  0.3730
29319W        W44788  14.051  11.631   0.300 -0.0659 -0.1303  0.0809
29320W        W44789   9.511   8.524  13.544  0.0624  0.2664  0.0178
29321W        W44790  12.521   2.960   2.542  0.0908  0.1658 -0.1441
29322W        W44791   4.083  13.455   1.642  0.0082 -0.3257  0.0217
29323W        W44792   0.197  11.558  11.209 -0.0835  0.0849  0.1195
29324W        W44793  14.366   9.671  13.084  0.0706 -0.0293  0.1095
29325W        W44794   5.421   5.001  14.329  0.1812 -0.0861 -0.2447
29326W        W44795  15.939   5.857  12.692 -0.0669  0.0326  0.2800
29327W        W44796  15.660   0.752   2.797  0.2496 -0.0803 -0.1975
29328W        W44797   5.376  11.373   2.933 -0.2186 -0.1585  0.2319
29329W        W44798   0.603  10.065  14.433 -0.1070 -0.1097  0.3448
29330W        W44799   6.870   9.142   3.332 -0.0281  0.0044 -0.0176
29331W        W44800   3.635  16.631   0.557  0.0978 -0.1730  0.2798
29332W        W44801   1.637   1.289  13.747 -0.0397  0.3028 -0.0250
29333W        W44802   0.321  17.696  16.282 -0.1737  0.2173 -0.0700
29334W        W44803   0.582   5.836   4.489  0.3458 -0.0449 -0.2119
29335W        W44804   3.076   0.918  15.599  0.2804  0.0922 -0.0413
29336W        W44805  17.190   6.823  11.376 -0.2654 -0.0727 -0.2476
29337W        W44806   6.338  15.823  10.225  0.0688  0.0053  0.0802
29338W        W44807  16.540  10.693   0.967 -0.1506  0.0533 -0.0352
29339W        W44808   3.700   4.258  12.858  0.0498 -0.0041  0.0203
29340W        W44809  14.955   8.363   6.320 -0.1331  0.1182  0.1809
29341W        W44810  11.260   9.144  12.485 -0.0924  0.1480  0.0663
29342W        W44811   1.251   4.043   4.657  0.1401 -0.1583 -0.1533
29343W        W44812  10.755  11.971  14.930 -0.0026  0.3486  0.0640
29344W        W44813  15.476   6.115  13.648  0.0264 -0.1468  0.2778
29345W        W44814   7.782  10.824  12.878 -0.3357 -0.0634 -0.1818
29346W        W44815  16.981   2.869  14.049 -0.3200 -0.1128 -0.2313
29347W        W44816  15.653   3.099   5.723  0.0912 -0.0027  0.1387
29348W        W44817   6.227  13.175  13.711  0.2005 -0.0429  0.3252
29349W        W44818   0.412   0.962   0.318 -0.3967 -0.1551  0.2336
29350W        W44819   1.713   2.522   4.658  0.0009  0.0529 -0.0631
29351W        W44820  12.867   6.506   3.713 -0.0902  0.1972 -0.4670
29352W        W44821   8.789  13.813   3.908 -0.0722  0.1768 -0.2990
29353W        W44822  10.236   7.473  13.752  0.0160 -0.2699 -0.1029
29354W        W44823   5.749   5.049  13.830  0.1026 -0.0045 -0.0897
29355W        W44824   2.987  10.898  11.679 -0.1701 -0.1266 -0.2165
29356W        W44825   2.785   6.600  12.788  0.2234 -0.0276  0.0378
29357W        W44826  17.322  12.976  16.065  0.2133 -0.3582 -0.0615
29358W        W44827  13.663  13.140   3.470  0.0255  0.0446  0.1851
29359W        W44828   3.246   8.140  14.975 -0.1842 -0.1416 -0.0234
29360W        W44829  12.846   1.742   5.230 -0.0736  0.1243 -0.1276
29361W        W44830  18.011   5.817  11.814 -0.3031  0.0256 -0.0635
29362W        W44831  13.757  12.683  15.369  0.1166  0.1469 -0.0407
29363W        W44832   0.648  12.693  12.244 -0.1624 -0.0434  0.2303
29364W        W44833   7.495   1.042  15.313 -0.1551  0.1284  0.0383
29365W        W44834   8.279   8.628   3.637 -0.3080 -0.1150  0.1610
29366W        W44835  11.073  12.626  15.146 -0.0254  0.1073 -0.1613
29367W        W44836  11.283   1.629   2.357  0.1208 -0.0560 -0.3045
29368W        W44837   7.746  17.628  13.451 -0.0068  0.0540  0.4485
29369W        W44838   1.843  17.426  13.112 -0.2081  0.1492  0.1345
29370W        W44839   0.749   2.330   1.285 -0.2815 -0.2056 -0.0047
29371W        W44840   1.846  12.762   1.783 -0.1233  0.0179 -0.0493
29372W        W44841  14.652   0.325   3.477  0.2593 -0.2430 -0.3086
29373W        W44842   1.715   7.747   0.672 -0.3040  0.0567 -0.0738
29374W        W44843  15.239   9.398   2.882  0.2678 -0.3027 -0.0299
29375W        W44844   7.208   6.344   2.898  0.0876  0.1429  0.2339
29376W        W44845   5.269  10.948   2.664  0.0190  0.1190  0.2132
29377W        W44846   9.912  13.074  11.993  0.0242 -0.1937 -0.0176
29378W        W44847  12.917   1.202  15.564  0.1625 -0.0394 -0.2723
29379W        W44848  10.418   8.832  13.519 -0.0846 -0.0575  0.1653
29380W        W44849  15.514   3.406   2.369  0.0789 -0.3438  0.1054
29381W        W44850  13.332  15.193  13.761 -0.3486  0.0998  0.0344
29382W        W44851   8.405  12.755   2.908 -0.0934 -0.0265 -0.5364
29383W        W44852   2.522  10.900  11.474  0.2003 -0.3179  0.0063
29384W        W44853  12.136  10.469  12.550 -0.0454  0.1290 -0.1365
29385W        W44854  14.591   6.219   2.885 -0.2089 -0.0195  0.1749
29386W        W44855   8.050  10.585   3.016  0.3314 -0.1218  0.0119
29387W        W44856   0.016  10.916   3.179  0.0857 -0.0688 -0.1121
29388W        W44857   9.657  15.289   4.840 -0.1771 -0.2317  0.0698
29389W        W44858   0.073   4.600  14.228  0.1445  0.0972 -0.0940
29390W        W44859   1.412   1.914  11.997  0.2268  0.2827 -0.0884
29391W        W44860   8.038   3.172  13.158  0.1418  0.4371 -0.0789
29392W        W44861  14.368   8.156  14.259  0.0044 -0.1612  0.2548
29393W        W44862   9.968   0.843   3.074 -0.0228 -0.0115  0.0541
29394W        W44863   8.942  13.918  13.585  0.0664  0.0821 -0.1066
29395W        W44864   5.467  15.367   5.485  0.0434  0.1920  0.0799
29396W        W44865   4.969  16.404   2.007 -0.0508  0.2385  0.1542
29397W        W44866  13.959  11.364  13.183  0.1102  0.2670  0.0009
29398W        W44867   5.583   9.134   0.819  0.1583 -0.2724  0.1192
29399W        W44868  12.235  15.706   3.653  0.1559  0.0912 -0.1997
29400W        W44869  14.118   1.950   3.302 -0.0933  0.1496  0.1905
29401W        W44870  13.956   3.780   1.227  0.2609 -0.1979  0.3763
29402W        W44871  10.088   8.681  14.854 -0.3169 -0.0229 -0.0905
29403W        W44872   3.695   5.276  11.150 -0.0059  0.0929  0.1081
29404W        W44873  16.531   2.592  15.474  0.0155  0.1552 -0.1027
29405W        W44874  12.969   0.979   3.209 -0.1511 -0.1297  0.0541
29406W        W44875  17.468  11.087  15.975  0.0682  0.2009  0.0897
29407W        W44876   2.868   4.384   2.983 -0.1132  0.4474  0.0266
29408W        W44877   4.209   3.260   0.401 -0.0464  0.3188  0.1198
29409W        W44878   9.195  10.690   4.444  0.1574  0.0348 -0.0552
29410W        W44879   6.868  17.809  13.082  0.0142  0.1898  0.0358
29411W        W44880   6.223  10.015   1.532  0.0594  0.1646 -0.1834
29412W        W44881  11.018   7.944  14.679 -0.2697 -0.0585  0.2129
29413W        W44882   8.403  15.031   1.658 -0.0146 -0.3200  0.1584
29414W        W44883  17.787  15.980  11.240  0.2043  0.1378  0.1503
29415W        W44884   2.108   7.892   4.998  0.0615  0.0649  0.2383
29416W        W44885  14.333   1.773  15.651 -0.0559  0.0555  0.3594
29417W        W44886   2.337  14.437  12.372  0.2655 -0.0430  0.1496
29418W        W44887   5.439   6.112   1.472 -0.0413 -0.1368  0.0608
29419W        W44888   0.964  10.895  11.143  0.0999  0.2145 -0.0223
29420W        W44889   0.458   4.167   5.267 -0.0652 -0.2488 -0.0433
29421W        W44890  15.914  13.814   5.188 -0.2549 -0.2372  0.1860
29422W        W44891   6.255  13.641   0.172 -0.0500 -0.2553 -0.2560
29423W        W44892  14.482   6.693   0.918 -0.0288  0.1101 -0.1143
29424W        W44893  11.069  12.710   2.859 -0.0801  0.0888 -0.2079
29425W        W44894   1.462   1.913   5.341  0.0083 -0.1901 -0.1742
29426W        W44895  16.651   2.478  14.357 -0.4901 -0.1020 -0.1674
29427W        W44896  11.388  15.412   4.611  0.2308 -0.0475 -0.0971
29428W        W44897  12.210   5.125  12.850  0.1339  0.0165 -0.1727
29429W        W44898  14.075  14.583  14.069  0.0561  0.1129 -0.3126
29430W        W44899  10.400   0.055  15.125  0.3106 -0.0409  0.1328
29431W        W44900  12.022   7.890  13.239  0.1102 -0.1463  0.2552
29432W        W44901  13.974  15.115  14.703  0.2927  0.0787 -0.0265
29433W        W44902  13.316  16.491  12.158 -0.1910 -0.1905  0.1632
29434W        W44903  10.343   5.385  11.459  0.2071 -0.0809 -0.1296
29435W        W44904   3.925   5.510  12.243  0.0763 -0.2185  0.0639
29436W        W44905   0.969  10.632  16.130 -0.1294  0.1162  0.0806
29437W        W44906  13.756  13.337   4.311 -0.2025 -0.0512  0.0973
29438W        W44907  11.932   8.036  16.272 -0.0393  0.1593 -0.1981
29439W        W44908   3.514   9.670  12.734  0.0421  0.0409 -0.0512
29440W        W44909  16.907   9.054  14.476 -0.3970 -0.4047 -0.0603
29441W        W44910   6.063   1.690  15.448 -0.3330  0.0949 -0.1684
29442W        W44911   9.125   5.534   4.930 -0.0113  0.0359  0.1049
29443W        W44912   3.684   8.174   4.039  0.3271 -0.0852 -0.1143
29444W        W44913  10.059   0.286   5.826 -0.0097 -0.0739  0.0281
29445W        W44914   1.644   8.410  10.766 -0.0399 -0.1134 -0.1322
29446W        W44915   7.523  17.698   0.708  0.2412  0.2563 -0.0760
29447W        W44916   2.175  12.574   1.391 -0.0157 -0.2908  0.3106
29448W        W44917  14.288  11.264  13.599 -0.1377 -0.2104 -0.1659
29449W        W44918  12.693   8.538  13.725  0.1170  0.0599  0.1564
29450W        W44919   6.265  14.154  13.699  0.0024 -0.0620  0.2298
29451W        W44920  10.650   9.988   1.265  0.0128  0.2045 -0.2403
29452W        W44921  14.660  13.237   2.722 -0.1132  0.0272 -0.2416
29453W        W44922  10.903  17.233   6.686 -0.0679 -0.1792 -0.0820
29454W        W44923   6.365  10.393   1.866  0.1596 -0.0697  0.0655
29455W        W44924   2.600  16.917  11.444  0.1250  0.0282  0.0870
29456W        W44925  15.240   8.713   1.824 -0.1125  0.5046 -0.0442
29457W        W44926  16.791  14.532   4.302  0.1515  0.1839 -0.0900
29458W        W44927  17.710   6.788   0.398  0.0310 -0.0448 -0.0250
29459W        W44928  15.170   2.557  14.257  0.3259  0.1593 -0.3232
29460W        W44929  15.008  12.958   2.445  0.0212 -0.3835  0.1597
29461W        W44930  12.525   6.758  14.867 -0.0604 -0.2728 -0.1049
29462W        W44931   9.258  14.853   1.232 -0.0585  0.1112 -0.0219
29463W        W44932  14.424   0.979  11.988  0.0290 -0.0841 -0.0902
29464W        W44933   7.201  17.896  12.231  0.1783  0.3479  0.0543
29465W        W44934   8.860   9.379   3.931 -0.0831 -0.0998  0.0950
29466W        W44935  13.904   0.435   3.170  0.2264 -0.1380  0.1451
29467W        W44936   2.011   4.890  14.611  0.1710 -0.0204 -0.1790
29468W        W44937  17.937  17.172   4.362 -0.2829  0.3059 -0.2077
29469W        W44938  13.404  10.203  15.986  0.0376  0.1195 -0.1961
29470W        W44939  17.672  10.814   2.014 -0.2526  0.0764  0.1810
29471W        W44940  17.609  14.539   2.765 -0.1289  0.2537 -0.1040
29472W        W44941  10.817   5.074  15.936  0.0057 -0.2401 -0.1521
29473W        W44942   3.985   6.281  11.952  0.1644  0.0063  0.5184
29474W        W44943   4.881  17.118  11.755  0.0755  0.1195  0.0638
29475W        W44944   7.186   0.871   2.995 -0.1713 -0.0001 -0.1166
29476W        W44945   9.116  11.881   5.341 -0.0060  0.0752  0.0905
29477W        W44946   2.638   4.163   4.375  0.1373  0.0607 -0.1631
29478W        W44947   4.562   2.608  12.941  0.1281 -0.0409 -0.2264
29479W        W44948  15.256  14.562  14.169 -0.3770  0.1147 -0.1122
29480W        W44949   8.618  10.907  14.209  0.3029  0.1062 -0.0715
29481W        W44950  12.715   1.712  15.793 -0.1161  0.0271  0.1593
29482W        W44951  12.249  12.766   5.738 -0.0065  0.1110  0.1388
29483W        W44952  12.803  14.636   1.208 -0.1220  0.0844 -0.3333
29484W        W44953   7.482  10.943   3.871 -0.0973  0.1309 -0.0756
29485W        W44954  12.967  15.285  14.625  0.2468  0.1350 -0.1725
29486W        W44955  18.090  17.326   2.008 -0.0093  0.2044  0.2136
29487W        W44956  10.185  17.244  11.564 -0.3956  0.2593  0.1250
29488W        W44957   0.804   5.569  15.799  0.1716 -0.1625  0.0450
29489W        W44958  13.438   9.499  12.057  0.2739 -0.1277 -0.1470
29490W        W44959  10.502   0.980  15.463  0.2485 -0.0026  0.0367
29491W        W44960   4.338   4.069   0.960 -0.1467  0.0809  0.1181
29492W        W44961   7.241  17.104   4.791  0.3043  0.0607 -0.0170
29493W        W44962  10.666  15.570  11.552 -0.1490 -0.1893  0.2470
29494W        W44963   2.643   7.092   3.741  0.3178 -0.1138 -0.2108
29495W        W44964   1.109  14.688   0.855  0.1877 -0.1940 -0.2839
29496W        W44965   3.160   6.410   4.221 -0.2919  0.0660  0.1009
29497W        W44966  14.747  11.591  12.532 -0.1898  0.0211  0.0588
29498W        W44967   1.382  14.062  12.769  0.1495 -0.0634 -0.3244
29499W        W44968   8.043   8.862   4.443 -0.1238  0.1013  0.0880
29500W        W44969   1.543  12.395   2.705 -0.1617 -0.0733 -0.3417
29501W        W44970  16.577   6.134   3.699 -0.1901  0.1152  0.3291
29502W        W44971  17.565   4.028  12.751  0.0500 -0.0344  0.3026
29503W        W44972   7.284   1.503  14.617  0.0218  0.0011 -0.1435
29504W        W44973   0.695   6.330  12.003 -0.2278  0.5481 -0.0653
29505W        W44974  15.433  10.447  12.895 -0.2161  0.0512  0.1467
29506W        W44975   6.427  11.026  13.852  0.1574  0.0945 -0.1174
29507W        W44976  16.130  14.428  16.115 -0.1804  0.2296 -0.2823
29508W        W44977   7.860   4.121  12.110  0.1951  0.1444  0.2684
29509W        W44978   5.438   7.822  13.851 -0.3063 -0.2625  0.2250
29510W        W44979  12.687  11.272   0.474  0.1770 -0.2249 -0.3678
29511W        W44980  17.001   8.060   0.117 -0.0016 -0.1537 -0.0739
29512W        W44981   0.820  15.797   4.782 -0.1708  0.3279  0.1728
29513W        W44982  10.354   7.750   4.692  0.1910  0.1232 -0.1328
29514W        W44983  10.951  15.727  11.139  0.0730 -0.1240  0.2926
29515W        W44984   2.604  14.947   3.212  0.0720  0.2131  0.1093
29516W        W44985   1.562   0.292   0.091  0.0851 -0.0008  0.0630
29517W        W44986   9.153  16.079   0.606 -0.1092  0.0183 -0.0001
29518W        W44987  14.426   9.468  14.548  0.2220 -0.1988 -0.1456
29519W        W44988  10.855  15.311  14.424 -0.0984 -0.0365  0.0332
29520W        W44989  15.166   1.436  12.212  0.0321 -0.0511  0.0288
29521W        W44990  11.525   6.473   5.138  0.3249  0.0288 -0.2463
29522W        W44991   8.393  10.910   2.226  0.1956 -0.0768 -0.0559
29523W        W44992   5.380  10.675   4.671 -0.3335  0.0037  0.0459
29524W        W44993  13.737  15.896  13.707  0.0644  0.1026 -0.0781
29525W        W44994   1.055  12.113   1.203  0.1009  0.1325  0.1341
29526W        W44995   5.633   7.641   0.742 -0.1191  0.1916  0.0327
29527W        W44996   8.211   2.886  12.644  0.2474 -0.0037  0.1429
29528W        W44997  14.567  13.774   0.503  0.1531  0.0675  0.0283
29529W        W44998   1.958   0.884  13.706 -0.0286  0.0288  0.1497
29530W        W44999  16.364  16.882   0.382 -0.0771 -0.0956 -0.0045
29531W        W45000  11.671   6.041   1.367 -0.1470 -0.3195 -0.2751
29532W        W45001   6.088  16.400  13.117  0.0362  0.0566  0.0022
29533W        W45002  17.201   8.138   4.682 -0.1397 -0.0481  0.0417
29534W        W45003  15.319  14.492   2.947 -0.1502 -0.1728 -0.1569
29535W        W45004   1.907   6.155   3.396 -0.0697 -0.0222  0.2052
29536W        W45005  10.380  17.890   0.716 -0.1164  0.1328  0.0658
29537W        W45006  14.950   5.915   3.600 -0.1135  0.0002 -0.3339
29538W        W45007  16.015   3.434   1.999 -0.1181 -0.0153  0.2349
29539W        W45008  10.687   1.843  12.725  0.1170 -0.2120  0.0831
29540W        W45009  12.108  12.608  15.998 -0.0712  0.2458  0.0747
29541W        W45010  14.215  17.830  14.440  0.0468 -0.0251 -0.1114
29542W        W45011   6.074  16.367   3.225 -0.0704  0.2608 -0.1611
29543W        W45012  16.323  14.308   1.611 -0.0455  0.3574 -0.0765
29544W        W45013  14.891  13.246  16.036  0.2051 -0.0705  0.0872
29545W        W45014   3.924  11.251  16.024 -0.2627  0.2008 -0.0612
29546W        W45015  13.708  11.732   0.682  0.0864 -0.2227  0.2238
29547W        W45016   3.935  14.191   1.801  0.1192  0.0465 -0.3272
29548W        W45017  16.808   6.235   3.214 -0.0018 -0.0636  0.2752
29549W        W45018  16.961   2.311   2.084  0.3027  0.0012 -0.2752
29550W        W45019  12.171   1.124   5.354  0.3577 -0.1854  0.0538
29551W        W45020   2.879  13.526  13.110  0.0459 -0.0333  0.1374
29552W        W45021  12.144   7.789   0.786 -0.0982 -0.0212  0.0351
29553W        W45022   6.741   3.237  11.240 -0.1503 -0.2299 -0.1611
29554W        W45023  11.337  16.167   2.435 -0.1398  0.1815  0.2978
29555W        W45024  13.276  17.498  14.377  0.3237 -0.1857 -0.1560
29556W        W45025   2.121   2.625  14.244 -0.2107 -0.0159  0.0159
29557W        W45026   2.275  17.608  13.399  0.2444  0.4566 -0.1270
29558W        W45027   6.080  17.165  12.737 -0.0768 -0.0148  0.1969
29559W        W45028   6.694   2.480  13.431 -0.1177  0.1935 -0.1567
29560W        W45029   3.821   0.992   0.535 -0.0679 -0.1010 -0.1735
29561W        W45030   0.447   2.854   0.115 -0.0770  0.2620  0.1569
29562W        W45031  14.096  14.417   3.185 -0.0139 -0.0852 -0.1048
29563W        W45032  13.931   1.396   3.234  0.2532 -0.0136 -0.0435
29564W        W45033   8.400   9.117  12.389 -0.1379 -0.2832 -0.1559
29565W        W45034  14.063   1.696   2.840 -0.0699 -0.0522  0.2031
29566W        W45035   9.693  15.063   4.035 -0.1599 -0.2382  0.2190
29567W        W45036  17.970  14.914  14.579 -0.0830 -0.0910 -0.4450
29568W        W45037  15.489   5.950   1.386  0.1076  0.1338 -0.0356
29569W        W45038  12.406  17.048   2.789  0.0932 -0.0269 -0.2805
29570W        W45039   2.580   3.000  16.157  0.1489  0.2482 -0.1021
29571W        W45040  15.596  12.511   0.026 -0.0172  0.3145  0.0040
29572W        W45041   6.742  11.172   1.541 -0.2758 -0.0792  0.1081
29573W        W45042  11.263   2.591   0.246  0.1053  0.4006  0.2675
29574W        W45043   3.931  14.769   3.217 -0.0901 -0.0206 -0.2104
29575W        W45044   3.257   5.080  10.979 -0.1906 -0.1526 -0.3311
29576W        W45045  13.196  14.850   2.755  0.2111  0.0575 -0.1452
29577W        W45046   4.887   2.861  13.785 -0.2484  0.0380  0.1921
29578W        W45047   5.157   7.732   1.297 -0.1336  0.2448 -0.2306
29579W        W45048  15.591  13.132  14.278  0.0938 -0.1694 -0.1120
29580W        W45049   1.920  17.362  14.639 -0.0804 -0.2859  0.0899
29581W        W45050   6.500  14.364  15.460 -0.0487  0.1012  0.0226
29582W        W45051  14.465   5.708   1.956  0.0379  0.1419 -0.0357
29583W        W45052  15.489   4.548  12.834  0.1443  0.0990 -0.0823
29584W        W45053   9.819   3.745  12.534 -0.2113  0.0298  0.2443
29585W        W45054  10.981  17.539  14.588 -0.1064  0.1294  0.0402
29586W        W45055  17.993  12.528  13.267  0.0743 -0.1358 -0.1687
29587W        W45056  16.854  10.832   2.593  0.0918 -0.0745 -0.1209
29588W        W45057  12.945   0.092  11.176 -0.4367 -0.0441 -0.1380
29589W        W45058   4.987   0.839   6.327  0.0589  0.1228  0.0443
29590W        W45059   1.682  10.666  11.805 -0.2157  0.4578  0.1565
29591W        W45060   0.405  10.656  12.368 -0.1438  0.2097  0.3026
29592W        W45061   1.238   0.705  12.081 -0.1914 -0.1474 -0.0316
29593W        W45062   5.271   4.858   1.005 -0.0127 -0.2270  0.0254
29594W        W45063   4.406  10.986  15.070  0.1337 -0.2251  0.0030
29595W        W45064   9.441   8.413  13.027 -0.1517 -0.1166 -0.0230
29596W        W45065  14.945  14.967   0.193 -0.0025 -0.0083  0.0999
29597W        W45066   6.152   4.587   4.119  0.0531  0.2852  0.2476
29598W        W45067   2.374   2.045   4.906 -0.0076 -0.0384  0.2046
29599W        W45068  17.406  10.402  12.855  0.2799  0.2347 -0.0457
29600W        W45069   7.149  13.309  15.685 -0.0964  0.4971 -0.0332
29601W        W45070  12.687  16.599   5.993 -0.3257 -0.0814 -0.1261
29602W        W45071   9.689   9.382  12.360  0.1433  0.2125  0.1999
29603W        W45072  13.818  10.891  14.616  0.0911 -0.1450  0.1713
29604W        W45073  16.830   1.594  15.746 -0.2305 -0.1167 -0.3846
29605W        W45074  15.655   8.937  11.997 -0.0760  0.1231  0.0778
29606W        W45075  15.083  14.236  16.282  0.0621  0.0284 -0.1072
29607W        W45076   3.068   9.644  12.600 -0.3103 -0.1298 -0.1501
29608W        W45077   9.357   5.965   5.253 -0.1395 -0.0158 -0.1142
29609W        W45078   0.522  10.889   3.268  0.0689  0.0850  0.0868
29610W        W45079  10.227   6.889   0.047  0.1384  0.0831 -0.0837
29611W        W45080   7.154   9.657   2.271  0.0087  0.0849 -0.2473
29612W        W45081   4.637   0.566   1.252  0.1924  0.2466  0.2195
29613W        W45082  14.891  14.476   0.349 -0.3461  0.0671  0.0031
29614W        W45083  17.866   6.855  12.043  0.0502 -0.5819 -0.3630
29615W        W45084  15.699   5.799  10.218  0.2858 -0.1680 -0.2159
29616W        W45085   4.063  16.324   1.854  0.1961  0.0797 -0.0293
29617W        W45086  13.628  12.115  13.402 -0.3268  0.0349 -0.1956
29618W        W45087   5.167   2.355   2.358  0.0501 -0.1704  0.1898
29619W        W45088  13.732   3.950  13.896  0.3105  0.0113 -0.0741
29620W        W45089   7.157  15.674  11.096  0.0495 -0.0741  0.2324
29621W        W45090  16.949   6.367  10.010  0.0852  0.3752  0.1534
29622W        W45091  10.930   7.710   5.961  0.0114 -0.1892  0.2041
29623W        W45092  16.153  12.650  13.563 -0.0850 -0.1541 -0.1356
29624W        W45093   8.894  17.707  15.702 -0.0987  0.2216 -0.0293
29625W        W45094   3.154   0.352  14.379 -0.1784 -0.2827  0.2971
29626W        W45095   6.431   9.614   1.266 -0.0199 -0.0573 -0.0401
29627W        W45096   6.039  13.185  14.175 -0.1202 -0.0965 -0.0099
29628W        W45097   5.143   8.474  15.505  0.0082  0.0413  0.1203
29629W        W45098  10.491   4.014   4.419 -0.3327 -0.0255  0.0515
29630W        W45099   8.875   8.432   3.739 -0.0711 -0.1349 -0.2369
29631W        W45100  14.942   2.692  12.611  0.0627  0.1210  0.0557
29632W        W45101   7.939  17.270   3.243 -0.1968 -0.2965  0.1553
29633W        W45102   8.895  11.755  12.810  0.2429  0.0633 -0.0468
29634W        W45103  11.087   9.445   4.140  0.2446  0.0228  0.0029
29635W        W45104   0.969  14.826  13.894  0.0431  0.0120 -0.0661
29636W        W45105   4.050   3.908   1.905  0.0308 -0.0683 -0.2234
29637W        W45106  16.021  13.815   0.180 -0.0618 -0.1301 -0.1982
29638W        W45107   5.473   9.498  15.166 -0.0791  0.3781 -0.0234
29639W        W45108  12.220   1.981   4.171  0.0740 -0.3181 -0.1093
29640W        W45109   4.677   2.812   1.228 -0.0249  0.1183  0.2366
29641W        W45110   1.956   3.733   2.976  0.0184 -0.0882 -0.0221
29642W        W45111  15.804   5.484   0.630  0.1535 -0.3381  0.1482
29643W        W45112   5.923   2.919  12.199  0.1073  0.3481  0.5287
29644W        W45113  17.660  12.118   0.893  0.2008  0.0792  0.0414
29645W        W45114   3.624  15.320   0.573  0.0128  0.0732  0.2504
29646W        W45115  14.339   5.976  12.868 -0.0255 -0.2855  0.0995
29647W        W45116   5.926  17.007  13.617  0.1203  0.2023 -0.1408
29648W        W45117  15.472   3.128   1.442 -0.0578 -0.0302 -0.0393
29649W        W45118  13.068  16.201  13.876  0.1963  0.1382  0.1431
29650W        W45119  15.427  13.792   5.215 -0.3003  0.0088  0.1248
29651W        W45120  16.283   7.178  11.485  0.1651 -0.4710  0.1551
29652W        W45121   6.855   7.791  12.790 -0.1596  0.1702  0.0069
29653W        W45122   8.276   4.803  14.473 -0.1647 -0.1842  0.0778
29654W        W45123   8.581  13.757  15.367  0.0422  0.1757  0.1232
29655W        W45124  12.146   4.217  12.964  0.4149 -0.0599 -0.1782
29656W        W45125  15.596  11.314   2.850  0.0389  0.0748 -0.1290
29657W        W45126  15.202  12.997  13.737  0.1588 -0.1521 -0.1254
29658W        W45127   9.438  13.179  12.887  0.0634  0.1014  0.1554
29659W        W45128  11.319   6.828   3.036  0.0244 -0.1080 -0.0522
29660W        W45129   0.581  14.132   4.565 -0.0532 -0.0703  0.5384
29661W        W45130   2.210  16.064   0.935 -0.1491  0.1130 -0.0035
29662W        W45131   3.754   7.291   2.149 -0.0812  0.1199  0.0176
29663W        W45132   6.158  12.516  14.751 -0.1795 -0.2126 -0.3330
29664W        W45133  14.321  10.756  14.437  0.0586 -0.1345 -0.0604
29665W        W45134  12.553  14.691  11.260 -0.3439 -0.0949  0.1551
29666W        W45135   2.554   0.988   3.880 -0.1306 -0.0681 -0.3808
29667W        W45136   0.963   1.982  16.156 -0.2460  0.1995 -0.0931
29668W        W45137  10.389   2.329   0.400  0.1814 -0.0340 -0.2882
29669W        W45138  11.243   6.750   3.589  0.0729  0.1262  0.1293
29670W        W45139  14.857   6.829  10.122  0.1115  0.1616 -0.1333
29671W        W45140   3.352   5.496  13.555 -0.0561 -0.0164  0.0379
29672W        W45141  11.178   9.876  13.493 -0.0282 -0.2499 -0.1521
29673W        W45142   2.691  16.878   1.890  0.2346 -0.0930 -0.2196
29674W        W45143   2.525  10.237  12.338 -0.2566  0.0945  0.2376
29675W        W45144  13.270  11.737   4.228  0.1326  0.1340 -0.2146
29676W        W45145   4.131  10.502   3.878 -0.4008  0.1632  0.2995
29677W        W45146  16.896   7.916  10.994 -0.1324  0.2180  0.1032
29678W        W45147  10.339   0.383  10.887  0.0120 -0.1372 -0.1792
29679W        W45148  14.411   1.070   4.720  0.0111 -0.0410  0.0438
29680W        W45149  17.211  10.613   2.171 -0.0475  0.2753  0.0611
29681W        W45150  13.766   0.720   4.842  0.2782 -0.0731  0.4207
29682W        W45151  14.733  16.691  15.662 -0.0378  0.0355  0.1643
29683W        W45152   2.906   3.949   1.473  0.0875  0.0968  0.0877
29684W        W45153  16.858   8.179   1.589  0.1017  0.1130 -0.0336
29685W        W45154  16.280  14.671  11.650 -0.0490 -0.2283  0.0159
29686W        W45155  17.274   4.747   2.297  0.0290  0.3154  0.1240
29687W        W45156   6.174  14.426  10.769  0.1796 -0.1008  0.3849
29688W        W45157  12.310   3.243   2.884 -0.2219 -0.0379 -0.0003
29689W        W45158   8.804  10.248  12.398 -0.0425  0.1368 -0.0604
29690W        W45159   0.392   1.235  15.262  0.0289 -0.2448  0.1661
29691W        W45160   8.823  17.799  13.603 -0.0375  0.1081  0.0375
29692W        W45161  15.441  10.525   1.217  0.0274 -0.1237  0.2499
29693W        W45162   7.142   5.991   1.392 -0.1352 -0.2709 -0.1647
29694W        W45163  13.149   9.231   1.981  0.2801 -0.2293  0.0671
29695W        W45164  14.720  15.962  12.923 -0.2307  0.1091  0.0817
29696W        W45165  10.812  10.000  11.397 -0.1167  0.1855 -0.0359
29697W        W45166  18.051   3.373   2.592  0.3089  0.1531 -0.1738
29698W        W45167  17.756  14.522  15.438 -0.0006 -0.0024 -0.1018
29699W        W45168  12.892  16.444  13.119  0.1539 -0.0646  0.1346
29700W        W45169  12.506  10.730  13.320 -0.1019  0.3626  0.0604
29701W        W45170  17.737  11.432  14.455  0.2321 -0.0758 -0.0297
29702W        W45171   1.333   8.834  15.012  0.2229  0.0670 -0.0254
29703W        W45172  11.115   2.957   5.674  0.1815 -0.1851  0.0579
29704W        W45173   8.968   7.456  15.962  0.3314 -0.1151 -0.0199
29705W        W45174   3.806  10.584   2.837  0.1889 -0.3398  0.1922
29706W        W45175  17.373  15.044   1.761 -0.5540  0.0508  0.0046
29707W        W45176   7.908  13.024   3.265 -0.5028  0.0399 -0.2099
29708W        W45177   0.255  17.714  14.349  0.0320  0.2297  0.1013
29709W        W45178   2.543   2.475   1.007 -0.0725 -0.1636  0.0432
29710W        W45179  13.539   7.199   1.227  0.0265  0.0658  0.4324
29711W        W45180   8.162  15.790  14.685 -0.0486  0.1712  0.0744
29712W        W45181   5.029  14.497   2.046 -0.1982  0.1437  0.0830
29713W        W45182   1.855  14.614  15.727  0.3892  0.1992  0.3770
29714W        W45183   3.419  17.397   3.768 -0.1184 -0.0946  0.2271
29715W        W45184   6.735   8.634   1.475 -0.0266  0.2907 -0.3393
29716W        W45185   3.163   4.398   0.512  0.0957  0.0538 -0.1487
29717W        W45186  17.470   4.174  11.359  0.1120  0.1770  0.3173
29718W        W45187  10.525   6.749  13.062 -0.1873  0.0656  0.1649
29719W        W45188  14.729   2.256  11.568  0.3184  0.0279  0.0689
29720W        W45189   1.452   3.289  11.459 -0.2209  0.2161  0.1111
29721W        W45190  17.436  16.690  15.840 -0.2370 -0.1680 -0.1432
29722W        W45191   2.470   2.413   1.971  0.0469 -0.3926 -0.2357
29723W        W45192  17.626  16.531  11.470  0.0064  0.1889  0.0428
29724W        W45193  16.198   6.511  16.232  0.1280  0.0007  0.1574
29725W        W45194  11.940   1.488  15.469 -0.3188 -0.0567  0.0131
29726W        W45195  11.121   5.043  12.740 -0.2081 -0.3628  0.2338
29727W        W45196   2.152  12.977   4.565  0.3691  0.0825  0.0617
29728W        W45197  11.456   5.241  12.363 -0.0406 -0.0868  0.0064
29729W        W45198   0.754  12.581   2.839 -0.0499 -0.1996  0.0612
29730W        W45199   4.580  11.291  12.673  0.2533  0.1940 -0.0452
29731W        W45200  11.121  13.845   4.446  0.2999 -0.0389  0.1990
29732W        W45201   0.847  13.650  13.684  0.1582 -0.1202 -0.1033
29733W        W45202   9.503   5.859   4.666  0.2502  0.1095 -0.0428
29734W        W45203   1.516   7.425   0.297  0.1320  0.3532  0.2227
29735W        W45204   8.650   5.190   4.793 -0.0085 -0.1781  0.0245
29736W        W45205   8.552  16.022   3.871 -0.2498 -0.2163 -0.3732
29737W        W45206  10.194   2.918  14.382  0.1573  0.3267 -0.1365
29738W        W45207   9.204   6.676  13.985 -0.0639  0.3390  0.0826
29739W        W45208  14.544  11.088   2.542  0.1981  0.0279 -0.0136
29740W        W45209   0.721  16.229   3.479  0.1424  0.0357 -0.3540
29741W        W45210   6.681   3.534  14.953  0.0704 -0.1283 -0.1550
29742W        W45211  17.546   3.598  10.502  0.0114  0.2751  0.2052
29743W        W45212  12.051  17.112  12.338  0.0424 -0.1033  0.4871
29744W        W45213   2.102  15.335   2.416 -0.0185 -0.0681  0.1155
29745W        W45214  15.061   2.516  16.185  0.1947 -0.0223 -0.0385
29746W        W45215   0.870   0.312   4.547  0.0565  0.4999 -0.2223
29747W        W45216   1.657  14.027   3.606 -0.0293 -0.0307  0.0554
29748W        W45217   3.969  17.904   4.349 -0.1627  0.0268 -0.0794
29749W        W45218   1.211  13.611  12.626  0.0851 -0.7171 -0.0573
29750W        W45219   3.780   0.418  16.103 -0.0288 -0.0274  0.0622
29751W        W45220  17.252  15.574   5.007 -0.2591  0.0969  0.0696
29752W        W45221  15.062   8.441  12.542  0.4080 -0.0093 -0.1797
29753W        W45222  12.702   5.496   4.592 -0.2115  0.0744  0.0916
29754W        W45223  15.262  16.848  12.433  0.1343 -0.2234 -0.1338
29755W        W45224   9.923   9.807  14.960  0.1407 -0.1650 -0.2929
29756W        W45225   9.297  14.787  11.296  0.0352  0.1437 -0.2667
29757W        W45226   4.712   1.964   3.227 -0.2148 -0.2077  0.0001
29758W        W45227  15.640  14.084   3.061  0.3530 -0.1296  0.1899
29759W        W45228  17.380   3.243   0.501 -0.2071 -0.2083 -0.0287
29760W        W45229   6.701   5.336   4.401 -0.3435  0.2170 -0.2303
29761W        W45230   7.901  16.333  11.089 -0.1689  0.0550  0.0104
29762W        W45231  17.148   7.680   1.647  0.0523  0.0307 -0.4305
29763W        W45232   8.822   9.227  11.131 -0.2549 -0.2236  0.2041
29764W        W45233   1.922  10.928  10.904  0.2008  0.1267 -0.1675
29765W        W45234  12.263  15.373   2.434 -0.0400  0.1280  0.0556
29766W        W45235   8.035  13.595  11.033  0.0429  0.1148  0.0087
29767W        W45236   7.915   8.404   4.027 -0.3226  0.0379  0.0243
29768W        W45237   4.817  16.983   0.630 -0.0922  0.2723 -0.2293
29769W        W45238  14.446   9.809   3.280  0.0462 -0.2294 -0.0564
29770W        W45239   1.382  11.544   4.102 -0.1259  0.0548  0.1714
29771W        W45240  13.564   3.242  13.686  0.4940 -0.3057  0.0218
29772W        W45241  17.709  14.254   4.298  0.0907  0.1958 -0.0358
29773W        W45242   3.368  16.722  14.547 -0.0942 -0.0658 -0.3122
29774W        W45243   9.133   8.731   2.992  0.2317 -0.1013  0.0447
29775W        W45244  15.449  13.361  15.447 -0.0100  0.1515  0.3001
29776W        W45245  17.267  11.837   0.560  0.1395 -0.0008 -0.3421
29777W        W45246  13.731   6.294   1.262 -0.0719 -0.0676  0.0314
29778W        W45247  13.359   2.915   1.419  0.4106  0.1964  0.0013
29779W        W45248   0.043  10.356  12.172  0.2079  0.2256 -0.2358
29780W        W45249   3.504  16.989   1.715 -0.0619  0.0504  0.3554
29781W        W45250   1.660  10.051   2.433  0.0617 -0.3078  0.0790
29782W        W45251  14.968   2.165   5.717  0.0882  0.0763 -0.0227
29783W        W45252   7.120  15.012   4.894 -0.0619 -0.2650  0.0432
29784W        W45253  16.173  15.071  15.006 -0.3301 -0.1201  0.1953
29785W        W45254  14.225   6.117   5.591 -0.0271 -0.1414  0.1440
29786W        W45255   5.794   1.664  12.361  0.0320 -0.0788  0.3866
29787W        W45256  10.943   4.745  14.478  0.0516  0.0949  0.0630
29788W        W45257  14.088   1.639   1.417 -0.2261  0.1579 -0.0141
29789W        W45258  11.056  12.034   3.486  0.2204  0.0793  0.0845
29790W        W45259  12.385  16.731   1.780 -0.0868  0.1437 -0.0655
29791W        W45260   5.091   6.091   4.723  0.2261  0.0104 -0.2162
29792W        W45261  12.237  11.687  16.023 -0.0606 -0.3158  0.3383
29793W        W45262   7.668   3.431   1.859  0.3191  0.2183 -0.0435
29794W        W45263  17.167   9.970  13.720 -0.2095  0.2414 -0.0004
29795W        W45264  12.161   0.025  12.789  0.2215 -0.0407 -0.3384
29796W        W45265  13.210  16.600  14.085 -0.0482 -0.2617 -0.0979
29797W        W45266   6.853   4.489  13.318 -0.0243 -0.2196  0.0941
29798W        W45267  13.391   0.416  12.731  0.1243  0.0632 -0.0676
29799W        W45268   4.123   2.201   5.147  0.1215  0.2403 -0.1613
29800W        W45269  13.616  16.646  11.259 -0.2048  0.1914  0.1139
29801W        W45270   2.432   1.625  13.959  0.1430 -0.3758 -0.0652
29802W        W45271   4.019   4.538   3.894  0.3376 -0.0552  0.2162
29803W        W45272   4.836  10.255  12.652  0.1529  0.2188  0.2014
29804W        W45273  12.455   1.645  11.574  0.1741  0.3048  0.0396
29805W        W45274   1.849  11.273   1.861  0.0596 -0.0865  0.2553
29806W        W45275   8.665  10.406   2.517 -0.0402  0.1162  0.0858
29807W        W45276   5.014  16.847   0.169  0.0210 -0.0393  0.0599
29808W        W45277   7.789   4.761  12.411  0.0149  0.0797  0.1843
29809W        W45278   5.677   1.237  12.603 -0.3331 -0.2252 -0.0519
29810W        W45279   4.292   5.152   1.064 -0.0439 -0.2471 -0.1089
29811W        W45280  16.197   0.761  12.492 -0.1560 -0.0233  0.0590
29812W        W45281   0.784   6.421  13.711  0.1941  0.1009 -0.2595
29813W        W45282   7.431  11.743   3.535 -0.0023  0.0453 -0.1326
29814W        W45283  16.681  13.348  16.068 -0.2129 -0.2088 -0.0900
29815W        W45284   2.927   1.350   4.813 -0.0656 -0.0092 -0.2577
29816W        W45285   1.281   0.734   0.186  0.1450  0.0592  0.0403
29817W        W45286   6.408  12.523  11.219  0.2001  0.3037  0.0505
29818W        W45287   2.955   0.581  13.122  0.0996 -0.1060  0.1250
29819W        W45288   0.973   4.066   2.862  0.0014  0.0665 -0.4566
29820W        W45289  17.846   9.180   5.490  0.0764  0.0122 -0.1603
29821W        W45290   1.175   5.616   3.195  0.0591  0.1735 -0.2274
29822W        W45291  13.030   9.268   5.767  0.0030 -0.0278  0.0131
29823W        W45292  13.931   7.792  12.056  0.0611  0.0727 -0.1581
29824W        W45293  10.214  11.350   5.124 -0.1334  0.0808  0.0286
29825W        W45294   8.825  14.357   5.321 -0.0417  0.1213  0.2329
29826W        W45295   3.745  15.882   4.143 -0.3318 -0.1771  0.2403
29827W        W45296   6.484  15.984  11.107  0.2923  0.2248 -0.0166
29828W        W45297  13.654  17.753  13.208  0.1077  0.0412 -0.0552
29829W        W45298   0.129   7.404   2.563 -0.4505  0.3500  0.0758
29830W        W45299   4.392  10.896  13.675 -0.3098 -0.0381  0.2404
29831W        W45300  15.181  11.424   3.855 -0.2298  0.2998  0.0011
29832W        W45301  14.274   7.695  12.467  0.0528  0.3391  0.0555
29833W        W45302   0.192   7.039   0.966 -0.2020  0.0601  0.0317
29834W        W45303  15.355   4.056  14.675 -0.0796  0.0238  0.0653
29835W        W45304  16.846  14.446  10.840 -0.1571  0.2100  0.1469
29836W        W45305   8.068  15.214  12.167  0.1239 -0.2781  0.3539
29837W        W45306   4.366   4.346  13.099 -0.2271 -0.0371  0.2609
29838W        W45307  11.856   7.398   2.506 -0.1418  0.2686  0.0405
29839W        W45308   6.616   1.543   3.794 -0.0825  0.1789  0.0023
29840W        W45309  12.069  12.608   4.535  0.1502 -0.3308  0.2017
29841W        W45310   5.043  15.461   3.720 -0.2230  0.0313 -0.3060
29842W        W45311   0.466  10.063   5.944 -0.0204  0.0723 -0.0944
29843W        W45312   0.661  16.779  12.964 -0.1215 -0.0352 -0.2268
29844W        W45313  15.980  17.166  11.410 -0.1195  0.2314  0.2501
29845W        W45314   9.882   2.429   3.314 -0.1462 -0.1393  0.1223
29846W        W45315  17.863  17.570  13.551  0.3786 -0.1145 -0.2572
29847W        W45316  17.002   1.128  13.796  0.0298 -0.1083  0.0726
29848W        W45317  14.373   1.916  14.955 -0.0105 -0.1239  0.1720
29849W        W45318   8.379   8.689  12.110 -0.0444  0.0089  0.0636
29850W        W45319  15.723  14.807   1.472  0.1858  0.1620  0.1600
29851W        W45320   4.434  12.272   1.826 -0.0338  0.1110  0.0702
29852W        W45321   0.815  13.532   2.886 -0.1025 -0.0144 -0.0802
29853W        W45322   7.238  15.569  12.209  0.1861 -0.2275  0.0135
29854W        W45323  10.039   3.338   4.952  0.0440 -0.0818  0.1976
29855W        W45324  14.660  15.263   0.632 -0.1376  0.1206 -0.2445
29856W        W45325  17.169  17.200   4.330  0.4296  0.1747 -0.1646
29857W        W45326   6.715   8.027   3.888 -0.2490 -0.0395  0.0419
29858W        W45327  18.064   8.522   0.036  0.2089  0.2798 -0.0111
29859W        W45328  13.377  16.103  16.016  0.1196 -0.0576 -0.2025
29860W        W45329  13.310  16.584   5.195 -0.1943  0.0849  0.2986
29861W        W45330  15.799   9.454   1.536  0.0695 -0.0616  0.2334
29862W        W45331  16.110   5.106   1.941  0.0309 -0.2674 -0.3519
29863W        W45332   1.229  13.760  15.250  0.1399  0.0177  0.2012
29864W        W45333  12.333  16.807  13.822 -0.2117 -0.0658  0.2742
29865W        W45334   8.085   8.253  11.446  0.1928 -0.0822 -0.2084
29866W        W45335  11.509   8.722  12.332 -0.0338 -0.0039 -0.0593
29867W        W45336  12.776  14.499   2.666 -0.1020  0.0899 -0.0899
29868W        W45337   5.470   1.383  14.480  0.1244 -0.2159 -0.0146
29869W        W45338  16.922   7.959  12.008 -0.2579  0.1321 -0.0281
29870W        W45339   3.082   3.725  14.290 -0.2527  0.0336  0.1706
29871W        W45340   6.255   5.001   4.622 -0.0771 -0.0445  0.0218
29872W        W45341  10.643  17.241  15.006 -0.1624 -0.0261  0.2038
29873W        W45342   6.702   0.675  15.294  0.1015 -0.0929  0.0442
29874W        W45343   7.789  14.765  12.133  0.3484  0.1085  0.1957
29875W        W45344   4.128   6.019  11.528 -0.0531  0.2602  0.1023
29876W        W45345  14.264  10.678  14.962 -0.1724 -0.0429 -0.3291
29877W        W45346  11.278   8.770   2.615 -0.0504 -0.3430 -0.0779
29878W        W45347   1.895  15.015   3.798  0.2114 -0.1485 -0.0396
29879W        W45348   6.339   4.483  11.783 -0.4316 -0.1660  0.0334
29880W        W45349  15.239   2.646   2.786 -0.1401  0.2782 -0.0652
29881W        W45350   6.155   4.193   0.968  0.5015  0.1024 -0.1326
29882W        W45351  11.627   5.507  14.801  0.1909 -0.1228  0.2734
29883W        W45352   4.670  15.720   5.041  0.3283 -0.0153  0.3166
29884W        W45353   9.003   1.425   1.467  0.3090 -0.1327  0.2301
29885W        W45354   6.509   3.392   1.013 -0.2189  0.0732  0.2726
29886W        W45355   3.242  11.962  12.721  0.2242  0.1425  0.2254
29887W        W45356  10.963  17.119   0.258 -0.1223 -0.1080  0.0280
29888W        W45357   0.467   1.325   3.702  0.1619  0.2507  0.1609
29889W        W45358   2.436  11.745   0.623  0.2456 -0.1212  0.2742
29890W        W45359  17.217  16.943  12.924 -0.1690  0.1242 -0.3345
29891W        W45360  15.582  12.614   0.976 -0.1232  0.0949  0.1421
29892W        W45361  11.959   8.229   0.805  0.0660  0.1505  0.0757
29893W        W45362   1.526   9.187  11.858  0.0490 -0.1439 -0.1988
29894W        W45363   7.664  13.854   2.503  0.0156 -0.0373  0.1748
29895W        W45364   5.945   8.677   4.259 -0.0382 -0.0101 -0.1459
29896W        W45365   2.402  15.221   3.894  0.1736 -0.1048  0.0297
29897W        W45366   2.624   1.006   2.417  0.1703  0.1352 -0.0834
29898W        W45367   9.850   8.363  11.634 -0.0896 -0.1888 -0.0299
29899W        W45368   1.499   8.221  11.292  0.0175  0.1551 -0.0574
29900W        W45369  10.948   0.492  12.873  0.0663 -0.1443 -0.1116
29901W        W45370   4.261   1.790   0.670  0.2821 -0.0779 -0.3676
29902W        W45371   4.525  10.082   3.280 -0.0932 -0.0822  0.0508
29903W        W45372  15.884   9.181   4.126  0.0262  0.0290 -0.0449
29904W        W45373   4.190  12.579  14.397 -0.2942  0.1870  0.1074
29905W        W45374  12.305  12.676  11.039 -0.3406  0.1010 -0.1163
29906W        W45375  10.380   5.119   3.353 -0.1321  0.1693  0.3824
29907W        W45376   4.967  11.105  12.385  0.0249 -0.2504 -0.0177
29908W        W45377   5.949   4.804  15.063  0.0640 -0.0142  0.1049
29909W        W45378   8.990  11.193   2.897 -0.0466  0.1950 -0.0711
29910W        W45379  13.077   6.064   2.893  0.0597 -0.1634  0.0142
29911W        W45380   4.823  12.961   2.766  0.1653 -0.2049  0.0085
29912W        W45381   8.168   7.214   2.430  0.1822  0.0990 -0.2016
29913W        W45382   9.339   1.566   3.808  0.0823 -0.2783 -0.0494
29914W        W45383  11.795  18.069  13.183 -0.1857 -0.2908  0.0305
29915W        W45384   1.861   8.808   1.333 -0.0361  0.0335 -0.0755
29916W        W45385  10.533  16.849   2.428 -0.0082 -0.0200  0.1050
29917W        W45386  10.228  17.295  15.218 -0.0002 -0.2790 -0.1884
29918W        W45387   1.035   1.776   3.345 -0.0050  0.0706 -0.0525
29919W        W45388   7.998   2.077  15.834 -0.1544  0.0476  0.1918
29920W        W45389  13.923  11.081   4.457 -0.3969  0.2811 -0.3686
29921W        W45390   3.594  11.205  11.276 -0.1714 -0.0730 -0.0806
29922W        W45391   3.779   6.358  12.572  0.0275  0.1803  0.0969
29923W        W45392  11.750   9.844   3.748  0.0760 -0.1967 -0.0197
29924W        W45393   3.871  11.749  13.405 -0.1051 -0.0510 -0.0424
29925W        W45394   2.698  10.877   5.708 -0.1465 -0.0298  0.1983
29926W        W45395   2.958   4.849  12.829 -0.2941  0.1612 -0.0885
29927W        W45396  15.701   3.630   1.306  0.0853 -0.0375 -0.2061
29928W        W45397  16.662  14.913   3.840  0.1656 -0.1879 -0.2389
29929W        W45398   2.576   9.678   3.752  0.0483 -0.2689  0.0233
29930W        W45399  12.838   8.999   3.956 -0.0913 -0.4131  0.0640
29931W        W45400  12.198   0.114  10.786  0.0095  0.1984  0.3489
29932W        W45401   3.597  14.742  12.274 -0.0012  0.1635 -0.0668
29933W        W45402   0.549   5.138  14.655 -0.0405  0.0350 -0.0533
29934W        W45403   6.816  11.630   0.153 -0.0669  0.0370  0.2063
29935W        W45404  15.802   4.487   5.512 -0.0330 -0.2864  0.1041
29936W        W45405   8.424   8.960   1.810 -0.0677  0.0081  0.3097
29937W        W45406   1.281  13.911  10.596 -0.1271  0.0573  0.1698
29938W        W45407   6.000   0.758  13.624  0.2786 -0.0994 -0.1511
29939W        W45408   7.576  15.146   1.745 -0.1502  0.4142 -0.2056
29940W        W45409  14.229  13.893   3.203  0.2426 -0.0197  0.0511
29941W        W45410   8.850   8.777  12.969 -0.0314  0.3241  0.0976
29942W        W45411   9.977   6.015  12.139 -0.2989 -0.0690  0.3057
29943W        W45412   4.541  10.037   4.650  0.3921 -0.0992 -0.3067
29944W        W45413   7.821   4.721  16.181  0.2184 -0.2846  0.0190
29945W        W45414   2.357   3.877   3.822  0.2217  0.1807 -0.0595
29946W        W45415  17.804   0.330  14.573  0.1932  0.2116 -0.2443
29947W        W45416  15.791   3.043   2.141 -0.0621  0.0035  0.1179
29948W        W45417  17.774   7.768   1.059  0.1200  0.0272  0.1639
29949W        W45418   7.641  15.639  11.335  0.1186  0.2898 -0.2501
29950W        W45419  13.688  10.139   5.021 -0.5477  0.1568 -0.0693
29951W        W45420  13.924  16.782   1.761  0.2106 -0.0409 -0.1933
29952W        W45421  10.537   9.685  12.218  0.0917  0.0047 -0.0407
29953W        W45422   7.816  11.932  13.287  0.1195  0.1177  0.0861
29954W        W45423  16.583   6.991  12.875 -0.0692 -0.1277  0.2916
29955W        W45424   9.639  16.767   4.009  0.2079 -0.3946 -0.0444
29956W        W45425  10.978   9.348  11.215  0.1113  0.0458 -0.0670
29957W        W45426  16.343   7.648  13.848  0.1855  0.0949  0.1826
29958W        W45427  11.440  15.112  15.406 -0.1772  0.0446  0.2064
29959W        W45428   4.611   5.132  16.133  0.2485  0.2584 -0.0209
29960W        W45429   1.179   3.860  14.822 -0.0946  0.1566 -0.2070
29961W        W45430  15.948   7.214  12.439 -0.0755 -0.1380  0.0032
29962W        W45431  11.181   3.491  11.527 -0.1089 -0.1638  0.1825
29963W        W45432  17.010  15.083  14.316  0.0580  0.0044  0.2922
29964W        W45433   1.394   7.003  10.993 -0.0497 -0.1541 -0.1727
29965W        W45434   9.119   7.263   1.246 -0.1338  0.2946  0.0349
29966W        W45435   6.369   7.705  13.297 -0.2207  0.0773  0.1870
29967W        W45436  13.436  16.849  11.769  0.0982  0.0100 -0.0136
29968W        W45437  13.554  10.259   0.152  0.1317 -0.2755  0.0890
29969W        W45438  13.263   0.472  13.586  0.0162  0.2238 -0.0128
29970W        W45439  17.442   4.680   3.412  0.0457  0.2796  0.1286
29971W        W45440  16.016  17.175   4.756  0.0332  0.0322  0.1354
29972W        W45441  15.274   8.958  14.662 -0.0178 -0.0224  0.1277
29973W        W45442  15.689   7.230  16.005 -0.0022  0.2616  0.1330
29974W        W45443   0.211  15.972   0.577 -0.1052  0.1405 -0.1818
29975W        W45444  11.940  14.802   3.281  0.0805  0.3169 -0.0835
29976W        W45445   9.272  11.661  14.961 -0.2256  0.2451 -0.1794
29977W        W45446   7.012   5.062   2.036  0.1557 -0.2224 -0.2661
29978W        W45447  11.019   2.360   3.875 -0.0144 -0.1857  0.1222
29979W        W45448   9.842  10.630  14.949 -0.2546 -0.1430 -0.0624
29980W        W45449   2.478   9.345   3.345  0.2246 -0.5538 -0.1189
29981W        W45450   8.104  11.034   4.682  0.0752 -0.3488 -0.1156
29982W        W45451   9.659  15.954  16.249 -0.1937 -0.2072  0.1946
29983W        W45452   1.670  15.262  15.119 -0.2093  0.0905 -0.2455
29984W        W45453   0.834  13.486   5.061 -0.1338  0.0656  0.0027
29985W        W45454  11.289  12.856   1.150 -0.2090 -0.0807  0.2025
29986W        W45455  15.491  15.233   1.252 -0.1016 -0.0477 -0.1987
29987W        W45456   7.276   1.126  14.237  0.1222 -0.3824 -0.2016
29988W        W45457   5.901  14.989   4.789  0.0078 -0.1024  0.0211
29989W        W45458   9.410  10.539  15.335 -0.0493  0.1256  0.6373
29990W        W45459  13.735   6.767  10.999  0.0151 -0.0592 -0.3530
29991W        W45460  11.927  17.346   4.167  0.0215 -0.2156  0.3537
29992W        W45461   0.411  14.239   2.479 -0.2734  0.1187  0.0156
29993W        W45462  15.694   4.246  14.405  0.2098  0.0608 -0.0880
29994W        W45463  15.474   0.909   0.783  0.1167  0.2170 -0.0853
29995W        W45464  11.200   1.347  14.653 -0.0885  0.1426  0.0506
29996W        W45465   6.837   3.840   5.333  0.2349 -0.2300 -0.1247
29997W        W45466  15.307   0.716   4.116  0.2808  0.1201  0.0058
29998W        W45467  13.744   9.743   0.804 -0.0302  0.0244  0.1506
29999W        W45468   4.174   7.065  14.613  0.2394  0.2801 -0.1069
30000W        W45469   2.224  10.630   2.304  0.3515 -0.1520 -0.0962
30001W        W45470  14.077   6.837  11.384  0.2387  0.0263 -0.0751
30002W        W45471  17.785   4.728   2.079 -0.1848  0.2618 -0.3461
30003W        W45472  16.522   5.271   5.033 -0.3963 -0.2831  0.1399
30004W        W45473   9.081  14.876  12.174  0.0083 -0.0680  0.0658
30005W        W45474   6.940   0.777  16.044 -0.1746 -0.0971  0.0518
30006W        W45475   7.771   0.952  10.490  0.0445  0.0630  0.0281
30007W        W45476   8.902   2.226   0.572 -0.3280 -0.3685 -0.0168
30008W        W45477   7.864  12.197   1.709  0.0400 -0.0023  0.2708
30009W        W45478  12.065   3.595  14.805  0.1528  0.0802 -0.2450
30010W        W45479   1.729   8.900   5.014 -0.0357 -0.1211 -0.0539
30011W        W45480   4.315  15.696  12.129  0.0150  0.3575  0.0108
30012W        W45481   4.971   9.801  11.565 -0.1235 -0.0567 -0.0067
30013W        W45482  10.600   2.766   5.483  0.2601  0.2362  0.1073
30014W        W45483   6.218  12.200   0.831 -0.1118  0.0250  0.1227
30015W        W45484   3.039  16.667  12.643  0.2607 -0.2618 -0.2640
30016W        W45485  12.515  14.812  11.754  0.2057  0.1291  0.2720
30017W        W45486  13.398   3.102   4.742  0.0948  0.1874 -0.0398
30018W        W45487  16.893   2.412   4.118 -0.0641 -0.0108 -0.0611
30019W        W45488  15.286  13.402   4.867 -0.0590  0.0374  0.2052
30020W        W45489  17.875   8.178  10.476  0.2708 -0.0505 -0.0489
30021W        W45490   5.119   5.314   4.522  0.1242 -0.1002  0.2264
30022W        W45491  12.010   7.097   4.679 -0.0804  0.1641  0.4472
30023W        W45492  14.481   6.897  16.299  0.1245 -0.0166 -0.2531
30024W        W45493   7.303   0.315  11.338 -0.0133  0.1412 -0.1376
30025W        W45494  12.461   7.524  13.260  0.1355  0.1348  0.1381
30026W        W45495   9.173   4.925   5.445  0.2327  0.0833  0.0158
30027W        W45496   2.018  14.103  13.427  0.2459 -0.0984  0.1857
30028W        W45497  13.048   8.404   0.864 -0.0454 -0.1596  0.0485
30029W        W45498  10.845  11.365   1.470 -0.2315 -0.1966 -0.1362
30030W        W45499  15.170  15.084   5.920  0.0628 -0.0876 -0.0217
30031W        W45500   9.354   9.896   3.360 -0.1098 -0.2188  0.1475
30032W        W45501  13.568  11.188   4.068 -0.0880 -0.0797 -0.1579
30033W        W45502  14.919   3.395   4.341 -0.2638 -0.1804  0.0852
30034W        W45503   9.052   7.967  11.878 -0.1888  0.2413 -0.1540
30035W        W45504   9.528   3.371   0.608  0.1295 -0.3001 -0.0661
30036W        W45505   0.596  15.622  16.172  0.0032 -0.3226  0.0542
30037W        W45506   5.997  13.416   3.229 -0.0273  0.0882  0.1070
30038W        W45507  10.113  17.943   1.628 -0.2781  0.0775 -0.0197
30039W        W45508   0.274  10.671   3.784 -0.2438  0.1906 -0.0246
30040W        W45509  15.971  10.064  15.103  0.2030 -0.2848  0.0140
30041W        W45510   4.951   0.194  12.976 -0.0508 -0.1358  0.3387
30042W        W45511  12.846  13.324   0.082 -0.0713  0.1849  0.0765
30043W        W45512   6.440  11.531  13.610 -0.1824 -0.0865 -0.2615
30044W        W45513   6.187  16.679   1.879 -0.3882  0.1653 -0.0263
30045W        W45514  13.622   5.622   3.484 -0.1626  0.0363  0.1465
30046W        W45515   1.347  13.234   3.573  0.0938 -0.2100  0.1734
30047W        W45516   4.188   0.801   5.143  0.0437 -0.1788  0.0082
30048W        W45517  12.879   4.956   5.602  0.0613  0.1501 -0.0945
30049W        W45518   9.048   2.675   0.130 -0.0260 -0.0028  0.0707
30050W        W45519   5.114   0.465  12.606  0.1655 -0.2840  0.1468
30051W        W45520  14.012  12.071   4.961 -0.0463 -0.0106 -0.1769
30052W        W45521  12.528  17.975  11.435  0.1106 -0.1230 -0.3483
30053W        W45522   3.906  10.141   0.232  0.0340  0.0691 -0.0640
30054W        W45523  11.584  17.693   2.554 -0.1931 -0.2280  0.0030
30055W        W45524  15.156   0.597  11.424  0.1687  0.0270  0.0039
30056W        W45525  10.658  14.808  12.331  0.1769 -0.0331 -0.2769
30057W        W45526  12.658   8.209   4.604 -0.0497 -0.1691 -0.0169
30058W        W45527   9.896   2.741   4.226 -0.1370  0.0739  0.0357
30059W        W45528   0.663  12.401  11.789 -0.1205 -0.0344 -0.2504
30060W        W45529  14.310   2.738   2.305 -0.1506 -0.1054  0.0545
30061W        W45530   5.236  12.948  15.989 -0.0012 -0.1632  0.1151
30062W        W45531  14.819   8.722  15.489  0.3039 -0.0451 -0.0617
30063W        W45532   1.174  17.738   0.307 -0.2889 -0.3378  0.1172
30064W        W45533   8.333   4.786   0.651 -0.1660  0.0934 -0.1510
30065W        W45534   5.533  17.179   4.249  0.0082 -0.2357  0.0276
30066W        W45535  18.048   3.797  12.830  0.0512 -0.3566  0.2595
30067W        W45536   4.630   8.051  13.107 -0.3180 -0.0687 -0.0034
30068W        W45537   1.733  13.743  11.290  0.1011  0.1479  0.1483
30069W        W45538  16.102   5.082   0.777  0.0258  0.1513  0.1865
30070W        W45539  17.420   5.451  12.181  0.0334  0.2904 -0.0072
30071W        W45540   5.181  17.455  15.739 -0.0285  0.0238  0.0352
30072W        W45541  15.898   1.060  11.799 -0.2865  0.0469  0.3911
30073W        W45542   5.532  17.652   5.408  0.1430 -0.6106  0.1541
30074W        W45543   7.850  12.677  14.019 -0.2554  0.0436  0.0186
30075W        W45544   8.387   5.019   2.034 -0.2220  0.2819 -0.2441
30076W        W45545   6.508  12.943  14.918  0.0534 -0.2820 -0.1806
30077W        W45546   2.710   9.925   4.508  0.4447 -0.3434 -0.1316
30078W        W45547  15.566   6.221  15.592 -0.1146  0.1085 -0.0036
30079W        W45548   6.802  15.310  12.343  0.1521  0.4174  0.2866
30080W        W45549   4.413  10.964  11.226  0.2191  0.0381  0.0083
30081W        W45550   4.206   5.889  15.619  0.0755  0.1957 -0.0076
30082W        W45551   1.495  11.363   3.218  0.0615  0.1057  0.0306
30083W        W45552  13.989   4.146   1.646  0.0619 -0.1868  0.2176
30084W        W45553  17.722   7.029  12.537  0.0517 -0.1206 -0.2291
30085W        W45554  14.543   7.741   0.983  0.0570 -0.0431 -0.0638
30086W        W45555  17.144  16.726  11.503 -0.1701  0.3138 -0.3300
30087W        W45556  11.578   2.789   2.732  0.1902 -0.1245  0.2513
30088W        W45557   9.882   9.565   0.178  0.1149  0.1186  0.1371
30089W        W45558   6.999  14.848   2.469 -0.1987 -0.0910 -0.1250
30090W        W45559   7.058  16.264  13.972 -0.1233  0.0833 -0.0192
30091W        W45560   9.961  12.820   3.255 -0.1448  0.4320 -0.0288
30092W        W45561   0.963   8.245  13.355  0.1951 -0.3392 -0.3118
30093W        W45562  16.331   8.222   4.086  0.0122 -0.4859  0.3748
30094W        W45563  13.966  16.450  12.880 -0.1506 -0.0667 -0.1200
30095W        W45564  12.140  15.347   5.189 -0.2379 -0.0818 -0.1737
30096W        W45565  13.488   5.491   1.778  0.2635  0.1646  0.1227
30097W        W45566   3.672  17.664  15.876  0.3478  0.1157 -0.1028
30098W        W45567   7.998  14.235  14.357 -0.4095 -0.0534 -0.0124
30099W        W45568   3.379  12.551  11.398  0.0523  0.0142 -0.2303
30100W        W45569  11.183   8.327  11.990 -0.1292 -0.0154  0.1077
30101W        W45570   6.544   5.136   2.135  0.0032 -0.2781  0.1196
30102W        W45571   5.295   2.938   0.431 -0.0073  0.1794  0.1803
30103W        W45572   9.463   9.163  14.091  0.3143  0.1269  0.2027
30104W        W45573   8.739   6.275   2.853  0.1408 -0.4670 -0.0678
30105W        W45574   3.480  16.085  16.265 -0.0310 -0.1598  0.0426
30106W        W45575  12.713  14.703  15.520 -0.1842 -0.1741 -0.0904
30107W        W45576  14.344  17.837   2.864  0.2342  0.0609 -0.0402
30108W        W45577  17.163   0.736   3.136 -0.1607  0.0001 -0.0514
30109W        W45578   8.001   8.248   3.446  0.2450  0.1530 -0.3259
30110W        W45579  13.656  11.517   4.700 -0.1924 -0.0827 -0.4560
30111W        W45580  16.205  10.281   1.673  0.0877 -0.0595 -0.0276
30112W        W45581  17.155  11.929   5.469  0.1091 -0.0113  0.1587
30113W        W45582  15.916   2.932  15.467 -0.1190 -0.2291  0.0922
30114W        W45583   4.006  12.487   0.664  0.2423  0.1137  0.1386
30115W        W45584  12.058   9.301   3.010 -0.0266  0.4588  0.0722
30116W        W45585   1.083  11.852   0.183  0.1127  0.2837  0.2138
30117W        W45586   2.380   8.597  11.629  0.1247  0.2407 -0.1028
30118W        W45587  10.876   7.836  12.071 -0.0159  0.1184  0.1253
30119W        W45588  11.597   2.704   1.401 -0.0115 -0.0675  0.1241
30120W        W45589   2.292  10.986  12.818  0.0174 -0.0214 -0.3123
30121W        W45590   4.295   5.686  14.839  0.2763 -0.2223  0.0624
30122W        W45591  12.414   2.268   6.173  0.2699  0.2510 -0.0964
30123W        W45592  12.885   1.828  11.823 -0.1010 -0.0347  0.1884
30124W        W45593  10.271  10.202   0.866  0.2780 -0.1598  0.1492
30125W        W45594   5.975   7.207   0.405 -0.0072  0.0892  0.0801
30126W        W45595   5.589  14.725  13.507 -0.1655 -0.0909  0.1174
30127W        W45596   3.829   3.817  12.463 -0.2838 -0.1465  0.1502
30128W        W45597  15.615   0.608  13.358  0.1591 -0.1164 -0.0914
30129W        W45598   9.268  14.258  16.075 -0.1694  0.1186 -0.3021
30130W        W45599   8.111   5.105   4.632  0.1338  0.0854 -0.1607
30131W        W45600  13.508   1.655  12.300  0.2018 -0.1125  0.0216
30132W        W45601  14.585   9.318   3.389  0.0527 -0.3421 -0.1330
30133W        W45602  10.931   0.930  14.608 -0.6118  0.2625 -0.0326
30134W        W45603  12.744   8.120   4.109 -0.2457 -0.0420  0.0690
30135W        W45604   7.717   7.941   3.809  0.0439  0.0383  0.1221
30136W        W45605  12.473   2.573   1.908  0.1914 -0.1899 -0.1090
30137W        W45606   4.365  12.164   3.005 -0.2795  0.0695  0.0958
30138W        W45607   7.133  17.444   0.667 -0.0280  0.0299 -0.0605
30139W        W45608  17.593   9.865   4.271  0.0601  0.0947  0.1134
30140W        W45609  15.586  16.579   2.416 -0.0049 -0.0402 -0.1976
30141W        W45610   8.253   6.727   3.811  0.1399  0.0421  0.0622
30142W        W45611   3.839  11.446   2.246  0.0766 -0.0685 -0.4765
30143W        W45612   5.639   3.435  10.311  0.1706 -0.0533 -0.0873
30144W        W45613  16.956   5.395   4.322  0.2625 -0.0241  0.1504
30145W        W45614   1.514  10.698   1.119 -0.2192  0.0387  0.1841
30146W        W45615  15.223   6.544   4.665 -0.0205  0.1405 -0.0060
30147W        W45616   1.207  17.223   1.700 -0.0982  0.1060  0.0897
30148W        W45617   2.232   6.807   3.715 -0.3840  0.1643 -0.0401
30149W        W45618   8.031   5.737  13.987 -0.1889  0.1578  0.2222
30150W        W45619   8.243  13.727   1.620 -0.1672 -0.1273  0.1035
30151W        W45620   6.545   4.254   4.832 -0.0494 -0.1810 -0.2895
30152W        W45621   5.426   7.716   1.738 -0.0530  0.0075  0.2349
30153W        W45622   3.748  13.844  14.364  0.0864  0.0499  0.1249
30154W        W45623  10.807   8.084   0.052  0.1146  0.0650 -0.0729
30155W        W45624  17.351  15.237   0.017 -0.0077  0.2143 -0.0664
30156W        W45625  12.820  16.358   3.894  0.1914  0.0263 -0.4187
30157W        W45626  17.953  14.083  14.087  0.1516 -0.0173  0.1638
30158W        W45627   2.110   9.501   5.858  0.2902  0.0515  0.1125
30159W        W45628  13.159  17.804  15.916  0.0619 -0.0320  0.2290
30160W        W45629   4.000   3.544  13.819  0.2861  0.1161 -0.1439
30161W        W45630   5.671   5.220   4.769  0.3019  0.0252  0.0749
30162W        W45631  16.242   1.850   0.031 -0.2459 -0.0407  0.0625
30163W        W45632   9.943   4.549  13.322  0.0999 -0.2621  0.0874
30164W        W45633  15.461   0.935  14.203  0.1111  0.0930 -0.4522
30165W        W45634  13.809  17.276   1.731  0.0273  0.0529  0.0457
30166W        W45635  11.669   2.055  15.213  0.2031  0.2291  0.1865
30167W        W45636   7.385   4.939  13.991 -0.4591 -0.4142 -0.1453
30168W        W45637   5.527   0.826  11.840  0.0412 -0.2679 -0.0039
30169W        W45638  15.976   5.251  11.363  0.1194  0.0296  0.2419
30170W        W45639   4.040  10.937   3.054  0.0156  0.2522 -0.2700
30171W        W45640  16.371  16.183  11.800 -0.0463  0.1094 -0.1302
30172W        W45641   8.406  15.778   2.663  0.0616 -0.0759  0.1585
30173W        W45642   4.466  11.241   2.752  0.3415  0.0840  0.3818
30174W        W45643  12.498   2.012   0.701  0.1542  0.0483  0.1481
30175W        W45644   1.649   3.470   0.299 -0.0201 -0.0617 -0.0801
30176W        W45645   6.826   7.749  11.833  0.4252  0.0472 -0.0476
30177W        W45646  17.559  17.346   4.086  0.2286  0.0020  0.3545
30178W        W45647   3.062   1.827   4.075  0.0189  0.0745 -0.2682
30179W        W45648  17.753  17.704   1.780 -0.1032 -0.1124  0.1641
30180W        W45649  17.411  13.540   3.089 -0.1805 -0.1810  0.0486
30181W        W45650   1.723   7.860  11.849 -0.0094  0.0587 -0.2087
30182W        W45651   8.414  16.674  12.084 -0.0212 -0.1680  0.2339
30183W        W45652   5.180  15.968  13.084  0.2930  0.0855 -0.1345
30184W        W45653   3.400  13.374  14.553 -0.0146 -0.3607  0.2417
30185W        W45654  17.432  17.511   3.281 -0.0949  0.0736  0.0983
30186W        W45655  13.773   2.984   1.676  0.0640 -0.0623 -0.1607
30187W        W45656  17.091   9.968   3.467 -0.3593 -0.0314  0.0340
30188W        W45657  12.815   0.586   3.803 -0.2045  0.0572 -0.0353
30189W        W45658   4.562   1.523   1.549  0.1083  0.0069  0.0366
30190W        W45659   9.497   4.114   5.163 -0.3919 -0.2532 -0.2979
30191W        W45660  17.643   4.619  15.372  0.2405  0.2852  0.0688
30192W        W45661  13.268   6.173   3.931  0.0378 -0.1789 -0.1136
30193W        W45662  13.583  12.385   2.944  0.0323  0.1334 -0.2503
30194W        W45663   5.096  11.669   2.200 -0.0842  0.1460  0.0798
30195W        W45664   9.310  17.851  10.954  0.2118 -0.0358  0.1790
30196W        W45665  13.643   8.068  10.247  0.0030 -0.1662  0.3196
30197W        W45666   3.218   9.812   2.538  0.3293 -0.2676 -0.1734
30198W        W45667   6.288   2.774  13.042 -0.2692 -0.0269  0.0231
30199W        W45668   3.369   0.537   2.514 -0.2371 -0.0028  0.1206
30200W        W45669  17.799  13.745  11.337  0.0753  0.3661 -0.1693
30201W        W45670   8.345  12.871  13.041 -0.1472 -0.1675 -0.1282
30202W        W45671  13.191  17.524   3.785 -0.0951 -0.0383 -0.0120
30203W        W45672   5.090   9.079   3.315 -0.2384  0.0263 -0.0636
30204W        W45673   2.475   9.051  15.640  0.2032  0.0854 -0.1368
30205W        W45674   9.231   9.781   1.303 -0.1654  0.4506 -0.1072
30206W        W45675   7.194   2.923   5.408  0.0072 -0.3951  0.0447
30207W        W45676   4.046   9.115  15.145 -0.0494  0.1906 -0.1800
30208W        W45677  13.206  15.804  13.240  0.1178 -0.2760  0.1521
30209W        W45678  13.965   9.688   1.807 -0.2595 -0.0302 -0.0973
30210W        W45679  14.869  15.749  11.457  0.1222 -0.1250 -0.0803
30211W        W45680  10.471  12.264   5.174  0.3165  0.0608 -0.0097
30212W        W45681  14.950   4.141   2.213 -0.0178 -0.0402  0.1879
30213W        W45682   0.773   1.416   5.351  0.3005  0.2227  0.1210
30214W        W45683  17.743   2.671   4.141 -0.0339 -0.1466  0.0344
30215W        W45684  13.570   7.670  14.161 -0.0361  0.2011 -0.1359
30216W        W45685  16.787   1.073   3.196  0.0800 -0.1371 -0.1726
30217W        W45686   1.213   6.240   1.823 -0.2485 -0.1266 -0.1477
30218W        W45687   1.847  16.389  15.397  0.0272  0.2398  0.3061
30219W        W45688  11.553   3.214   5.839  0.1114  0.1297 -0.0888
30220W        W45689   5.064   1.946  12.829 -0.3469  0.0405 -0.3715
30221W        W45690   7.695   9.486  12.867  0.1895 -0.1336  0.1066
30222W        W45691  11.138   7.439   0.738 -0.3040  0.1137  0.1720
30223W        W45692   8.141  15.955   0.768  0.1664  0.0951 -0.0119
30224W        W45693   8.483  10.650   4.549  0.2382  0.0544  0.0679
30225W        W45694   0.439   0.029  13.418 -0.2748  0.0553 -0.0389
30226W        W45695   2.520  17.264  13.706 -0.1604 -0.1523  0.0614
30227W        W45696  16.414  16.409   4.590 -0.0263  0.1136  0.2035
30228W        W45697   7.230   0.491  12.115  0.0964 -0.1056 -0.0499
30229W        W45698   5.918   6.952  11.904  0.0182  0.3674 -0.0284
30230W        W45699  10.971   7.931   2.816 -0.2263  0.0960  0.3064
30231W        W45700   7.671  11.868   0.004 -0.0378  0.1321 -0.3141
30232W        W45701  12.240  15.512  13.914  0.0564 -0.5180  0.0292
30233W        W45702   7.548   3.505   3.668 -0.2508 -0.4188 -0.0794
30234W        W45703   5.001  13.361  15.660  0.2702 -0.0195 -0.0515
30235W        W45704   6.833  13.248  14.589  0.1359 -0.0078 -0.3112
30236W        W45705  15.595   1.852  12.758 -0.1388 -0.0871 -0.1044
30237W        W45706   4.462   7.825  15.721  0.2310 -0.1723 -0.1217
30238W        W45707  13.078   2.370  13.483  0.3504  0.3170 -0.1884
30239W        W45708   9.082   1.808  14.234  0.1031 -0.1331 -0.1121
30240W        W45709  11.186   9.859   4.387  0.1708 -0.1380  0.2193
30241W        W45710   0.084   1.764  10.094  0.0828 -0.3286  0.2262
30242W        W45711  11.192  16.782   0.611 -0.2486 -0.1478  0.0032
30243W        W45712   6.377   6.213   5.329 -0.1390  0.1963  0.1849
30244W        W45713   1.529   0.030   5.103 -0.1550 -0.0969  0.2601
30245W        W45714   4.377  12.918  13.440 -0.4972  0.0787  0.0935
30246W        W45715   3.621   4.433   4.600 -0.0989  0.2456  0.2708
30247W        W45716  17.208   1.009  11.840  0.0375  0.1413  0.2346
30248W        W45717  12.773   6.682   1.719 -0.0236  0.1401  0.1328
30249W        W45718  15.412   2.828  12.514 -0.1913  0.1433  0.2869
30250W        W45719  11.640   2.224  11.917  0.2760 -0.1901 -0.2283
30251W        W45720   5.733   0.031   5.262 -0.0762  0.1956 -0.0695
30252W        W45721  10.330   4.570  11.434 -0.1510 -0.0129 -0.0073
30253W        W45722  11.254   6.617   2.414  0.0613 -0.0157 -0.0579
30254W        W45723  15.120   8.611   3.219 -0.0506  0.3191  0.1426
30255W        W45724  13.542   4.317   3.292  0.2768  0.0353  0.0979
30256W        W45725   9.652  14.419  10.305  0.1698 -0.0523 -0.1035
30257W        W45726   2.099   3.260   0.295 -0.0607 -0.2283  0.1876
30258W        W45727  14.439  13.101  12.720 -0.0118  0.0287 -0.2055
30259W        W45728  12.880   7.599  12.212  0.1038 -0.0253 -0.2563
30260W        W45729   7.753  15.597  12.390  0.0192 -0.0111 -0.1008
30261W        W45730   2.563   1.405  14.959 -0.0791  0.0809  0.0230
30262W        W45731   7.407  14.840  13.012  0.0048  0.0588  0.2084
30263W        W45732  14.858   8.369   0.492  0.2331 -0.0006  0.2635
30264W        W45733  16.798   0.606   2.266 -0.1543 -0.3090 -0.1199
30265W        W45734   1.626  15.217   5.578  0.2721  0.5369  0.1919
30266W        W45735   5.958  12.087  15.882 -0.0484  0.1848  0.3461
30267W        W45736   5.086   4.596  14.023 -0.2124 -0.2466 -0.0914
30268W        W45737  14.485  10.293   3.262  0.0568  0.0228 -0.2290
30269W        W45738   8.303  16.752   0.988 -0.1050  0.0475  0.1097
30270W        W45739   3.935   2.041  12.009 -0.0705  0.1535 -0.0156
30271W        W45740  14.631  16.683   2.525  0.1545  0.1517  0.3237
30272W        W45741  12.206   7.214   1.215  0.1325 -0.0060  0.2152
30273W        W45742  16.594  17.282   4.767 -0.1346  0.3092  0.2036
30274W        W45743  14.822  11.754  13.088 -0.0167  0.0162  0.2295
30275W        W45744  16.939  15.522  14.004 -0.2905  0.1543 -0.2718
30276W        W45745   4.291   0.245  13.013  0.2277  0.0102  0.0889
30277W        W45746   4.491  12.168   3.468 -0.1500  0.4488 -0.1612
30278W        W45747   3.719  15.232   3.253  0.1032 -0.0741  0.1555
30279W        W45748  15.740   4.869  16.149 -0.0317  0.0709  0.3713
30280W        W45749   0.865  15.190  12.700  0.2605  0.1828  0.0006
30281W        W45750  15.606   5.347  11.696 -0.2347 -0.2376 -0.0516
30282W        W45751  12.927   1.897   4.752  0.2420 -0.1973 -0.0193
30283W        W45752  15.687   9.220  14.008 -0.1500 -0.3156 -0.2395
30284W        W45753   2.883   8.054  14.602 -0.2044 -0.0682  0.0245
30285W        W45754  12.852   1.083   3.700  0.2368 -0.1866  0.2682
30286W        W45755  12.517  16.277   0.242  0.0648 -0.1595 -0.4588
30287W        W45756  10.958  14.600   0.996  0.3815  0.0874 -0.0302
30288W        W45757   7.277  17.559  13.102 -0.0993 -0.0098 -0.1013
30289W        W45758  12.849   0.050  15.782  0.0343 -0.0135 -0.2688
30290W        W45759  12.379  10.935  12.451  0.2104  0.0674  0.0251
30291W        W45760  11.568   5.545   5.222 -0.1606 -0.2311 -0.3588
30292W        W45761   6.045   5.673  14.952 -0.0203 -0.0676 -0.1005
30293W        W45762   1.990   3.648   4.016  0.0423  0.0692 -0.3191
30294W        W45763   6.162  16.431   0.852  0.3224 -0.0455 -0.2313
30295W        W45764  13.530   1.083   1.792 -0.1244 -0.2716 -0.0054
30296W        W45765   7.673  14.567  13.947 -0.1038  0.1885  0.0900
30297W        W45766   6.593   9.177   1.639 -0.0943  0.0450 -0.1889
30298W        W45767   2.981   3.408   1.407 -0.1204 -0.1249  0.2056
30299W        W45768   8.469  17.370  12.009 -0.0009  0.1368  0.0100
30300W        W45769   8.905   0.561   3.064  0.0506  0.0128  0.0377
30301W        W45770  14.652  10.895   0.570  0.2007 -0.0651 -0.2421
30302W        W45771  15.793   9.058  15.429  0.3418  0.0282  0.1040
30303W        W45772   6.667  15.541  10.965  0.1865  0.0350 -0.2470
30304W        W45773   8.066  11.044  16.117  0.0010  0.0414  0.1896
30305W        W45774   5.903   4.557  11.441  0.2759 -0.0724  0.0473
30306W        W45775  17.879  14.297   0.683 -0.3611  0.2263  0.4351
30307W        W45776  15.538   7.775  11.512  0.1342 -0.1867 -0.1458
30308W        W45777   2.767   9.634   1.539 -0.0236  0.2406 -0.0082
30309W        W45778   0.059  11.927   3.541  0.1707 -0.3208  0.2471
30310W        W45779   0.888   9.331   3.409 -0.0602 -0.1127 -0.0928
30311W        W45780   6.853  11.232  12.991  0.2344  0.0053 -0.2692
30312W        W45781   5.744   7.542   1.282 -0.0493  0.1182  0.0499
30313W        W45782  17.436  13.619  15.450 -0.2220  0.1550 -0.0862
30314W        W45783  16.928  11.643  13.494  0.1429 -0.2093  0.4783
30315W        W45784  16.104  10.181  11.691  0.2968  0.0655  0.3239
30316W        W45785   1.433   1.257  10.297 -0.0422  0.2461  0.0207
30317W        W45786   3.199   1.384   3.165  0.1484  0.1973  0.0984
30318W        W45787  10.678   9.585  14.162  0.0025  0.1591 -0.0979
30319W        W45788  14.158  12.896   6.116  0.3629  0.1323 -0.0547
30320W        W45789  16.189   7.499   4.037 -0.0122 -0.2381  0.0434
30321W        W45790   1.028  11.611   3.729 -0.2566 -0.0172 -0.0390
30322W        W45791  12.320  10.080   3.079  0.1165  0.0759 -0.0964
30323W        W45792   8.392   2.542  14.053 -0.1441  0.2090 -0.0768
30324W        W45793  11.449  14.154   5.432 -0.1063  0.3199 -0.0006
30325W        W45794   1.849   8.344   4.765  0.0864  0.3162  0.0406
30326W        W45795  15.722  11.162   0.076  0.0140 -0.0060 -0.1998
30327W        W45796   7.581   4.372   4.798 -0.2404  0.0509 -0.1357
30328W        W45797  10.899  13.173   2.691  0.0111  0.0333 -0.1637
30329W        W45798  10.187  15.525   1.439  0.0310  0.1348 -0.1888
30330W        W45799  11.713   4.392   3.075  0.0717  0.0497 -0.1402
30331W        W45800  17.484  10.980  12.142  0.0157 -0.1358  0.0079
30332W        W45801   6.613  15.034  11.281  0.2453  0.0997 -0.1725
30333W        W45802  14.633   6.147  11.830 -0.1735  0.0199  0.0700
30334W        W45803   7.493  11.841   1.754 -0.1645  0.0828  0.1366
30335W        W45804  15.944   0.201   3.651  0.1873 -0.1203 -0.3170
30336W        W45805  10.979   0.491   1.371 -0.0665  0.0638  0.0457
30337W        W45806   2.310  16.582  13.309  0.0093 -0.2511  0.1431
30338W        W45807   9.968   4.241  13.776 -0.1487  0.1674 -0.1875
30339W        W45808   3.087   7.552   3.879  0.1234  0.1524  0.1184
30340W        W45809   6.563   5.664   3.909  0.0369  0.1807 -0.0655
30341W        W45810  14.311   6.404   4.801  0.0005 -0.0156  0.0577
30342W        W45811   0.820   5.687   2.851  0.1743  0.0522  0.1879
30343W        W45812  11.761  16.836   5.014  0.1059 -0.1151  0.2237
30344W        W45813   0.447  10.350  15.924 -0.1383  0.2413  0.1967
30345W        W45814  10.705  13.091  14.001  0.0656 -0.1257  0.0024
30346W        W45815   3.436   6.846   4.983  0.1362  0.1327 -0.0178
30347W        W45816   5.587  11.816   0.285 -0.1482 -0.1340  0.0224
30348W        W45817   4.475   0.046   1.107  0.0919  0.0592  0.3050
30349W        W45818   0.506   8.624  14.185  0.0804  0.1135  0.0694
30350W        W45819   0.922   6.453  15.906 -0.1197 -0.1361  0.1878
30351W        W45820   4.714  15.603   4.020 -0.1471  0.0815  0.0094
30352W        W45821   7.100   8.414   4.018  0.2938  0.0045 -0.0068
30353W        W45822  12.726  12.123  12.683  0.0092 -0.0070 -0.2119
30354W        W45823  12.636   7.603   5.392  0.0446  0.0155 -0.0865
30355W        W45824  16.088   6.748  14.672  0.1115 -0.2093  0.0790
30356W        W45825  16.423  16.476  15.009  0.0965  0.4424  0.0237
30357W        W45826  14.778  14.694  12.256 -0.1170 -0.2443 -0.0006
30358W        W45827   5.860   5.839  10.953  0.0315 -0.0996  0.1911
30359W        W45828  11.527   7.990  13.283 -0.0361 -0.0481  0.0812
30360W        W45829   1.247  10.440  13.945  0.2139  0.2330 -0.2869
30361W        W45830  14.990   6.801   0.249 -0.1335  0.0026 -0.0606
30362W        W45831  10.904   0.887  12.449 -0.1659  0.1661 -0.0590
30363W        W45832   3.358  16.659   0.109 -0.0169  0.0752 -0.0780
30364W        W45833   5.523  14.444   2.190  0.1184 -0.0852  0.0471
30365W        W45834   9.553  14.387   0.136  0.0673  0.6086  0.0715
30366W        W45835  12.172   1.575   2.817 -0.1272  0.2394 -0.3096
30367W        W45836  10.483   4.868  14.655  0.2024 -0.0928  0.1266
30368W        W45837  15.800  17.994   0.221 -0.2192  0.2182  0.2258
30369W        W45838  14.753  13.476   1.431  0.2410  0.1767  0.2252
30370W        W45839   4.034  10.594   1.668  0.1480 -0.0933 -0.1674
30371W        W45840  13.302   3.415  12.467 -0.3339 -0.2159 -0.0032
30372W        W45841   0.565   3.450   1.696 -0.0401 -0.2986 -0.2668
30373W        W45842  12.166   9.118   4.536 -0.1281 -0.2955  0.1267
30374W        W45843   6.466  11.420   0.395  0.2000  0.1063 -0.0389
30375W        W45844   3.649  11.348   3.989  0.2420 -0.1527  0.2594
30376W        W45845   1.994  10.087   2.848 -0.1451 -0.0925 -0.1372
30377W        W45846   0.512  16.444  12.589 -0.0267 -0.0223  0.1392
30378W        W45847   1.640   3.483  14.920 -0.0746 -0.1296  0.1342
30379W        W45848   7.129  15.696  14.576  0.2398  0.1007  0.0991
30380W        W45849  10.396   4.332   2.095 -0.3108  0.0605 -0.0753
30381W        W45850  17.037  14.822   4.727 -0.0722  0.1263 -0.0855
30382W        W45851   8.710   3.185  14.527 -0.2535  0.0643  0.1719
30383W        W45852  14.002  16.172  15.852  0.0672 -0.1971  0.3722
30384W        W45853  12.799   9.158   1.587  0.2079  0.0305 -0.1878
30385W        W45854   7.860   1.153  11.505  0.0584  0.1604 -0.0012
30386W        W45855  12.336  12.899   3.788  0.0303 -0.0720 -0.1188
30387W        W45856   4.687  14.176   2.218  0.4241 -0.1007  0.0793
30388W        W45857   9.132   9.217   1.066  0.0869  0.1024  0.1920
30389W        W45858  15.804   8.307   5.311 -0.1002 -0.2221  0.2591
30390W        W45859   3.445  15.691   2.977 -0.0964  0.0099 -0.2489
30391W        W45860   0.526   8.242  13.080  0.3668 -0.4628  0.0666
30392W        W45861   6.254   4.059  14.109 -0.0281 -0.1360 -0.0105
30393W        W45862   4.398  14.624   1.260 -0.1722 -0.0502 -0.1636
30394W        W45863  12.456   8.946   5.054  0.2071  0.2435  0.0848
30395W        W45864   1.842  11.084  14.979  0.1703 -0.0160  0.1166
30396W        W45865  13.670   5.875   0.470 -0.0235 -0.1415  0.2977
30397W        W45866  11.530   9.364   3.765 -0.0124 -0.0769 -0.1376
30398W        W45867   3.018   2.941   0.533 -0.1732 -0.3953  0.0908
30399W        W45868   2.649   2.071   2.945  0.1226  0.0482 -0.1436
30400W        W45869   8.327  11.684  13.678 -0.0536 -0.2211  0.3146
30401W        W45870   3.660   4.674   1.954  0.0638  0.0171  0.0057
30402W        W45871  16.907  10.474   3.585  0.2328 -0.0082 -0.0008
30403W        W45872   5.251  12.972  15.349 -0.2101  0.1518  0.2258
30404W        W45873   6.900  15.983  12.421  0.0929 -0.3787 -0.1179
30405W        W45874   7.492  17.874  16.248 -0.1923 -0.1192 -0.1047
30406W        W45875   1.724   5.496   1.120  0.2308  0.2331 -0.2858
30407W        W45876  17.560   9.034   4.774  0.2500 -0.0190 -0.2930
30408W        W45877  12.427   0.811  15.669  0.1260 -0.1824 -0.1687
30409W        W45878  17.883   0.735   0.090 -0.0227 -0.1741  0.1932
30410W        W45879  11.053   2.847   3.435  0.0307 -0.0806 -0.1104
30411W        W45880  14.895   4.755   3.410 -0.0330 -0.1429 -0.0193
30412W        W45881  13.281   4.824   1.823 -0.0529  0.1083  0.0610
30413W        W45882  17.984   5.900  13.219  0.1159 -0.1503 -0.1940
30414W        W45883  10.260  11.877   2.253  0.0932  0.1031 -0.2688
30415W        W45884  17.828   2.387  14.248 -0.2749  0.0865 -0.1041
30416W        W45885   3.638  12.031  14.791 -0.0390 -0.2267  0.0491
30417W        W45886  17.345   8.296  12.217 -0.1261  0.1802  0.1391
30418W        W45887  11.051   8.848  13.461 -0.1965  0.4948  0.1012
30419W        W45888  12.683  16.004   5.094  0.1670  0.0440  0.0001
30420W        W45889  15.948   5.192   3.024  0.1764 -0.1909 -0.0716
30421W        W45890  16.217   5.408  14.768 -0.1534  0.1637  0.1987
30422W        W45891   0.318  10.824  12.887  0.0095 -0.0734 -0.1054
30423W        W45892   5.303  13.726  14.446 -0.0350  0.0344  0.0155
30424W        W45893  17.707  17.815   4.176  0.0776 -0.0511 -0.1307
30425W        W45894   5.591   3.635  15.759 -0.0292 -0.3694 -0.2750
30426W        W45895   5.992  14.964  12.557 -0.2417 -0.0168  0.2275
30427W        W45896   9.644  12.145  15.816  0.0548 -0.4195 -0.5134
30428W        W45897  10.719   5.387  11.808  0.0027 -0.1593  0.4802
30429W        W45898  16.902  11.480   0.600 -0.0826 -0.1417 -0.1351
30430W        W45899   9.402  11.577   2.156  0.0614  0.0836  0.0202
30431W        W45900   3.290   7.627   3.335 -0.0717 -0.2813 -0.1993
30432W        W45901  16.875  17.902  12.791 -0.1084  0.0957  0.0506
30433W        W45902   3.121   3.300  14.003  0.1437 -0.1189 -0.0092
30434W        W45903  10.182  13.896   5.544 -0.1829 -0.0520 -0.1782
30435W        W45904   4.165   1.235   4.850 -0.0872  0.0846 -0.1917
30436W        W45905   8.008   7.258   3.206  0.0524  0.0038 -0.0099
30437W        W45906  18.003   5.320   4.351 -0.1803  0.1927  0.1540
30438W        W45907   0.848  12.535   0.892 -0.0095  0.0497  0.1305
30439W        W45908   0.872   7.376   0.820 -0.3383  0.2616 -0.1386
30440W        W45909   8.191  13.997  15.179  0.2709 -0.1366 -0.0578
30441W        W45910  16.918   6.852   1.609  0.1524 -0.0606 -0.1359
30442W        W45911  15.794   0.133  13.087  0.1002  0.2085  0.1136
30443W        W45912  18.024   7.306  14.548 -0.0130 -0.1637  0.0791
30444W        W45913  16.255  14.768  14.373 -0.0513 -0.0024  0.1550
30445W        W45914   1.307  11.095  15.332 -0.0177  0.1496  0.2862
30446W        W45915  10.689  11.880   3.872 -0.1113  0.4907 -0.1490
30447W        W45916   0.213   8.593   1.538 -0.0634 -0.2253  0.1079
30448W        W45917  12.165   4.634   3.022 -0.0323  0.0406 -0.1113
30449W        W45918  15.461   2.322  12.609 -0.1013 -0.0172 -0.0369
30450W        W45919  13.771   6.929   5.659 -0.1893 -0.0673  0.3009
30451W        W45920  14.660  12.916   3.559 -0.1002  0.1233 -0.0910
30452W        W45921   5.720   2.068   0.192  0.3305 -0.0138 -0.1623
30453W        W45922  11.502   8.872   4.739  0.0305  0.0898  0.2069
30454W        W45923   5.076   2.043   0.467  0.0087 -0.2196 -0.4129
30455W        W45924  15.448  14.569  14.614 -0.0688 -0.0068 -0.2916
30456W        W45925  12.786  16.860   2.102 -0.0430 -0.1485 -0.1208
30457W        W45926   7.288  12.172  15.919  0.2381 -0.0452 -0.0259
30458W        W45927   9.301  15.969  13.629  0.3362 -0.0599  0.0932
30459W        W45928  10.251   0.811   1.025 -0.3711 -0.0174  0.1091
30460W        W45929   5.360   0.317  15.987  0.1587  0.1533  0.0962
30461W        W45930   5.571  16.260   1.255 -0.1254 -0.1648  0.0505
30462W        W45931   7.071   1.988  15.484  0.1022 -0.1895 -0.1264
30463W        W45932   6.858   2.314   0.381 -0.0882 -0.1129  0.1925
30464W        W45933  16.727   6.185   5.407 -0.3049 -0.2697 -0.1067
30465W        W45934  13.838  15.795   1.731 -0.0781 -0.2418 -0.1278
30466W        W45935   1.822   3.497  11.253 -0.4480  0.1272 -0.1698
30467W        W45936   5.874   5.841   1.426 -0.0174  0.0394  0.1432
30468W        W45937   5.388   2.739  12.979  0.1254 -0.0605  0.0275
30469W        W45938  11.060  13.612  12.793  0.1470 -0.1320  0.7131
30470W        W45939   3.861   3.571   1.603  0.1341  0.0961  0.1521
30471W        W45940   4.335  14.771   0.704  0.0921 -0.0055 -0.1093
30472W        W45941  12.027  16.203   0.245 -0.2364 -0.0843 -0.0917
30473W        W45942   7.216   8.487   1.047 -0.0887  0.1668  0.3380
30474W        W45943   2.913   3.095   1.792  0.0106 -0.1029  0.0908
30475W        W45944  12.096  11.321  12.344  0.3867  0.2089  0.0190
30476W        W45945  13.332   5.187   1.409  0.0226  0.1569  0.1982
30477W        W45946  12.771  12.446   2.559 -0.2085  0.2275 -0.0628
30478W        W45947  15.583  15.003  14.948 -0.0063 -0.0192  0.1987
30479W        W45948   1.061   4.884  10.201  0.0439  0.0011  0.3884
30480W        W45949  17.851   2.486  12.040 -0.3248  0.1307 -0.3927
30481W        W45950   5.665   9.853   0.293  0.3570  0.1099 -0.3168
30482W        W45951   4.597   7.122   1.629  0.0466  0.0914  0.1629
30483W        W45952  12.207   8.224  15.815  0.1686 -0.2190 -0.1948
30484W        W45953   4.444   2.083   2.739 -0.0472 -0.0328  0.0871
30485W        W45954  14.318   7.109  14.898 -0.2610 -0.0857  0.1978
30486W        W45955  10.286  15.633  11.995  0.1482  0.0137 -0.0681
30487W        W45956  13.098   7.002   3.274  0.2076  0.0073  0.2698
30488W        W45957   0.773  16.464  10.806 -0.0020 -0.1609 -0.3030
30489W        W45958  17.957   3.597   5.874 -0.1825  0.2506  0.0538
30490W        W45959  13.536   7.191  12.535  0.1062  0.1010  0.0477
30491W        W45960  16.267   1.680  10.546 -0.0329  0.2681 -0.0161
30492W        W45961   7.846  13.788  14.319  0.0672 -0.0123  0.0033
30493W        W45962  17.960   2.644   2.021 -0.0629  0.0116 -0.0299
30494W        W45963  10.120   8.133   0.810  0.0183 -0.1154 -0.0370
30495W        W45964   7.948  15.745  15.758  0.2658  0.3375  0.0330
30496W        W45965   4.419  10.767   4.496 -0.1840  0.0629 -0.0088
30497W        W45966  11.880  14.944  14.662 -0.0510 -0.3364 -0.2606
30498W        W45967   2.993  13.705  14.698 -0.1699  0.0299 -0.1101
30499W        W45968  11.688  10.188  11.757 -0.3470  0.2170  0.1325
30500W        W45969   0.361  12.490   4.147 -0.0179  0.2656  0.0941
30501W        W45970   6.744   3.798  13.914  0.0567 -0.2160  0.0464
30502W        W45971   3.080   3.901   3.100  0.1994  0.0213  0.2115
30503W        W45972   8.676   8.446   2.689 -0.1252  0.0865  0.4413
30504W        W45973   5.141   2.561   5.317  0.0530 -0.1023  0.0966
30505W        W45974   5.180   7.463  12.002 -0.0691 -0.1874 -0.1071
30506W        W45975   7.740   4.887  13.591  0.1618 -0.2115  0.0323
30507W        W45976   7.554   8.708   3.985 -0.0563  0.2183 -0.0008
30508W        W45977   9.349   5.355   1.952 -0.1104  0.2663  0.0477
30509W        W45978   5.418   0.513  13.467  0.1906  0.0906 -0.1557
30510W        W45979   9.406  17.915   2.045 -0.0007 -0.1126  0.0213
30511W        W45980  14.538   5.126   3.584 -0.3155 -0.2844  0.3171
30512W        W45981  16.766   5.691  14.064  0.1335  0.0115  0.1530
30513W        W45982   7.716  17.843  12.533  0.2148 -0.2796 -0.1087
30514W        W45983  13.277  12.717  10.152  0.3856  0.1289 -0.0491
30515W        W45984  17.439  15.621  11.159 -0.2368  0.2159 -0.3724
30516W        W45985  15.452  13.646   3.320 -0.1223 -0.4070 -0.0697
30517W        W45986   8.725  16.289   4.292 -0.1026  0.2893  0.2364
30518W        W45987   0.253  11.267   0.354 -0.0755  0.0216  0.0516
30519W        W45988  14.828  12.566   0.291  0.0254  0.1233  0.0207
30520W        W45989  17.992  12.610  15.082 -0.4722  0.2243 -0.0889
30521W        W45990   2.355  11.631   1.138  0.1377 -0.0058  0.0695
30522W        W45991   4.388  17.865   1.510 -0.1033 -0.0613 -0.2151
30523W        W45992   9.787   7.941   1.671  0.1942 -0.1446  0.1305
30524W        W45993   4.807  11.635   4.865  0.2087  0.2716 -0.1427
30525W        W45994  10.790   8.073   5.628  0.0401  0.3072  0.1230
30526W        W45995  10.966  11.062  14.218 -0.1482  0.0276  0.0378
30527W        W45996   8.811   5.366   1.552  0.2311 -0.0261  0.0367
30528W        W45997   8.786   7.977   3.970  0.0714  0.0111 -0.0466
30529W        W45998   0.835  16.738  15.189 -0.1441  0.0208 -0.1137
30530W        W45999   8.475   2.627   0.398 -0.1165 -0.0005  0.2867
30531W        W46000   4.993   7.065   0.713  0.3137  0.0971  0.1946
30532W        W46001   6.004  15.945  12.862  0.2731  0.2000 -0.0885
30533W        W46002  11.884   6.779   2.897  0.0217 -0.1540  0.1549
30534W        W46003  14.329  11.190  12.480  0.1444  0.2879  0.1697
30535W        W46004   7.408   9.032  16.206 -0.0037 -0.1982  0.1405
30536W        W46005   3.368   0.233   3.253 -0.0988  0.0544  0.0981
30537W        W46006  17.758  15.405   0.937 -0.1997  0.0260 -0.0632
30538W        W46007   4.245   3.057   5.722 -0.2647 -0.2611 -0.0353
30539W        W46008   8.023  12.169  12.832 -0.0106  0.1446  0.2716
30540W        W46009  11.606   9.691   4.186 -0.1476  0.1692 -0.0820
30541W        W46010   1.376   6.738   1.538  0.0156 -0.0219 -0.1100
30542W        W46011   1.447   5.724   2.157 -0.2469 -0.2744  0.3001
30543W        W46012  14.774  14.951  15.627 -0.0210  0.2977 -0.3205
30544W        W46013  10.458  15.897   3.616  0.0505 -0.1033 -0.0891
30545W        W46014  14.425   8.866   0.166 -0.2075 -0.0977  0.3129
30546W        W46015   8.670   3.415   6.085  0.1723  0.1351 -0.1229
30547W        W46016   5.821  17.845   1.371 -0.0834 -0.2269 -0.1169
30548W        W46017   3.919  16.774   1.595 -0.0211  0.1405  0.1282
30549W        W46018  12.135   6.264   5.913 -0.2185  0.0586 -0.0060
30550W        W46019   5.329   4.330  12.112 -0.1205  0.0085  0.0632
30551W        W46020   3.692  12.435  11.857  0.0191  0.1604  0.0127
30552W        W46021  13.720   9.293   1.951  0.0153  0.0960 -0.2197
30553W        W46022  13.813  16.772  12.091  0.3162 -0.1005 -0.1298
30554W        W46023   9.022  11.355   5.551  0.0650  0.3842  0.0737
30555W        W46024  15.140   5.960  11.779 -0.0748 -0.0160  0.3275
30556W        W46025   1.208   4.031  10.882  0.0510  0.0313 -0.0625
30557W        W46026   0.307   2.704  13.017 -0.0523 -0.2280 -0.0799
30558W        W46027  13.184  10.444  12.162  0.2224 -0.1247  0.4137
30559W        W46028   5.327   7.342   1.023 -0.0549  0.0146 -0.0479
30560W        W46029   9.316  16.159  12.991  0.2249 -0.0835 -0.4087
30561W        W46030   5.158  13.823  12.431  0.0771  0.0853  0.2683
30562W        W46031  11.664  14.599   5.602 -0.1499 -0.0501  0.0571
30563W        W46032   6.869  10.831  13.905  0.0211 -0.3448 -0.0458
30564W        W46033   1.230   6.824  12.377  0.6075  0.0946  0.2260
30565W        W46034   4.254  16.607   4.589 -0.2737 -0.1190  0.0884
30566W        W46035  12.588   9.456  15.550 -0.1352  0.1894  0.0985
30567W        W46036   1.221  10.966  11.805  0.2145  0.1827 -0.1479
30568W        W46037  16.147   3.832   4.647  0.2889 -0.1145  0.0309
30569W        W46038  14.496   5.569   1.428 -0.1177  0.1558  0.1092
30570W        W46039  15.100  13.445   2.979  0.0577  0.1441  0.1340
30571W        W46040   5.040  15.796  11.585 -0.0746  0.1397 -0.2043
30572W        W46041  10.216  17.564  14.021 -0.1882  0.0530 -0.0300
30573W        W46042   6.393   5.012   0.119  0.0059  0.0451  0.1654
30574W        W46043  12.253  11.600  11.528 -0.1942  0.1354 -0.0213
30575W        W46044   3.005   8.037   1.972 -0.1655  0.0785  0.0808
30576W        W46045  17.898  15.757  14.050  0.1584  0.0982  0.2956
30577W        W46046  14.638  16.077  11.859 -0.3282 -0.0131  0.0236
30578W        W46047   0.631  17.138  11.546 -0.2608  0.2137 -0.1282
30579W        W46048   0.045   4.319  12.024  0.1746 -0.1483  0.0986
30580W        W46049  10.969  17.968  13.658  0.1201  0.0395  0.0098
30581W        W46050   6.510  14.240  12.260 -0.1523  0.0709 -0.1880
30582W        W46051  10.095   2.282  15.058 -0.0064  0.0970  0.0825
30583W        W46052  14.740  14.578  16.198 -0.1495 -0.0335 -0.2037
30584W        W46053   5.478   6.627  13.636 -0.0182  0.2756 -0.1795
30585W        W46054   2.393  10.201  10.665  0.4290  0.1684  0.2759
30586W        W46055  10.297   4.069  11.441 -0.2169 -0.0685 -0.0526
30587W        W46056   0.128  11.709  12.998  0.2303 -0.1764  0.0279
30588W        W46057   6.700   9.517  15.642  0.0566  0.0585  0.1174
30589W        W46058   9.431  13.740  13.563 -0.2366 -0.0068  0.0611
30590W        W46059   1.041  13.833  13.118  0.1595 -0.2696 -0.0698
30591W        W46060   1.757   2.221   5.615  0.0426 -0.0307  0.2094
30592W        W46061   0.116  10.051   4.940 -0.3259 -0.0948 -0.0547
30593W        W46062   2.090   5.706   4.734  0.1430 -0.1679  0.0158
30594W        W46063   5.057   7.719  14.774  0.0337 -0.0343 -0.0009
30595W        W46064  14.621  15.496  15.872  0.7226  0.1068 -0.0412
30596W        W46065   3.966   4.859   5.593  0.1526  0.1887 -0.2386
30597W        W46066   8.405   0.855   4.059 -0.1225 -0.0190  0.0529
30598W        W46067   2.670   7.422   2.981 -0.3269 -0.1302  0.0251
30599W        W46068   1.010   6.341   0.068  0.1788  0.0550 -0.1673
30600W        W46069   0.454   8.977  14.842  0.0827 -0.0723  0.0741
30601W        W46070   2.686  12.691   1.314 -0.0405  0.1613 -0.0875
30602W        W46071  14.801  17.171   2.839  0.0464  0.0941 -0.3255
30603W        W46072   4.727  13.224  11.416 -0.2702 -0.2057  0.2310
30604W        W46073  16.177  17.386   2.449 -0.1275 -0.2071  0.2066
30605W        W46074   0.207  17.348   6.034  0.1873 -0.1860 -0.0981
30606W        W46075  12.186  12.041  12.872  0.0707 -0.0133 -0.0715
30607W        W46076   7.270   5.181  11.596  0.1090  0.5163  0.0638
30608W        W46077  16.853   3.022   5.036 -0.0192  0.1185  0.0677
30609W        W46078   6.125   9.630   2.394  0.1032 -0.0962 -0.0984
30610W        W46079   7.059  13.306   3.211 -0.0711  0.0882 -0.2344
30611W        W46080  17.350   7.315   4.937  0.0273  0.2035  0.2374
30612W        W46081  16.593  15.441   3.247 -0.0709  0.0262  0.1536
30613W        W46082  14.688  16.826  14.692  0.0525 -0.1922 -0.4243
30614W        W46083   9.092   9.502   5.339 -0.2172 -0.1646 -0.0218
30615W        W46084  16.745  16.972   3.800 -0.1393  0.2321  0.2215
30616W        W46085  17.928  15.151   0.457  0.2818 -0.3898  0.0723
30617W        W46086   2.109   5.761  15.990 -0.1039 -0.3698  0.0088
30618W        W46087   7.173   6.888   4.600 -0.2490  0.3304 -0.0737
30619W        W46088  17.514  16.143  13.228  0.1597  0.1390  0.1143
30620W        W46089  17.665  16.585   0.002  0.1204 -0.1363 -0.0616
30621W        W46090   8.176   9.498  12.695 -0.1247 -0.1007  0.2991
30622W        W46091   5.761  11.846   5.378 -0.1493  0.0860  0.0467
30623W        W46092   4.662   8.835   4.050  0.0664 -0.0539 -0.0272
30624W        W46093   9.741  15.630  15.473 -0.3560 -0.0580 -0.3227
30625W        W46094  13.773   7.661  12.536  0.1353  0.1506 -0.2012
30626W        W46095  12.895   0.621   5.681  0.0916  0.2272  0.1922
30627W        W46096  17.731   3.822  14.223  0.3067 -0.4426  0.0749
30628W        W46097  12.937   1.249  13.766 -0.0272  0.1587 -0.2095
30629W        W46098   7.429  11.623   4.430 -0.0986  0.1141  0.0085
30630W        W46099   7.972  17.327  15.690  0.1743 -0.1674 -0.0101
30631W        W46100  12.154   3.260  13.976 -0.0083 -0.2728  0.1217
30632W        W46101   1.077  10.086  13.575  0.2886  0.0779  0.1971
30633W        W46102   2.398   9.902   5.842 -0.2636 -0.1308  0.1207
30634W        W46103   9.737   5.948   0.672  0.1663  0.1234  0.1670
30635W        W46104  11.864  10.420  16.046 -0.0001  0.0522 -0.1974
30636W        W46105  13.375   2.049   1.857 -0.0500  0.4241 -0.2897
30637W        W46106   8.510  12.520  13.531 -0.2372 -0.0466 -0.0895
30638W        W46107  13.979   7.118   0.445 -0.1017  0.0244 -0.1661
30639W        W46108   9.672   0.086   5.662  0.0720  0.1617 -0.1326
30640W        W46109   4.623  18.001  15.801  0.0277  0.1900 -0.0782
30641W        W46110   1.862   4.831   1.498 -0.0321 -0.0774 -0.1612
30642W        W46111   8.006   6.934   1.634  0.0747  0.0193  0.2603
30643W        W46112   8.632  16.124  12.435  0.1476  0.0803 -0.0914
30644W        W46113  11.673  15.798  14.630  0.0647  0.2280  0.2975
30645W        W46114  17.888   2.533  11.540 -0.1368 -0.0662  0.1745
30646W        W46115   5.580  10.922  15.100  0.2060  0.4931  0.0108
30647W        W46116  16.374  13.009   2.322  0.1489 -0.0518 -0.0901
30648W        W46117   0.694   4.248   2.000  0.1554 -0.3307  0.2855
30649W        W46118   9.763  10.903   0.063 -0.1834 -0.1974  0.3445
30650W        W46119  13.083  15.310  13.392 -0.2281 -0.1468  0.1388
30651W        W46120   6.975   5.374  16.169 -0.0110  0.0746  0.0892
30652W        W46121   9.135  10.528   2.346 -0.1334  0.0039 -0.1951
30653W        W46122  12.259  15.618  11.014 -0.1188  0.0461 -0.1317
30654W        W46123  17.996   8.014   4.796  0.1254 -0.0834  0.0485
30655W        W46124   8.999   4.344   2.125 -0.1761  0.2267  0.0785
30656W        W46125   1.003   3.780  16.247  0.3856  0.1826 -0.1019
30657W        W46126   8.541  15.632  12.484 -0.0873 -0.0361 -0.0651
30658W        W46127  16.247  15.350   2.630 -0.0384  0.0110  0.1862
30659W        W46128  18.088  16.488  14.079  0.3850 -0.0813 -0.1000
30660W        W46129  17.160   0.149   2.007 -0.1232 -0.0136 -0.3877
30661W        W46130   7.652   9.843   3.655 -0.0793  0.0860  0.1674
30662W        W46131  16.145   4.250   2.878 -0.0706  0.0999 -0.0014
30663W        W46132   8.699   1.609   0.497  0.0354 -0.4436 -0.2274
30664W        W46133   2.041   4.762   2.827  0.1012 -0.1903  0.1313
30665W        W46134  17.692   5.688   4.422  0.0426  0.0534 -0.0624
30666W        W46135   0.896  14.454   5.277 -0.1500  0.0906  0.4332
30667W        W46136   8.237   2.791   0.768 -0.0812 -0.0306  0.0023
30668W        W46137   7.863  16.861  15.511 -0.1230  0.0669 -0.0369
30669W        W46138   6.398   2.885   1.557 -0.3098  0.1684  0.1358
30670W        W46139  10.341   9.264  12.515  0.2233 -0.1885 -0.1538
30671W        W46140  15.931  16.252   1.498 -0.0837  0.0094 -0.2189
30672W        W46141  10.707  10.549   2.151 -0.0151 -0.3052  0.2830
30673W        W46142   3.575  11.169  12.671 -0.1450 -0.0600  0.0047
30674W        W46143  12.811   3.942   3.917  0.0555 -0.1043  0.2093
30675W        W46144   1.840   8.950  14.928 -0.1005  0.2353 -0.0387
30676W        W46145   9.286   6.011   5.781 -0.0846 -0.1129  0.4078
30677W        W46146  16.384   1.047  15.345  0.0324 -0.0056  0.1240
30678W        W46147  17.579  13.319   2.328  0.0413 -0.0586  0.0219
30679W        W46148  16.841   9.192  10.914  0.2789 -0.3625  0.2123
30680W        W46149   5.567   9.447  13.220 -0.0932  0.0494 -0.0065
30681W        W46150  12.311  17.808  15.704 -0.0582 -0.4575  0.0346
30682W        W46151   5.900  12.349   3.066 -0.1261  0.0083 -0.2303
30683W        W46152   8.542   6.865  14.331  0.0435 -0.0491 -0.0120
30684W        W46153  16.215   5.888  12.271 -0.2266 -0.0159 -0.2177
30685W        W46154  16.699   4.734  12.204  0.1304 -0.0712 -0.0335
30686W        W46155  17.671   3.385  15.011 -0.4487  0.1015 -0.0734
30687W        W46156  14.209   0.344  13.706 -0.1343 -0.3101 -0.2212
30688W        W46157   3.532   0.736   5.902  0.2150 -0.2198 -0.1183
30689W        W46158  10.502  14.826   1.020 -0.4090 -0.0422  0.1717
30690W        W46159  16.947  11.858  12.620 -0.4447  0.1266  0.0674
30691W        W46160   5.085   6.433   1.701  0.0209 -0.1005 -0.1445
30692W        W46161  17.841  15.732  12.932 -0.1119 -0.0236 -0.4286
30693W        W46162   0.859   3.780  15.632 -0.0282 -0.0893 -0.0660
30694W        W46163   0.343  14.406   0.150 -0.0584  0.0245 -0.0500
30695W        W46164   0.668  17.914  15.892 -0.0828 -0.0833  0.0087
30696W        W46165   4.338  14.116   2.654  0.1196  0.1046 -0.3111
30697W        W46166   9.632  13.395   3.788 -0.0038  0.2997  0.0919
30698W        W46167  11.913   3.964  15.030 -0.0585 -0.3476  0.2521
30699W        W46168  12.417  10.503   3.381 -0.1546 -0.2915 -0.0042
30700W        W46169   9.995   1.878  11.391  0.2687  0.0630  0.0277
30701W        W46170   8.859   3.517  15.471  0.2833 -0.0154 -0.3436
30702W        W46171  13.333  12.494   4.023  0.0732 -0.1707 -0.1655
30703W        W46172   4.141  13.798  13.280 -0.0935 -0.2181  0.2190
30704W        W46173  13.161   8.561  13.653 -0.1828 -0.1822  0.0062
30705W        W46174   1.344  16.454  10.859 -0.2238  0.2589 -0.2084
30706W        W46175  13.602  12.209  16.193  0.0668 -0.0822  0.0319
30707W        W46176   4.463   8.760   1.683 -0.0159  0.2948  0.1963
30708W        W46177   6.194   8.562   2.363  0.0901 -0.2598 -0.0622
30709W        W46178  14.487   1.218   1.656 -0.2490 -0.0186 -0.1115
30710W        W46179   6.132   5.746  15.907 -0.2063  0.0733 -0.0900
30711W        W46180  11.453   0.704  15.784  0.2738 -0.1071 -0.2141
30712W        W46181   4.972  13.541   0.721 -0.0057 -0.2689  0.0059
30713W        W46182   5.082  15.095  14.233  0.2523 -0.1224  0.1137
30714W        W46183  11.457  17.079   5.362 -0.2259  0.0570 -0.2252
30715W        W46184  18.036  13.026   1.739  0.2192  0.1645  0.0285
30716W        W46185   3.976   6.690  13.872 -0.1578 -0.0213  0.0773
30717W        W46186   3.380   6.530   1.993  0.2032 -0.0472  0.0652
30718W        W46187   1.152   6.043  13.703  0.2676  0.0283 -0.0337
30719W        W46188  13.690  10.567  12.057 -0.0193 -0.3774  0.1115
30720W        W46189  14.846   9.988  12.172  0.0804  0.4486  0.0959
30721W        W46190  17.216  10.100  11.940 -0.1254  0.4155 -0.2857
30722W        W46191  15.196  12.227  15.408  0.2422 -0.0655 -0.2077
30723W        W46192  10.253   4.618  12.387  0.1872 -0.0927 -0.1838
30724W        W46193   9.694   6.814   3.851 -0.2336 -0.0456 -0.3581
30725W        W46194   6.729   0.284  14.065  0.1262 -0.1886  0.0927
30726W        W46195   3.934   2.699   2.614  0.2902 -0.0853 -0.0302
30727W        W46196  15.853   6.392  15.023 -0.5294  0.0642 -0.1711
30728W        W46197   8.932  10.083   5.193 -0.1158 -0.3065 -0.1859
30729W        W46198  10.763  14.576   4.441 -0.1743 -0.0293 -0.0532
30730W        W46199  15.853   0.568  10.468 -0.4105  0.0411 -0.2417
30731W        W46200   4.399   1.905  12.167  0.1133 -0.0813 -0.0336
30732W        W46201   6.401  13.341   1.541 -0.0215 -0.0220 -0.2228
30733W        W46202   6.550   6.642   0.011 -0.2702  0.3180 -0.0705
30734W        W46203  16.946   5.174  12.142  0.1537 -0.2157 -0.0556
30735W        W46204  15.400   6.522   0.469 -0.0229  0.0635 -0.2174
30736W        W46205   7.421   6.078  12.684 -0.1663  0.1091 -0.1259
30737W        W46206   9.977  11.394   3.440 -0.0421 -0.2215  0.0488
30738W        W46207  10.920  16.890  11.201 -0.0065  0.1694 -0.3628
30739W        W46208   0.542   1.738  10.285  0.0063  0.0156  0.0995
30740W        W46209  14.215  14.693   1.660  0.1246  0.0973  0.0068
30741W        W46210   0.660   2.755  11.553  0.0335 -0.1556  0.1141
30742W        W46211  16.463   4.057  15.412 -0.1531  0.1198 -0.1621
30743W        W46212  10.853  15.828   3.275  0.1689 -0.0296 -0.2479
30744W        W46213  12.618   5.544  11.653 -0.1989 -0.1914  0.1970
30745W        W46214  10.156  17.122   1.182 -0.0663 -0.1397  0.0186
30746W        W46215  12.745   0.400  13.296 -0.0122  0.1601  0.2837
30747W        W46216   0.149  15.924   2.630 -0.0002  0.0837  0.1865
30748W        W46217   2.596  12.187  10.373 -0.2869 -0.1485 -0.0780
30749W        W46218  11.828   2.495   2.359  0.2336 -0.0748 -0.2682
30750W        W46219   9.020  15.144   2.385 -0.0366 -0.0844 -0.1260
30751W        W46220  15.540  11.788   5.571 -0.2574 -0.2710  0.1223
30752W        W46221  18.038  13.373  11.612 -0.2105  0.1282  0.1980
30753W        W46222  14.468  17.208   5.048 -0.2606 -0.1144  0.0727
30754W        W46223   3.765   9.804   2.280 -0.2287 -0.0979  0.1424
30755W        W46224   7.187  17.598   4.907  0.2556 -0.2223  0.1411
30756W        W46225   9.486   2.800  12.434  0.1543  0.0058 -0.0465
30757W        W46226  16.237   7.580   1.959 -0.2002 -0.1325 -0.1070
30758W        W46227   1.164   7.757  15.840 -0.2427 -0.0447 -0.1815
30759W        W46228   6.994   5.169   4.827  0.0530  0.1258  0.0246
30760W        W46229   5.235  14.992  13.257 -0.0860 -0.1927  0.2351
30761W        W46230   0.411   1.781  13.421  0.0572 -0.1180 -0.1821
30762W        W46231  10.617   0.009   1.173  0.0164 -0.2489  0.0948
30763W        W46232   7.481   8.322  12.602  0.0632 -0.1357  0.0583
30764W        W46233   4.849   5.076   0.802 -0.0966 -0.1011  0.1655
30765W        W46234  14.718   4.425  11.012 -0.1782  0.2075  0.0169
30766W        W46235  13.679  10.787  16.256  0.0451  0.1120  0.0098
30767W        W46236   5.750  12.923  13.898 -0.1167 -0.1991  0.0079
30768W        W46237  10.882  13.605  11.268  0.3459 -0.0901 -0.0342
30769W        W46238  10.979  14.526  13.295 -0.0326  0.0208  0.2556
30770W        W46239  16.321   9.262  12.099  0.0822 -0.0730  0.0988
30771W        W46240  17.556  17.850   5.462 -0.1491  0.2668  0.2240
30772W        W46241   4.234   0.062  12.572 -0.2183 -0.1480  0.1013
30773W        W46242  16.638  13.861  14.319  0.0673  0.1015  0.2939
30774W        W46243  14.454   3.344   4.477 -0.0069  0.0528  0.0718
30775W        W46244  13.285  13.286   2.806  0.0542 -0.2080  0.0976
30776W        W46245   2.196  13.490   0.437 -0.0038  0.2040  0.0037
30777W        W46246  15.665   5.745   4.056 -0.0489 -0.0060  0.3429
30778W        W46247   0.324  12.997   5.405  0.1146  0.0928 -0.1733
30779W        W46248  16.130   5.950  14.875 -0.2310 -0.2805 -0.0009
30780W        W46249  16.761   6.418   1.838 -0.0313 -0.2317  0.2098
30781W        W46250   4.796  17.265  15.167  0.1689  0.2470 -0.1828
30782W        W46251   9.670  16.496  15.569 -0.1757  0.0496  0.3430
30783W        W46252  16.990  12.815  12.546 -0.2379  0.0121  0.1276
30784W        W46253   9.560   8.698  14.854  0.0127  0.2613  0.1615
30785W        W46254   7.580   5.141   6.279  0.1043  0.0620 -0.0281
30786W        W46255   2.374   9.038  14.645 -0.1527 -0.0198  0.1492
30787W        W46256  10.314  16.675   0.904 -0.0259 -0.0418  0.0814
30788W        W46257   2.616  10.268   2.232 -0.2148 -0.2940 -0.0386
30789W        W46258   4.347  12.633  12.497  0.1763 -0.2879 -0.0084
30790W        W46259   1.403  14.395   1.111  0.0769 -0.1763  0.1946
30791W        W46260   4.767  16.468   0.398  0.0631  0.1991 -0.1034
30792W        W46261  11.041  17.053   1.453 -0.1201 -0.0732 -0.1766
30793W        W46262   8.159  15.483   4.884  0.0179 -0.3454  0.1478
30794W        W46263  12.180   3.294  12.988 -0.0609 -0.0115 -0.0397
30795W        W46264   8.918   9.884  14.839  0.1771  0.1040 -0.1142
30796W        W46265   5.441  11.380   2.481  0.0309 -0.1106  0.0357
30797W        W46266  16.571  14.092  13.872  0.0846 -0.1165 -0.0487
30798W        W46267   8.319  17.494  14.956  0.4443  0.0890 -0.0177
30799W        W46268  10.723  14.239   3.567 -0.2219  0.1227  0.1020
30800W        W46269  15.143   4.490   3.931 -0.0251  0.0032 -0.0984
30801W        W46270   9.934  12.180  13.163  0.1042 -0.1569 -0.1290
30802W        W46271   6.814   1.711   1.051 -0.0221 -0.1116  0.2245
30803W        W46272  11.147  17.546   4.871 -0.1901 -0.0561 -0.0681
30804W        W46273   4.120   4.079  12.760  0.1501 -0.0407  0.0240
30805W        W46274  12.008  17.221   4.628 -0.1028  0.0600 -0.2227
30806W        W46275   8.858  17.124  12.235  0.2049 -0.2321 -0.1239
30807W        W46276   3.629  12.674   3.313  0.1378 -0.1202  0.1586
30808W        W46277   2.403   8.661   4.506 -0.4447  0.2700 -0.0346
30809W        W46278  11.649   7.243  14.449 -0.0630 -0.0854  0.0407
30810W        W46279   9.134  11.548  12.455  0.1899  0.1337 -0.0346
30811W        W46280   4.529  11.191  11.752 -0.1643 -0.2398  0.4199
30812W        W46281  16.598  12.829   4.611  0.1030  0.0534  0.0057
30813W        W46282   0.404  10.475   1.910  0.0564 -0.0887  0.1656
30814W        W46283   7.713   2.229  14.853  0.0451 -0.2270 -0.2853
30815W        W46284  14.924   4.310   4.524 -0.0725 -0.0123 -0.1040
30816W        W46285   6.294   2.532   4.863 -0.1360 -0.1006  0.0518
30817W        W46286   1.944  11.187  11.363 -0.1721 -0.1589  0.2631
30818W        W46287   8.186  11.975   0.006  0.0062 -0.0302  0.1602
30819W        W46288   2.200  15.421  15.687 -0.1273 -0.0844 -0.3361
30820W        W46289   1.446  15.223   3.003 -0.1520  0.0041 -0.1624
30821W        W46290   5.322   7.031   3.959 -0.0501  0.0951 -0.0040
30822W        W46291  13.597  12.410   1.431  0.0520 -0.2584  0.1231
30823W        W46292   2.777  10.386  15.830 -0.5902  0.0586  0.1540
30824W        W46293  16.860  13.209   0.281  0.0697  0.1328 -0.0576
30825W        W46294  16.497  17.412  11.578 -0.0740  0.3177  0.0227
30826W        W46295  10.768   9.421  14.736  0.2313 -0.2896 -0.1026
30827W        W46296  17.841   6.828   3.810  0.1593  0.5014  0.2611
30828W        W46297   2.459   4.708   1.214  0.1945  0.0063  0.1856
30829W        W46298  13.512   0.570   5.307  0.1379  0.2990  0.1132
30830W        W46299   9.423  13.238  15.516  0.2409  0.2643 -0.1112
30831W        W46300   2.669   8.851  12.490 -0.0630  0.0793  0.2259
30832W        W46301  11.859  15.180  15.074 -0.1591  0.0066 -0.1540
30833W        W46302   3.872   7.454  15.975  0.0595 -0.0799  0.2534
30834W        W46303  11.305  11.476   1.575 -0.0712  0.0610 -0.0696
30835W        W46304   4.418   9.670   0.961 -0.0267  0.3799  0.0494
30836W        W46305   7.382  14.119   2.811  0.0174 -0.0760  0.1411
30837W        W46306  10.275   5.397   2.326 -0.1351 -0.2816 -0.1809
30838W        W46307   7.851   3.137   4.986  0.0080  0.0699  0.0204
30839W        W46308   1.730   7.621   1.666  0.2014  0.0114  0.2361
30840W        W46309  17.732  17.522  12.574  0.2222  0.0546  0.0295
30841W        W46310   7.249  16.783  11.561  0.0584  0.0904  0.0228
30842W        W46311   4.303   0.589  11.843 -0.2560 -0.1518 -0.1389
30843W        W46312  17.784   3.357  10.105 -0.1215 -0.1843  0.1223
30844W        W46313  12.595  13.144  13.716 -0.2143  0.0601  0.0491
30845W        W46314  17.328  11.643   4.711  0.1708  0.4083  0.3371
30846W        W46315   0.141   7.793   1.318  0.1941 -0.1947 -0.0335
30847W        W46316  18.044   0.851   5.029 -0.3322  0.0931 -0.0344
30848W        W46317   1.898  16.121  14.310 -0.2452  0.0152  0.1315
30849W        W46318  10.469   2.399  15.888 -0.0231 -0.1493  0.1428
30850W        W46319   3.190   7.410   0.733 -0.0147  0.0533  0.0343
30851W        W46320   2.892  13.450  13.614 -0.2382 -0.0537  0.2236
30852W        W46321   3.827  16.440  13.841 -0.1700  0.1358  0.3197
30853W        W46322  12.349   2.224   1.164 -0.1492 -0.2282 -0.0451
30854W        W46323   5.462  15.402   2.288  0.0540  0.0661 -0.0031
30855W        W46324   9.894  11.345   2.969  0.1632 -0.4549  0.1342
30856W        W46325  15.183   5.668   3.907 -0.1597 -0.0637  0.0098
30857W        W46326   3.924  13.079   0.048 -0.0292  0.2843 -0.0118
30858W        W46327   0.084   8.007  11.303 -0.0623 -0.0091  0.1877
30859W        W46328  18.085  11.611   1.295  0.1940  0.0850  0.3136
30860W        W46329   8.091  15.883   3.593  0.2980 -0.0592 -0.2456
30861W        W46330  12.427  13.337   3.503 -0.1022  0.4279 -0.1084
30862W        W46331   5.544   0.917  13.810  0.0624 -0.2915  0.2098
30863W        W46332  12.581  17.391  11.411  0.0514 -0.0453 -0.3121
30864W        W46333   1.457  14.268  11.958 -0.1666  0.0715  0.0356
30865W        W46334  12.470  13.146   5.367  0.1857  0.0341  0.0333
30866W        W46335  18.032   7.306   1.256 -0.1251 -0.0462  0.2589
30867W        W46336   0.528   5.147  12.326 -0.0062  0.0474 -0.0007
30868W        W46337  17.068  11.154  13.333  0.1899 -0.0884  0.0435
30869W        W46338   5.976   4.214  13.677  0.2030 -0.0350  0.1383
30870W        W46339  14.350   0.168  13.082 -0.0041  0.1336 -0.2313
30871W        W46340  10.678  16.806   0.013  0.1768 -0.3331  0.0293
30872W        W46341  10.737  15.247   1.157 -0.1492  0.2047  0.2762
30873W        W46342  17.713  18.070  10.445  0.1294  0.1163 -0.0386
30874W        W46343   3.335   7.212   0.225  0.0246 -0.0556 -0.0301
30875W        W46344   8.890   5.798  12.242 -0.3007  0.1574  0.3851
30876W        W46345   1.883  11.722   0.888 -0.1291 -0.1376 -0.0741
30877W        W46346   7.812   2.358   3.473  0.1104 -0.3105 -0.1191
30878W        W46347  12.704   2.611  13.207 -0.2720 -0.0379 -0.3380
30879W        W46348  15.856   8.110   6.349 -0.0060 -0.3243  0.0153
30880W        W46349   7.904   9.459   2.310 -0.0403  0.1534  0.2878
30881W        W46350   3.029   8.554  15.163  0.0061 -0.3187  0.0049
30882W        W46351  16.804   4.537   0.221 -0.1173 -0.0758  0.3391
30883W        W46352   6.996   2.893  15.140 -0.2669 -0.0145  0.1186
30884W        W46353  17.664  17.949   9.875  0.3400  0.2238  0.0129
30885W        W46354  17.917  17.692   4.607  0.0112  0.3419 -0.2308
30886W        W46355  14.272  11.307   5.441  0.0504  0.1044  0.2434
30887W        W46356  10.171  15.723   5.251  0.2275  0.0435 -0.1548
30888W        W46357   2.072  15.736  16.117  0.2016  0.1984  0.1294
30889W        W46358  13.588   9.588   1.475  0.1023  0.1898 -0.1074
30890W        W46359  16.555  10.117   2.010  0.0360 -0.0701 -0.0089
30891W        W46360   8.709   6.977  13.381 -0.4387 -0.3491 -0.0831
30892W        W46361   0.410  14.902  10.463  0.0463  0.1949 -0.0229
30893W        W46362  14.824   2.682   2.532  0.0402  0.0382  0.1193
30894W        W46363   0.985   4.257  12.601  0.1124 -0.1200  0.0788
30895W        W46364   7.031   1.112  12.816 -0.2092  0.0069  0.2822
30896W        W46365   8.388   8.000  14.797 -0.2387 -0.1234  0.0827
30897W        W46366   6.965  15.887  15.412  0.0580  0.0981  0.7246
30898W        W46367   9.315  15.689  13.189  0.1814  0.3234 -0.2112
30899W        W46368   8.837   2.714  12.789  0.2737 -0.0904 -0.0303
30900W        W46369  11.858  14.837  15.521  0.0082  0.1058 -0.2084
30901W        W46370   5.430   8.660   3.116  0.2838  0.0140 -0.1500
30902W        W46371  11.425   5.655  15.239 -0.0446 -0.1448 -0.3750
30903W        W46372  11.756   4.845  12.537 -0.3829  0.0368 -0.1397
30904W        W46373  13.923  13.246  14.711  0.0513 -0.0579  0.1727
30905W        W46374  10.764  10.524  10.939  0.3676  0.0019 -0.0474
30906W        W46375   3.614   0.941  11.397 -0.3418 -0.3204  0.1691
30907W        W46376   8.320   4.001   2.455  0.1660 -0.1385 -0.2148
30908W        W46377   6.175   1.742   4.437  0.2878 -0.2047 -0.0369
30909W        W46378   8.845   5.269   2.068  0.0266 -0.2189 -0.2708
30910W        W46379  15.653   9.250  14.948  0.2326 -0.1420  0.0039
30911W        W46380  12.886  12.853  14.197  0.3016  0.0108 -0.1484
30912W        W46381  15.573   6.175  12.394 -0.2866  0.0002 -0.1924
30913W        W46382  14.252   1.926  13.442 -0.1096  0.1435 -0.0442
30914W        W46383   8.754  16.788   2.764 -0.0259  0.1994 -0.1896
30915W        W46384  16.256   1.740   2.674 -0.1480 -0.0378  0.3370
30916W        W46385   6.970  15.365  11.479 -0.0707  0.2572 -0.1999
30917W        W46386  14.613   1.699   1.448 -0.0106 -0.2995  0.0513
30918W        W46387   8.936  16.842  15.319  0.0979 -0.0870  0.0295
30919W        W46388  11.036   0.829  15.526 -0.0602  0.1574  0.1182
30920W        W46389  10.952   7.254   1.264 -0.1954 -0.0485 -0.3763
30921W        W46390  17.775   5.627   2.100  0.3770 -0.0269 -0.0832
30922W        W46391  12.855   4.864  12.736  0.0526  0.1015 -0.1711
30923W        W46392   9.478  13.537  12.521 -0.1959 -0.0077  0.1289
30924W        W46393  16.207   1.841  13.595 -0.1495 -0.0146  0.0545
30925W        W46394   5.436   4.521  11.135  0.2135  0.0986 -0.0615
30926W        W46395   6.109  15.342   1.482 -0.1254  0.2128 -0.1789
30927W        W46396   7.462  12.472  13.543  0.3022  0.4081  0.2307
30928W        W46397   9.541   1.713   4.780  0.2194 -0.0894 -0.1918
30929W        W46398  15.425  12.273   1.321  0.2545 -0.0852  0.1261
30930W        W46399   9.981   2.025  12.155  0.1149 -0.0361 -0.1541
30931W        W46400  15.084   8.178  10.869 -0.0982  0.1555 -0.2503
30932W        W46401   4.846  15.304  13.385 -0.1066  0.0719  0.4755
30933W        W46402   9.147  12.829   0.129  0.3474 -0.0480  0.1174
30934W        W46403  16.298   3.018  10.069 -0.3336 -0.1065  0.1128
30935W        W46404   2.078  12.145   3.028 -0.0142 -0.0069 -0.0725
30936W        W46405   9.930   7.854  12.178  0.2894 -0.0087  0.4085
30937W        W46406   4.093  13.786   3.953  0.0965  0.0124  0.1687
30938W        W46407   5.993   8.870   0.349 -0.2088  0.0358  0.0575
30939W        W46408  11.218   0.952   1.443  0.1390 -0.1949  0.1333
30940W        W46409   7.572  17.157  11.332  0.1538  0.0493  0.1010
30941W        W46410   6.204  12.822   0.061 -0.0095  0.0114 -0.1001
30942W        W46411  11.224  11.080   2.842  0.0195  0.2517 -0.3415
30943W        W46412   2.559  10.304   0.906 -0.1060  0.2690 -0.2255
30944W        W46413  16.282   1.193   4.734  0.0848 -0.2045 -0.4089
30945W        W46414   4.629   4.004  11.231 -0.2070  0.0337 -0.1250
30946W        W46415  17.314   7.766  12.259 -0.1498  0.2272 -0.0402
30947W        W46416   1.646   0.869   3.038 -0.0331  0.2709  0.2111
30948W        W46417   9.093   8.990   5.991 -0.2451 -0.0777 -0.1394
30949W        W46418  16.615  13.067  10.809 -0.3462 -0.2244  0.0130
30950W        W46419   6.631   7.843  12.329 -0.0598 -0.0525  0.1121
30951W        W46420   3.117   1.414   1.809 -0.0519 -0.1946  0.0376
30952W        W46421   6.429   2.092  11.585 -0.0177  0.0264 -0.1047
30953W        W46422  13.236  11.776  15.168 -0.0172  0.3210 -0.0915
30954W        W46423  17.217   9.470  10.819  0.0576 -0.0319 -0.0154
30955W        W46424   5.657   0.471   4.525 -0.1373 -0.2190  0.3367
30956W        W46425   1.684  11.778   4.473  0.1347 -0.0757  0.3236
30957W        W46426  11.509   1.220  15.626 -0.1659 -0.1222  0.0206
30958W        W46427   8.414   9.106  12.919 -0.0915 -0.1677 -0.1808
30959W        W46428   5.731   3.488   2.216 -0.2614  0.0971 -0.0887
30960W        W46429   1.293   5.820  12.495  0.0153  0.1730  0.2113
30961W        W46430  10.406   2.034  13.606  0.0382  0.0398 -0.4244
30962W        W46431   8.568   8.758   5.768  0.1221 -0.0929 -0.0164
30963W        W46432   5.952  17.671  12.678 -0.1833  0.1499 -0.1261
30964W        W46433   4.408  14.666   5.879 -0.0724 -0.0107 -0.3393
30965W        W46434   1.123   4.224  15.290  0.0431 -0.1458 -0.3793
30966W        W46435  10.529   3.682  16.106 -0.0384 -0.2171  0.2500
30967W        W46436  13.134  11.141  15.857  0.1810  0.0377 -0.1261
30968W        W46437   2.003  16.995  10.990  0.0633  0.1596  0.1567
30969W        W46438   2.248   5.244  11.578  0.1153 -0.3533 -0.0584
30970W        W46439  17.997   3.902   1.471 -0.1569  0.2280 -0.0700
30971W        W46440   2.355  10.638  10.062 -0.2189 -0.0073 -0.1460
30972W        W46441   9.102  16.644   0.346  0.0432 -0.2902 -0.1167
30973W        W46442   3.313  12.966   2.847 -0.0365  0.1858  0.3102
30974W        W46443   2.927   4.222   0.953  0.0650  0.0987 -0.2183
30975W        W46444   3.161  18.062  14.706 -0.0941 -0.0077  0.0365
30976W        W46445   6.827  11.962  14.795 -0.1516  0.0861 -0.2091
30977W        W46446   7.491  10.685  12.481 -0.0542  0.0904  0.0340
30978W        W46447   4.564  14.882  11.476 -0.0092 -0.1330 -0.1320
30979W        W46448  11.335  16.947  13.145  0.2028 -0.2335 -0.3410
30980W        W46449   0.841  16.144   2.484 -0.0961  0.0220  0.0118
30981W        W46450  11.774   0.731   2.673  0.0409 -0.1584 -0.2749
30982W        W46451   1.149  11.590  15.400 -0.2719 -0.0186  0.4092
30983W        W46452   4.506   6.769   4.756 -0.0664 -0.0545 -0.0689
30984W        W46453   2.697   6.655   0.100  0.0332  0.2687  0.1005
30985W        W46454  11.319  14.355  11.150 -0.0355 -0.1310 -0.0428
30986W        W46455  12.083   8.098   4.704 -0.1775 -0.0254 -0.1267
30987W        W46456   4.632   3.869   4.903 -0.2704 -0.0686 -0.0884
30988W        W46457  12.510  13.357  15.596  0.0257 -0.1466  0.0961
30989W        W46458   0.970  11.437  12.561 -0.1488  0.2853  0.0942
30990W        W46459   4.784   2.105   0.097  0.0492  0.2993 -0.1482
30991W        W46460   0.791  15.368   4.491 -0.3050 -0.0262 -0.3314
30992W        W46461   4.223  15.879   5.674 -0.0075 -0.1485  0.1017
30993W        W46462   2.888  15.347  12.491  0.4406 -0.1643  0.2773
30994W        W46463  14.452  11.053   1.712 -0.2058 -0.2515 -0.1957
30995W        W46464   4.864  14.267  16.308  0.0627  0.1306 -0.2623
30996W        W46465  17.272   2.468   0.389  0.0095 -0.3345 -0.1066
30997W        W46466   9.211   3.688   0.228  0.1357  0.1409 -0.1190
30998W        W46467   7.699   4.792  11.426  0.0196 -0.2427 -0.1498
30999W        W46468   3.445   0.662   4.113 -0.1271  0.1875  0.1983
31000W        W46469   1.847  11.892  15.888 -0.2039 -0.2205 -0.0541
31001W        W46470   4.929   4.834   4.225  0.3781 -0.0278 -0.0651
31002W        W46471   9.893   0.049   2.097  0.4185  0.1516  0.1345
31003W        W46472   6.932  13.025   3.634  0.3874  0.0993  0.2836
31004W        W46473   7.227   8.493  15.083 -0.0251  0.2192  0.1837
31005W        W46474  17.795  14.364  13.054  0.1034  0.3622 -0.1736
31006W        W46475  17.839  15.235   3.220 -0.3817  0.0079 -0.1291
31007W        W46476   5.051   4.409  11.714 -0.0624 -0.1153  0.0550
31008W        W46477   3.229   4.998   4.820  0.1258 -0.0011 -0.1519
31009W        W46478  14.358   8.444   5.669  0.0237 -0.0415 -0.0539
31010W        W46479  15.109   9.533  15.084  0.2199 -0.0904 -0.1155
31011W        W46480   3.334   3.862   3.653 -0.1776 -0.4243  0.0618
31012W        W46481   0.289   9.406  15.560  0.1604 -0.0651 -0.3583
31013W        W46482  14.137   9.383  10.556 -0.1104  0.1429  0.0062
31014W        W46483   6.210  15.444   3.633  0.2651  0.0763 -0.0185
31015W        W46484   3.327   6.183  14.586  0.3234  0.0919  0.2940
31016W        W46485  13.937   2.475   4.088 -0.1091  0.0426 -0.2651
31017W        W46486  15.266  15.851  14.832 -0.2079  0.1932 -0.0702
31018W        W46487   4.367   6.457  11.318  0.0125  0.0144  0.0861
31019W        W46488   3.541  17.726  11.528  0.0222 -0.1232  0.0103
31020W        W46489   9.169   3.981   5.545  0.2733 -0.0472  0.2294
31021W        W46490  14.521  11.680   5.632 -0.1169  0.1334 -0.0100
31022W        W46491   9.972   1.496   2.322 -0.0859  0.0447  0.3839
31023W        W46492  12.864  18.005  12.266  0.2738 -0.0465  0.0085
31024W        W46493   7.803  12.545  15.426 -0.2375  0.2056 -0.0771
31025W        W46494   0.678  16.622   5.722  0.1574  0.0938  0.0667
31026W        W46495   9.918  13.258   4.191 -0.1744  0.0820  0.1777
31027W        W46496  14.456   3.892   2.077  0.1381 -0.0608  0.0327
31028W        W46497  15.098  12.536  14.997 -0.0630 -0.0240 -0.3892
31029W        W46498  12.259  16.902   5.022  0.0870  0.0847  0.0734
31030W        W46499  14.789  12.755  13.479  0.1624 -0.0081 -0.0180
31031W        W46500   5.712   7.868   3.185 -0.0162  0.1343  0.2914
31032W        W46501  15.320  10.617  13.363 -0.0981  0.1160 -0.0549
31033W        W46502   3.833  15.374  13.650 -0.0475 -0.2084 -0.1298
31034W        W46503   8.018   6.030  15.224 -0.3712  0.2261 -0.0093
31035W        W46504   8.373  11.369   0.067  0.0340 -0.1524 -0.0099
31036W        W46505   5.150  14.359   4.654 -0.2228 -0.0134  0.0816
31037W        W46506  17.423  10.455   4.348 -0.1107  0.2696 -0.1121
31038W        W46507  10.371  14.322   5.690 -0.1983  0.1970 -0.2290
31039W        W46508   6.133   9.645   1.840  0.1683  0.1609 -0.2413
31040W        W46509  13.157   7.054  13.680 -0.1836  0.0311  0.0198
31041W        W46510   9.651  11.874   3.922  0.0103 -0.1928 -0.0380
31042W        W46511  14.975   4.687   0.153  0.3459  0.3248 -0.1744
31043W        W46512   0.906  14.977   2.253  0.1547  0.1438  0.2289
31044W        W46513   4.223   2.620   5.438  0.2352 -0.1995  0.0316
31045W        W46514   3.631  10.850  14.105 -0.3512  0.2009  0.0935
31046W        W46515  13.301  17.980   0.325 -0.1927  0.0341 -0.1873
31047W        W46516  16.034  11.456  14.987  0.1238  0.1963  0.0769
31048W        W46517  16.263   0.432   3.414  0.1117  0.2267 -0.0547
31049W        W46518   9.478  12.059   4.343  0.0087 -0.0226  0.1213
31050W        W46519  13.707   9.556   6.285  0.0704  0.2621  0.1429
31051W        W46520   8.109  16.164   1.854 -0.1867  0.2714 -0.3554
31052W        W46521  10.588  14.978   4.117 -0.1537  0.0266 -0.0227
31053W        W46522  12.649  16.447  11.219 -0.0734 -0.0525 -0.0381
31054W        W46523   4.838  13.334  12.529  0.1719  0.0302 -0.1534
31055W        W46524  11.274  11.477  11.791  0.2782  0.1508 -0.0477
31056W        W46525  14.152  14.210   5.657 -0.0845  0.1688  0.2272
31057W        W46526   9.686   6.897  12.106  0.1425  0.0683 -0.2212
31058W        W46527   2.605   8.717  14.187  0.0112 -0.1894  0.2044
31059W        W46528  13.585  14.630   4.973  0.2128 -0.2842  0.3772
31060W        W46529   6.214   7.640  12.312  0.0367 -0.1569 -0.1783
31061W        W46530   3.428   8.378   5.391 -0.1638 -0.0362  0.2073
31062W        W46531  16.328  16.938  12.244  0.0470 -0.1394  0.3916
31063W        W46532  16.098  14.688   3.481  0.0615 -0.0061  0.1042
31064W        W46533   7.066  13.596   4.565 -0.0277  0.0910 -0.0951
31065W        W46534  14.878  17.332  12.385 -0.3953 -0.2554 -0.0337
31066W        W46535   2.797  14.122   2.199 -0.0475  0.0271 -0.0232
31067W        W46536  13.446  11.862   3.004 -0.3715 -0.0980  0.0510
31068W        W46537   6.453  11.595  13.128 -0.0314 -0.0538 -0.1077
31069W        W46538   7.333   4.201   3.123  0.0948  0.2089 -0.0763
31070W        W46539   0.171  11.512  14.586 -0.2336  0.1969  0.2358
31071W        W46540   9.360  13.084   1.044  0.1697 -0.0679 -0.0520
31072W        W46541   9.695   1.853   4.058  0.1007 -0.1546  0.1149
31073W        W46542   2.623  13.942  13.619  0.1867  0.0211  0.3024
31074W        W46543   2.397   1.131  13.845  0.0314 -0.0280  0.1363
31075W        W46544  15.865  14.744  13.673  0.2932  0.0807  0.3166
31076W        W46545  11.123  11.373  12.299 -0.1423 -0.2588  0.0650
31077W        W46546  14.661   8.490  14.012 -0.1372  0.3510 -0.1020
31078W        W46547   2.686  14.857  12.659  0.2247 -0.0861  0.1138
31079W        W46548   0.428  11.509  12.304  0.2770 -0.0788  0.0891
31080W        W46549   3.944  12.382   2.511 -0.2039  0.1137 -0.0093
31081W        W46550   3.254  11.905  16.263 -0.1291  0.2948  0.1022
31082W        W46551   0.036  11.400  15.138 -0.0173 -0.1118  0.0872
31083W        W46552  12.814  11.465   1.934  0.2852 -0.1817  0.0938
31084W        W46553  12.532  14.037   4.256 -0.1950  0.0572  0.4434
31085W        W46554   5.299   2.310  15.077  0.3860 -0.0681 -0.1991
31086W        W46555  15.845   3.838   3.227 -0.2605 -0.0872 -0.3274
31087W        W46556   4.619  17.694  16.214  0.4179  0.0619 -0.0767
31088W        W46557   4.151   0.847   5.668 -0.2615 -0.0530 -0.0428
31089W        W46558  11.112  11.016   3.835  0.0417 -0.0794 -0.0142
31090W        W46559   1.625   3.053  13.972  0.0276  0.0254 -0.0101
31091W        W46560   2.547   8.249   2.714 -0.0857  0.0362 -0.0857
31092W        W46561   6.698   0.418   4.701  0.0280 -0.1593 -0.0070
31093W        W46562   4.820   3.588   4.507  0.1729 -0.0931 -0.3749
31094W        W46563  14.265   5.053  13.716 -0.0596 -0.3282 -0.4344
31095W        W46564   3.847  10.903  12.369 -0.0618  0.0498  0.3311
31096W        W46565  11.166  12.925   5.377  0.0912 -0.1265 -0.2458
31097W        W46566  15.192  12.328  11.349  0.3127  0.0819 -0.2660
31098W        W46567  13.939  15.316  13.723  0.0212 -0.1958 -0.1033
31099W        W46568  10.552  14.140   1.700  0.1356  0.4335 -0.1902
31100W        W46569  12.486  10.006  11.998  0.2204  0.0392 -0.0852
31101W        W46570  15.194  17.860   3.302  0.3137 -0.0662  0.0185
31102W        W46571   4.757  12.642  14.284 -0.3147  0.0309 -0.1024
31103W        W46572  16.850   2.594   0.046 -0.1094  0.0725 -0.3572
31104W        W46573   3.209  11.524   2.558 -0.3371 -0.4159 -0.0562
31105W        W46574  11.901   2.436   3.236 -0.0760 -0.0050  0.3354
31106W        W46575  14.596   0.084   2.552  0.0975  0.2002  0.2619
31107W        W46576   2.605  14.858  13.192  0.3006 -0.0745 -0.0313
31108W        W46577   8.494  10.234  11.798 -0.4737  0.0292 -0.1645
31109W        W46578  10.734   4.103   3.292 -0.0001 -0.2289  0.1886
31110W        W46579   0.839  11.235  15.428  0.0934  0.2033 -0.2136
31111W        W46580   9.333   7.003   5.683  0.0294 -0.0471  0.1434
31112W        W46581   8.470   8.157  14.271  0.0396 -0.0423 -0.0832
31113W        W46582  16.810   0.987  15.640  0.0470 -0.0348 -0.4136
31114W        W46583  17.455   7.883   0.324  0.1192 -0.0541  0.1296
31115W        W46584  17.849   6.392  12.367 -0.2485 -0.0712  0.1267
31116W        W46585   8.147  12.757   4.656  0.2135  0.3927 -0.0385
31117W        W46586   1.662   4.990  14.991 -0.0328  0.3600 -0.1059
31118W        W46587   7.085  10.233  14.793 -0.0710  0.0905  0.0551
31119W        W46588   4.783  17.898  13.833 -0.3132 -0.1118 -0.0474
31120W        W46589  12.946   9.243  14.347 -0.0185 -0.2265 -0.0980
31121W        W46590   6.452  15.468   3.172 -0.1102  0.1420  0.2657
31122W        W46591  13.248   6.023   2.423 -0.1155 -0.0518  0.1366
31123W        W46592   7.502  14.267  10.797  0.2019 -0.1334 -0.0681
31124W        W46593  12.106  11.247  11.855  0.0875  0.1463 -0.2404
31125W        W46594  16.115   9.625  14.128 -0.3194 -0.0860 -0.1124
31126W        W46595   2.831  13.594   5.954 -0.0256  0.0175 -0.0789
31127W        W46596   6.621  10.135  14.502 -0.0255 -0.0328  0.0522
31128W        W46597  13.991  13.552   0.889 -0.2316  0.0092 -0.2503
31129W        W46598   0.210   4.752  12.317 -0.0688  0.0332  0.0384
31130W        W46599   7.531  16.689   3.592  0.0555  0.3164 -0.0768
31131W        W46600  12.571   1.472   0.836  0.3578  0.0214 -0.0560
31132W        W46601   2.516  12.091  13.719  0.0748  0.3040 -0.1150
31133W        W46602   6.053   9.039   4.659  0.0167 -0.0515 -0.0772
31134W        W46603   7.812  14.028   4.241 -0.1957 -0.0472 -0.1577
31135W        W46604  16.136   9.530  13.648  0.0544  0.1683  0.0846
31136W        W46605  17.575   7.809  12.694 -0.0612 -0.0239 -0.3137
31137W        W46606   9.902  17.527   2.685  0.2822  0.0954  0.1133
31138W        W46607   8.632  13.148  13.444  0.1377  0.0946 -0.1194
31139W        W46608  10.277   5.408   1.311  0.0316  0.1984 -0.0870
31140W        W46609   6.206  14.211   5.030  0.1355  0.1997 -0.1228
31141W        W46610  14.745   2.360   3.524 -0.2266  0.1184 -0.2557
31142W        W46611  12.487  13.751   3.287 -0.0995  0.0011 -0.1362
31143W        W46612   7.713   0.284  14.280  0.1553  0.0140  0.0817
31144W        W46613  10.947   6.897   0.377 -0.1880  0.1352 -0.1161
31145W        W46614   5.231   6.181  15.743  0.1012  0.0137 -0.4797
31146W        W46615  14.470   9.068   1.484 -0.2114 -0.1780 -0.3136
31147W        W46616  13.159  17.940   4.031  0.1217  0.0979  0.0309
31148W        W46617   7.873   2.335   2.011 -0.1046  0.0120 -0.0920
31149W        W46618   9.276   7.209  11.439 -0.1011 -0.0974 -0.0227
31150W        W46619   7.400  14.374  15.825  0.1262 -0.0863  0.0528
31151W        W46620  16.263  13.681  13.986 -0.0697  0.4958 -0.0279
31152W        W46621  14.770  13.947   3.395  0.1692 -0.3972  0.1640
31153W        W46622   6.070  15.549  15.810  0.2152  0.0331  0.1674
31154W        W46623  15.917  13.386  16.224  0.0181  0.0473  0.1578
31155W        W46624   6.186   6.889   2.124 -0.2426 -0.0328 -0.2370
31156W        W46625  14.048   7.606  16.052 -0.1173  0.1264  0.1890
31157W        W46626   5.489  15.656   0.995  0.0722  0.0637  0.0647
31158W        W46627   2.743  13.853   4.262  0.2753  0.1467 -0.0735
31159W        W46628  11.602   9.579  13.532  0.5688 -0.0058 -0.1135
31160W        W46629  15.445  13.140   1.110 -0.0010 -0.0245  0.0097
31161W        W46630   9.419   5.891  15.080  0.0476  0.0768 -0.1016
31162W        W46631  14.266   0.573  11.086  0.1227  0.2299  0.1020
31163W        W46632   9.006  10.181   5.723 -0.3265  0.1824  0.0954
31164W        W46633  13.178  11.491   5.473  0.1990 -0.0372 -0.1607
31165W        W46634  10.079   4.629  10.395 -0.4847 -0.0108  0.3410
31166W        W46635   9.991   1.069   0.704  0.2746  0.0536 -0.2857
31167W        W46636   9.176   0.945   1.310  0.1507  0.1707 -0.2527
31168W        W46637  13.572  16.978   2.048  0.1552 -0.0968  0.1645
31169W        W46638   8.816  12.115  11.861 -0.1151 -0.0605 -0.0848
31170W        W46639  16.492  15.360   5.444 -0.1100  0.1569  0.0167
31171W        W46640  10.536   0.925  11.618  0.0580  0.3728  0.0194
31172W        W46641  16.465  17.274  14.390  0.0261 -0.1164 -0.0427
31173W        W46642  17.466   1.294  15.047 -0.0805 -0.2895  0.0590
31174W        W46643   3.634   3.343   5.728  0.0500  0.0914  0.2735
31175W        W46644   1.155  16.537   5.466 -0.1019 -0.0841  0.1416
31176W        W46645   3.301  18.081   5.006  0.1986  0.6030 -0.1776
31177W        W46646  15.233  13.285   5.358 -0.0543  0.1512  0.0636
31178W        W46647   2.809  14.787  14.058  0.2345  0.0691 -0.3260
31179W        W46648   4.000   7.160   3.107 -0.1001  0.0118  0.1789
31180W        W46649  14.735   8.049  10.514 -0.0276  0.1430 -0.0160
31181W        W46650  13.039   9.665  15.727 -0.0546  0.0456  0.0870
31182W        W46651  15.059  15.228  10.550 -0.2483 -0.0272  0.1893
31183W        W46652  13.069  15.872   2.119 -0.1013  0.0340 -0.0705
31184W        W46653  12.343   8.839  14.946 -0.1858  0.0093  0.1334
31185W        W46654   3.615  17.882   3.065  0.0750  0.2666  0.0331
31186W        W46655   6.593  14.740   4.052  0.0418  0.0208 -0.0238
31187W        W46656  17.618  15.000  14.158  0.1053 -0.4198 -0.1437
31188W        W46657  14.560  16.751  16.174  0.1128  0.1376  0.1614
31189W        W46658  11.463   0.336  13.607 -0.3608 -0.1448 -0.3823
31190W        W46659  17.180  14.746  13.531  0.0098  0.2875  0.4906
31191W        W46660  10.846  14.570  11.875  0.1415 -0.1188 -0.2219
31192W        W46661  12.235  13.811   2.885  0.0954  0.2794 -0.1584
31193W        W46662  14.674   7.091   0.502 -0.2962 -0.1228  0.0135
31194W        W46663   5.446  12.196   3.313  0.2118 -0.1886 -0.3307
31195W        W46664   5.497  17.589  12.828  0.1337  0.0570  0.1403
31196W        W46665   6.355   2.351  14.690  0.0737  0.0084  0.1521
31197W        W46666  10.442  12.211  14.632  0.0647  0.0135 -0.0220
31198W        W46667   4.034   5.993   1.508 -0.2455  0.1409  0.2038
31199W        W46668  16.533  10.114  10.517 -0.1932  0.1604 -0.0908
31200W        W46669   7.076   5.507  15.548  0.2950  0.4446  0.0410
31201W        W46670   2.613   5.780  10.179  0.2186 -0.0636  0.0039
31202W        W46671  11.003   2.391  14.732  0.3908 -0.2888 -0.1165
31203W        W46672   9.287  11.908   3.541  0.2018 -0.0311  0.1688
31204W        W46673   9.694  10.781   2.905 -0.0201 -0.1040 -0.0983
31205W        W46674  17.928   5.828   3.356 -0.0108  0.1502 -0.0178
31206W        W46675   9.018  15.155   0.209 -0.3090 -0.1164 -0.0177
31207W        W46676  11.981  14.840   3.763  0.1825 -0.1904  0.1069
31208W        W46677  14.093  10.807  11.181  0.0956 -0.4598 -0.1475
31209W        W46678   1.774  17.957   1.496  0.1164  0.1345 -0.0862
31210W        W46679   4.137   7.243   1.788 -0.0510  0.1402  0.2123
31211W        W46680   7.017  12.559  16.051 -0.1564  0.0930 -0.1479
31212W        W46681   8.678   7.056   2.425 -0.0917 -0.1125 -0.4985
31213W        W46682  16.924   1.415   2.432 -0.0480  0.3748  0.0104
31214W        W46683   1.334   1.227   0.576  0.0354  0.1817  0.0525
31215W        W46684   0.475   6.015  11.157 -0.2489  0.1055 -0.0847
31216W        W46685   6.763  11.652  11.099 -0.2102 -0.1074 -0.1438
31217W        W46686   2.527  16.332   1.349 -0.2348 -0.1627  0.0023
31218W        W46687   1.434   8.178   0.670 -0.0170 -0.1472  0.0167
31219W        W46688   2.538   7.744  13.696  0.3815  0.1773 -0.0904
31220W        W46689   2.816  17.014  14.639 -0.0233 -0.2548  0.2489
31221W        W46690   3.521  15.377  15.457 -0.1586  0.1559 -0.0484
31222W        W46691  10.387   1.799   3.190 -0.1994 -0.1464 -0.2121
31223W        W46692  11.792   4.989  14.729  0.0983  0.0020 -0.0482
31224W        W46693  17.096  10.702  13.158  0.1123 -0.0239 -0.0685
31225W        W46694   9.215  13.865   1.333  0.1115 -0.0866  0.0626
31226W        W46695  16.459   8.060   5.069  0.1034  0.0353 -0.1534
31227W        W46696  17.334   8.426   6.058  0.1777 -0.0345 -0.1785
31228W        W46697   9.105  13.710  15.511  0.2461 -0.1973  0.1673
31229W        W46698  13.276   6.753  12.423  0.0632  0.1708  0.1329
31230W        W46699  11.082   1.575   0.201 -0.0090 -0.1627  0.2222
31231W        W46700   6.197   9.414  14.177 -0.1703 -0.3222  0.3425
31232W        W46701   6.391   2.490  12.217  0.0815 -0.0416 -0.3083
31233W        W46702   4.243   9.872  13.676 -0.0964 -0.0736  0.0140
31234W        W46703   7.748  10.117  16.252 -0.1537 -0.1474 -0.2694
31235W        W46704  14.759  10.449   4.405  0.0672 -0.0972  0.0744
31236W        W46705   9.989   7.357   2.247  0.1509  0.0121  0.0575
31237W        W46706  17.226   2.658   2.560  0.0943 -0.1552  0.0140
31238W        W46707   7.049   0.363  12.684 -0.0014 -0.0219 -0.1802
31239W        W46708   0.954  13.827   4.714  0.1519 -0.2164  0.2149
31240W        W46709   3.667   2.142  10.554 -0.2582  0.0194 -0.0396
31241W        W46710   9.123   4.918  14.862  0.0138  0.2365 -0.0593
31242W        W46711  12.826  13.340  11.520 -0.1176  0.1042 -0.0876
31243W        W46712   7.720  11.055  14.787 -0.0904  0.0653  0.1057
31244W        W46713  13.584  14.118   1.484  0.0171  0.2574  0.2766
31245W        W46714   9.389   3.712   3.474 -0.0670 -0.1192 -0.1009
31246W        W46715   6.167  17.397  13.398  0.0829  0.3073 -0.0287
31247W        W46716  12.021   1.953   3.344 -0.0216  0.1311 -0.0631
31248W        W46717  18.087   3.072   0.348 -0.0075  0.0539 -0.0198
31249W        W46718  15.575  12.881   2.318 -0.1866  0.1047 -0.0673
31250W        W46719  12.412  10.688   2.520  0.0848  0.3428  0.1281
31251W        W46720  10.776  16.705  14.789 -0.0615 -0.2484  0.0454
31252W        W46721   4.695  15.605   0.476  0.0302  0.0369 -0.1218
31253W        W46722   4.123   1.932  11.181  0.1611 -0.3475 -0.0355
31254W        W46723   6.412   8.721  14.130 -0.0748  0.0196 -0.0884
31255W        W46724   2.935  16.470   2.507  0.0877 -0.0846  0.1563
31256W        W46725  14.289   6.661  15.862 -0.0968  0.0346 -0.0603
31257W        W46726   3.139   0.996   2.513  0.1930  0.1296  0.0018
31258W        W46727   1.175  10.551  11.472  0.1700  0.1733  0.0961
31259W        W46728   0.287   7.878   5.170 -0.2075 -0.0007  0.1789
31260W        W46729  15.009  16.738   2.071 -0.1674  0.3414 -0.0062
31261W        W46730  10.956  12.884   2.274  0.0449 -0.2399 -0.1503
31262W        W46731  11.638   5.446  13.280 -0.1224  0.1956 -0.2937
31263W        W46732   6.492  13.679  12.915 -0.0959  0.4299 -0.1634
31264W        W46733  13.515  13.081  12.453  0.3584 -0.2053 -0.0353
31265W        W46734  10.665   9.526   1.485 -0.0247 -0.0893 -0.1163
31266W        W46735  10.478  13.302   0.654 -0.0319 -0.1243 -0.2473
31267W        W46736   4.475  14.785   4.347  0.0738 -0.2823  0.3487
31268W        W46737  13.824   7.773  13.360  0.2892  0.0357  0.2652
31269W        W46738   4.277   4.188  12.270  0.2915 -0.2597  0.3997
31270W        W46739  11.622   7.451  11.749 -0.0598  0.1621  0.1399
31271W        W46740  15.834  17.545   1.906 -0.1032  0.0591 -0.3777
31272W        W46741  12.020  10.852   1.540 -0.0757 -0.0935 -0.3420
31273W        W46742   1.837  16.529   0.008  0.0482  0.0402  0.0979
31274W        W46743   1.623   1.974  14.807  0.2643  0.0904 -0.2980
31275W        W46744  12.501   0.216   3.086 -0.1080 -0.0937 -0.1706
31276W        W46745  10.506  13.201   1.534  0.0870 -0.2115 -0.0015
31277W        W46746  10.330   2.288  11.693  0.1993 -0.1150  0.0624
31278W        W46747   8.950   5.542   0.973  0.1924 -0.0331 -0.0642
31279W        W46748   8.758   1.603   3.012 -0.2758  0.0183 -0.0124
31280W        W46749   3.353   7.282  12.425 -0.0710 -0.2092 -0.1356
31281W        W46750  10.154  16.577   3.157  0.2130  0.1640  0.0112
31282W        W46751   5.863   8.144   2.316 -0.1890  0.0133 -0.2532
31283W        W46752   4.540  15.360  14.261 -0.1040  0.0943 -0.0746
31284W        W46753   5.898  14.660  14.835  0.1326 -0.0733  0.2440
31285W        W46754  12.486   9.516  13.529  0.1387  0.1328  0.4029
31286W        W46755  14.675  14.354  13.233 -0.3173 -0.3482  0.0592
31287W        W46756  16.980  13.150  13.773 -0.0847  0.0960  0.0344
31288W        W46757  10.834   1.153   0.050  0.0593 -0.0439  0.2997
31289W        W46758   9.965   4.101   1.764 -0.0498 -0.2022 -0.0394
31290W        W46759   3.189  17.661   0.447 -0.0324 -0.0056 -0.1245
31291W        W46760  10.009  12.472   3.639 -0.0628 -0.2014 -0.3326
31292W        W46761   6.935   0.314   2.286  0.0114  0.0337  0.0596
31293W        W46762   4.789   7.267   4.011  0.2162 -0.1885  0.0047
31294W        W46763  11.190   2.041   5.548 -0.2617 -0.0595 -0.1948
31295W        W46764   3.282   0.365   5.409  0.0937 -0.2821  0.2912
31296W        W46765  17.131   2.248   3.706 -0.3385 -0.0658  0.0265
31297W        W46766  13.659   0.411   2.688  0.1107  0.1011 -0.1303
31298W        W46767   4.439  17.448  14.444  0.1445 -0.0664  0.1498
31299W        W46768   7.118  10.446  12.198 -0.1974 -0.0160  0.0842
31300W        W46769  14.453   2.506   4.347  0.2678  0.2092  0.1376
31301W        W46770   4.292  16.359  11.158  0.3035 -0.0165  0.1739
31302W        W46771  10.100   7.567   3.496 -0.2813  0.1096  0.2102
31303W        W46772  14.560  17.114  10.477 -0.1027  0.0713 -0.4324
31304W        W46773  12.494  11.586   2.311 -0.0387 -0.1576 -0.1784
31305W        W46774   5.275   0.485   3.144 -0.0597  0.1406  0.4987
31306W        W46775   7.073  15.028   3.919  0.0990  0.2030  0.1072
31307W        W46776   7.293  15.785  11.689 -0.0213  0.1185  0.2457
31308W        W46777  10.917  11.054  11.017  0.0180  0.0342 -0.0473
31309W        W46778  10.718  12.515   3.115  0.0685  0.1963  0.1125
31310W        W46779  15.738  14.377  12.377 -0.1423  0.2405  0.1147
31311W        W46780  11.955  16.917  15.310  0.0794 -0.1204 -0.3849
31312W        W46781   2.852   2.602   1.657  0.2212  0.1641 -0.1388
31313W        W46782   2.711  13.570   0.258 -0.0876  0.2518 -0.2418
31314W        W46783   9.071   4.403  13.708 -0.0996 -0.4597 -0.4437
31315W        W46784   7.687   0.256   5.870  0.0657  0.0035  0.1638
31316W        W46785  14.346   0.187   1.056  0.2801 -0.0448  0.1393
31317W        W46786  11.905   5.143   4.807 -0.0792  0.2722  0.0233
31318W        W46787  14.450  10.485  13.234 -0.1830 -0.2786  0.2537
31319W        W46788   2.161  15.112  12.925  0.0698  0.0788  0.1133
31320W        W46789  16.768   1.192   4.565 -0.0711  0.0892  0.0532
31321W        W46790   3.647   9.930  15.722  0.0867  0.0310 -0.0521
31322W        W46791   8.940   8.089   1.740  0.1153 -0.0452 -0.3217
31323W        W46792   0.818   3.566   1.269 -0.0253  0.0288 -0.0109
31324W        W46793   8.390   4.214   0.708 -0.1046 -0.1974 -0.1483
31325W        W46794   6.936   5.177  13.962  0.3597 -0.1770  0.1049
31326W        W46795   5.667   5.887   0.911  0.1525  0.1534 -0.1479
31327W        W46796   1.307  12.822   2.897  0.0453  0.0780  0.1194
31328W        W46797   8.504   0.682   0.271  0.2586  0.0054  0.1037
31329W        W46798  13.249   5.756   0.817 -0.1594  0.2855  0.2750
31330W        W46799  10.389   2.318   3.344 -0.1794  0.0467  0.0229
31331W        W46800   9.040   3.325   1.018  0.0947  0.1045  0.1870
31332W        W46801   1.143  12.348  15.891  0.3122 -0.1882  0.3415
31333W        W46802   0.801   7.252   5.604  0.0537 -0.0955 -0.1601
31334W        W46803   9.210   6.164  13.010 -0.1558  0.0972 -0.0772
31335W        W46804   3.581   8.484  10.423 -0.1879  0.0701  0.3407
31336W        W46805   8.640  15.668  15.142  0.1001 -0.0516  0.1406
31337W        W46806   0.381  13.877   0.145  0.1247 -0.1654 -0.0408
31338W        W46807  15.359   8.322  12.905 -0.2727 -0.1680 -0.1261
31339W        W46808  13.118  10.525   2.915 -0.1427 -0.0031  0.0136
31340W        W46809  15.045  14.712  13.161 -0.2334 -0.2324 -0.1011
31341W        W46810  12.831  12.940  15.432  0.1126  0.0366  0.2818
31342W        W46811  11.945   8.589   2.539  0.1638  0.3310  0.0022
31343W        W46812   4.809   7.206  12.477  0.1421  0.2301  0.1376
31344W        W46813  16.001  14.906  13.186 -0.3514  0.2347  0.0015
31345W        W46814  14.842   2.449   4.727  0.0199  0.1666 -0.0329
31346W        W46815   8.389   2.090   1.163  0.1671  0.1588  0.3249
31347W        W46816  11.069  14.838  11.208  0.0043  0.0085 -0.2943
31348W        W46817   0.774   4.686  12.525 -0.2101  0.0725 -0.3237
31349W        W46818   5.276  11.276   4.924  0.1809 -0.1881 -0.1159
31350W        W46819  14.890   8.566   2.153 -0.0394 -0.1084  0.1028
31351W        W46820   9.990  14.358  13.052 -0.0174 -0.0099 -0.0096
31352W        W46821  11.280  16.974   4.874  0.0905 -0.3453  0.2779
31353W        W46822   0.310  10.589  11.830  0.2982  0.1307 -0.2619
31354W        W46823  16.634   8.953   2.735 -0.0429 -0.1107 -0.1134
31355W        W46824   5.144   0.091  10.007  0.2014 -0.2918 -0.1743
31356W        W46825   4.251   1.067   4.402  0.0603  0.0249  0.2552
31357W        W46826  16.645   1.506  12.940  0.2830 -0.0861  0.0561
31358W        W46827   9.862   1.685  15.744  0.1865 -0.0379 -0.0217
31359W        W46828  12.809   2.037  14.405  0.3599 -0.3156 -0.2845
31360W        W46829  13.153  10.799  15.467  0.2719 -0.1748 -0.1667
31361W        W46830   6.482   7.935  16.194  0.2128  0.1919  0.1320
31362W        W46831  14.457  17.107  12.237  0.0230 -0.0741  0.1822
31363W        W46832  12.170   8.203  11.675 -0.0864  0.0225 -0.4562
31364W        W46833   9.607  14.439  14.001  0.0246 -0.0559 -0.0020
31365W        W46834  11.712   8.987   2.239 -0.1679  0.0267 -0.0502
31366W        W46835   7.471  14.255   0.244  0.0999 -0.1565  0.0178
31367W        W46836  15.762   8.709  15.030  0.2387  0.3023 -0.2977
31368W        W46837  15.058  12.830   4.216 -0.2192  0.0380 -0.1150
31369W        W46838   0.206   3.384  13.100 -0.0057  0.0777 -0.2008
31370W        W46839  14.839  15.485   3.236  0.1259 -0.2051  0.0235
31371W        W46840   3.148  10.933   1.798  0.1152 -0.1968 -0.2150
31372W        W46841   1.083   5.362  10.240 -0.1835  0.0962 -0.2264
31373W        W46842  16.362   9.765   2.346 -0.4586  0.0647  0.2121
31374W        W46843   8.163   1.132  14.312  0.2241 -0.0282 -0.2559
31375W        W46844   0.083   0.592  12.170  0.0151  0.1355 -0.0078
31376W        W46845   6.757  14.854   1.974  0.4518 -0.1244  0.3699
31377W        W46846  11.975   6.379   2.508  0.0175  0.4644 -0.1326
31378W        W46847  11.194  14.539  14.815  0.1907  0.0006 -0.1401
31379W        W46848   5.559  11.148   0.910  0.0193 -0.1316  0.0412
31380W        W46849  15.593  11.300   1.072  0.0069 -0.1454  0.2467
31381W        W46850   0.871   9.845  13.169 -0.2175 -0.0825  0.2912
31382W        W46851   4.030   6.843  10.982  0.1438 -0.1955  0.2927
31383W        W46852   9.442  12.060   2.593  0.1177  0.1236  0.3395
31384W        W46853   7.240   3.545  12.561  0.2678 -0.0796  0.2558
31385W        W46854   6.690  10.051  11.864 -0.0952  0.0398 -0.2536
31386W        W46855  17.413  11.418   6.218 -0.1872 -0.2907  0.2385
31387W        W46856  15.469  17.083  16.289 -0.0299  0.3218  0.3343
31388W        W46857  16.071  11.526   4.248  0.4079 -0.2120 -0.2616
31389W        W46858  16.621  16.370   0.668  0.2367 -0.1390  0.3054
31390W        W46859  16.142   2.605  15.764  0.2958 -0.1664  0.2138
31391W        W46860   3.678  10.384  16.084  0.0802 -0.0858  0.0714
31392W        W46861  18.057   9.344   0.508  0.1262 -0.1810  0.0103
31393W        W46862   3.551   5.389   4.983 -0.0160 -0.0682 -0.0078
31394W        W46863  14.097  10.063   0.889  0.0261 -0.3947  0.1877
31395W        W46864   3.407  16.676  12.288  0.2565  0.0309 -0.1380
31396W        W46865   1.342   9.981   0.747  0.1479 -0.0554  0.0072
31397W        W46866  10.328  12.216  13.681  0.0046  0.3774 -0.2459
31398W        W46867   2.349  12.483   4.283  0.3414  0.2745 -0.1895
31399W        W46868   6.852   4.033  15.520 -0.0810 -0.3078 -0.0290
31400W        W46869   4.941   6.207   0.796  0.0181  0.0251 -0.1554
31401W        W46870   2.356  17.168   3.008  0.1836 -0.0450 -0.0611
31402W        W46871   8.370  10.851   0.904  0.1014 -0.0131 -0.1019
31403W        W46872   5.332  17.806  11.098 -0.1901 -0.0395  0.2564
31404W        W46873  12.410   1.888   3.618 -0.1892  0.0254  0.1129
31405W        W46874   3.474   5.521  12.073 -0.0192  0.0651 -0.1663
31406W        W46875  13.896   2.141   0.090  0.0534  0.0855  0.1628
31407W        W46876   0.120   1.946   0.163  0.1849  0.0632  0.2735
31408W        W46877   1.436   5.178  13.919 -0.0649  0.0288 -0.1919
31409W        W46878  13.188  12.639   1.688 -0.3002  0.2100 -0.4110
31410W        W46879   1.624  17.757  15.248 -0.3372  0.2072 -0.1852
31411W        W46880   4.743   0.328  11.808 -0.0832  0.1746  0.4939
31412W        W46881   6.665   9.122  12.713 -0.3780 -0.1602  0.0948
31413W        W46882  16.683   0.073  11.989 -0.0952  0.0138 -0.0751
31414W        W46883  11.494   0.460   1.415 -0.0071  0.2560 -0.0353
31415W        W46884   6.957   2.523  15.439  0.1393 -0.0324  0.0029
31416W        W46885   3.332  13.469  13.303 -0.0373  0.1909  0.1284
31417W        W46886   9.703   6.095   0.209  0.0252 -0.3107  0.0534
31418W        W46887  17.843  15.390  13.368 -0.1658 -0.0765  0.1436
31419W        W46888  10.795  15.295  13.836 -0.1633 -0.0551  0.0791
31420W        W46889  16.609   0.087   4.793 -0.1772 -0.0679  0.1968
31421W        W46890  17.563   6.545  11.664  0.3144 -0.2483 -0.2176
31422W        W46891   9.466   1.671  15.208  0.3471  0.0487 -0.0715
31423W        W46892   8.456   0.793  14.536 -0.1032  0.1278  0.1292
31424W        W46893   7.380  16.914  14.514 -0.1750 -0.0281 -0.2659
31425W        W46894   4.216   7.353   3.828 -0.1462  0.3546 -0.0553
31426W        W46895  14.710   6.339   0.255 -0.1544 -0.0456  0.0352
31427W        W46896  16.664  14.082   3.054  0.1059  0.0072 -0.2070
31428W        W46897  13.967  17.558   0.806 -0.0350 -0.0983  0.0212
31429W        W46898   8.265   5.224   6.398  0.1506  0.4216  0.2301
31430W        W46899  14.226  15.407   4.948 -0.2444  0.0879  0.0207
31431W        W46900   8.849  14.785   0.980  0.0089  0.0614  0.1520
31432W        W46901  15.090  13.399   4.301 -0.3622  0.2039  0.1171
31433W        W46902   4.005   7.825   0.156 -0.0153  0.2290  0.0016
31434W        W46903   9.737  15.675   1.832 -0.1049  0.0330 -0.0437
31435W        W46904   0.156   8.867   0.614 -0.3766  0.1613 -0.0029
31436W        W46905   4.586   2.125  11.280 -0.3927  0.1683 -0.0997
31437W        W46906   4.790  10.970   2.027  0.3894  0.1933  0.1363
31438W        W46907  17.634   1.758  12.398  0.1783 -0.0542  0.2077
31439W        W46908  12.167  11.241  15.645 -0.1095  0.0888 -0.4565
31440W        W46909  12.666   1.264  16.097  0.3202  0.0661 -0.0657
31441W        W46910   9.835  11.576   5.304  0.0285 -0.2005 -0.0197
31442W        W46911   7.202   1.190   4.977  0.2017 -0.0686 -0.0043
31443W        W46912   8.884   3.308  11.961  0.0986 -0.0431 -0.0851
31444W        W46913   9.004   6.320   5.385 -0.1081 -0.0733 -0.0196
31445W        W46914  11.591   7.845   4.659 -0.1157  0.0663 -0.1366
31446W        W46915   6.106   3.163  13.810  0.1948  0.1058  0.0753
31447W        W46916   1.378   2.174   2.361  0.0261 -0.3746 -0.0750
31448W        W46917   1.732   3.954  11.102  0.1903 -0.0141  0.0376
31449W        W46918   5.153  11.692   0.399  0.0408 -0.0049  0.1291
31450W        W46919  14.511   0.061   0.207 -0.0457 -0.2283  0.0895
31451W        W46920   1.920  18.023   2.714 -0.2524  0.2179 -0.0109
31452W        W46921   6.322   6.067  13.612 -0.2060  0.3239 -0.2121
31453W        W46922  13.990  10.168  15.045 -0.0455  0.0270 -0.0016
31454W        W46923  15.169  16.286   5.248 -0.0102 -0.0472  0.0156
31455W        W46924   3.406   1.580   5.407  0.2986  0.0597 -0.0285
31456W        W46925   6.696  13.113   5.169  0.1642  0.3212 -0.0184
31457W        W46926  14.935   7.635  10.173  0.2899 -0.0219  0.0506
31458W        W46927  17.862  17.577  15.743  0.0247 -0.0164 -0.1884
31459W        W46928   3.202  14.186   4.827  0.0101 -0.0663  0.1356
31460W        W46929  17.426   2.124   5.230  0.0011  0.0069  0.0643
31461W        W46930   2.069  13.779   3.658 -0.2189  0.1138 -0.1262
31462W        W46931  11.108   4.848   3.719 -0.1562 -0.0015  0.0264
31463W        W46932  16.630  15.826   1.829 -0.1499 -0.0110 -0.0495
31464W        W46933  12.165   4.904  13.801  0.0900 -0.0517  0.1174
31465W        W46934  13.546  18.073  12.377 -0.1681  0.1638  0.2055
31466W        W46935   8.184   8.099  13.109  0.0255 -0.0824  0.1628
31467W        W46936  17.855   3.913   2.645  0.1536  0.0276 -0.0174
31468W        W46937  16.065   4.197  13.495 -0.2032  0.2876  0.0491
31469W        W46938  15.986  12.690   5.203  0.0737  0.0618 -0.0482
31470W        W46939   6.653   7.307  12.606 -0.1100  0.0117  0.3151
31471W        W46940  13.780   4.540   1.849 -0.2223 -0.0873 -0.0792
31472W        W46941   4.573   0.608  15.241  0.0411 -0.2553 -0.0910
31473W        W46942  17.983   1.395  12.372 -0.2990 -0.0109 -0.0395
31474W        W46943   8.967   1.337  15.849  0.2065 -0.1261 -0.0386
31475W        W46944  16.844  17.534   1.823 -0.0759  0.1139  0.1182
31476W        W46945   0.097  11.366   5.073  0.2552  0.1565  0.1509
31477W        W46946  10.247   8.642   1.634  0.0835 -0.2738 -0.1019
31478W        W46947  16.762   9.900  12.772  0.0998 -0.1283 -0.1374
31479W        W46948  13.217  13.983   0.765 -0.0419 -0.0053 -0.3034
31480W        W46949   9.916  11.877   3.464 -0.0753  0.1644  0.1267
31481W        W46950   4.965  14.336  11.449  0.0252 -0.0427  0.3287
31482W        W46951   5.313   0.376   1.986 -0.0580 -0.2880 -0.2738
31483W        W46952  17.539   6.633   5.527 -0.0749 -0.2400 -0.0256
31484W        W46953   0.594   3.420   3.426 -0.0746  0.1336 -0.1932
31485W        W46954   4.774   0.281  14.318  0.0671  0.0372 -0.0541
31486W        W46955  16.991   0.196  14.002  0.0467  0.1690  0.2226
31487W        W46956   0.695  15.031   3.050 -0.0396 -0.0317 -0.1454
31488W        W46957   4.657  11.950   2.095 -0.0359  0.2070  0.2185
31489W        W46958  18.076  13.561   3.638 -0.2922  0.1862  0.1317
31490W        W46959   6.659   6.015   2.172 -0.1298  0.0901 -0.2790
31491W        W46960   5.798  13.149   4.800 -0.2685  0.2554 -0.3965
31492W        W46961  17.002  15.133   0.503 -0.2359 -0.1128 -0.1717
31493W        W46962   2.967   1.642  14.848  0.1489 -0.1848  0.0372
31494W        W46963   7.155  16.098  12.053 -0.0293 -0.0695 -0.0674
31495W        W46964   0.369  12.045  14.440  0.2484 -0.0294 -0.1611
31496W        W46965   1.723  10.862   3.494  0.0012 -0.0123 -0.0897
31497W        W46966  12.133   8.297  12.750  0.0635 -0.1034  0.1056
31498W        W46967  16.123   2.514  12.001 -0.0986 -0.0360  0.0362
31499W        W46968   1.516  11.238   2.300 -0.1066  0.4560 -0.3083
31500W        W46969  16.065   0.488   0.826  0.1952  0.1532  0.1010
31501W        W46970   8.508  13.497  11.353  0.3070 -0.3438 -0.1994
31502W        W46971   7.568   5.754   0.145 -0.0970 -0.0270  0.1449
31503W        W46972  16.800  10.276  15.312 -0.0805 -0.0928 -0.0539
31504W        W46973  11.140  11.149   6.173 -0.2700  0.2659  0.2554
31505W        W46974  10.775   8.689   1.667  0.0086  0.0734  0.2544
31506W        W46975   4.877  15.424  13.885 -0.1014 -0.0680 -0.2417
31507W        W46976   9.742  14.995  12.021  0.0195 -0.0463  0.1784
31508W        W46977   9.006  17.559   4.122  0.0830 -0.0239  0.0823
31509W        W46978   6.406   6.065  15.024 -0.1515  0.1610  0.0145
31510W        W46979   0.246  12.327   3.301  0.1977  0.2414  0.0502
31511W        W46980   0.466   5.172   1.526  0.1776 -0.0955 -0.0360
31512W        W46981  11.431  10.072   2.514  0.2729  0.2997  0.3228
31513W        W46982  11.629  17.649   0.426 -0.0903 -0.3660  0.1867
31514W        W46983  16.206  15.146  12.641  0.5087 -0.0680 -0.0931
31515W        W46984   2.599   6.109  10.597  0.1617 -0.1213 -0.1997
31516W        W46985   7.053  12.750   0.450  0.0763  0.1554 -0.0139
31517W        W46986   8.112  15.885   4.111  0.0525  0.3362 -0.1742
31518W        W46987  16.613  10.555   4.425 -0.1397  0.0646 -0.1493
31519W        W46988  12.459   7.049  13.025  0.0049 -0.0361 -0.0608
31520W        W46989   4.252   6.514   5.280  0.1246 -0.1080 -0.1496
31521W        W46990   0.425  12.737  15.293  0.0726  0.1199 -0.2251
31522W        W46991  10.958   3.662   1.848 -0.0146  0.0297  0.2430
31523W        W46992   2.313   3.247   1.169  0.3517  0.0057 -0.2044
31524W        W46993  12.187   2.812   5.214 -0.2170 -0.0275  0.2385
31525W        W46994   1.883   5.491   0.184  0.2216 -0.1253  0.0004
31526W        W46995  17.173  13.475  13.476 -0.1123  0.0209 -0.0533
31527W        W46996   1.818  11.714   5.351  0.1792 -0.1533 -0.0533
31528W        W46997  11.916  11.221   3.373  0.1202  0.1154 -0.1431
31529W        W46998  13.092   7.952   0.545  0.2124 -0.2574 -0.0489
31530W        W46999   4.793  15.165  12.931 -0.2293  0.0950 -0.1756
31531W        W47000   9.697  14.018  16.004  0.2392 -0.4657  0.0470
31532W        W47001   8.559   0.855   5.042 -0.0115 -0.1855  0.2992
31533W        W47002  11.787   5.557   1.522 -0.2980 -0.2412  0.2208
31534W        W47003  13.088   2.654  14.132  0.2374  0.0760 -0.1045
31535W        W47004   5.160  15.982  15.321 -0.2037 -0.4033  0.1914
31536W        W47005   4.066   7.301  14.066 -0.1866  0.2145  0.2933
31537W        W47006   3.481  17.142   0.335 -0.2182 -0.0642 -0.0801
31538W        W47007   6.113   1.841  16.245 -0.0867 -0.0806  0.1007
31539W        W47008  12.491   6.466  12.073  0.2026 -0.0125 -0.2991
31540W        W47009   0.863  17.904  11.099 -0.1781 -0.0347  0.0943
31541W        W47010  13.428  15.628  12.794 -0.1656 -0.0007 -0.0659
31542W        W47011  12.370   8.908   2.478 -0.0792  0.0701  0.0987
31543W        W47012  12.599  10.451   1.498 -0.0575  0.3609 -0.1650
31544W        W47013  12.457  12.237  14.809  0.0670  0.0099 -0.2033
31545W        W47014  17.445  16.822   0.611 -0.1174 -0.0122 -0.1026
31546W        W47015   1.716   4.092  12.952 -0.0167 -0.0444 -0.2226
31547W        W47016   7.077   9.016   1.428 -0.0370 -0.0378 -0.0696
31548W        W47017  15.929  12.667   0.422  0.1586 -0.1599  0.0170
31549W        W47018  11.918  12.849  13.870 -0.1336 -0.0677  0.0621
31550W        W47019   3.224  14.130  11.421  0.1935 -0.0183 -0.1766
31551W        W47020   6.503  15.493   1.160  0.0515  0.0820 -0.0593
31552W        W47021   5.968   0.914  11.320  0.1042  0.0176 -0.1636
31553W        W47022  13.758   9.118   2.908  0.0882  0.0118 -0.2604
31554W        W47023  13.944  10.110  12.254  0.0801 -0.0699  0.2594
31555W        W47024   0.462   7.280   0.589  0.3374  0.0995  0.0678
31556W        W47025  16.000  13.481   4.664 -0.1960  0.1810 -0.0656
31557W        W47026  16.974  10.159   4.285  0.2207 -0.3237 -0.1483
31558W        W47027  17.515   7.650   1.971  0.0151  0.0043 -0.3738
31559W        W47028  11.098  12.468  15.818  0.2244  0.1811 -0.1762
31560W        W47029   8.146  11.980  12.318  0.0906 -0.0245  0.0374
31561W        W47030  13.599  14.699  14.005  0.1233 -0.3006 -0.0721
31562W        W47031   0.382  14.119  12.454  0.1039 -0.1174 -0.1011
31563W        W47032  11.144  11.313  15.454  0.1589  0.0887  0.2844
31564W        W47033   4.091  12.184  16.199  0.0404 -0.2268  0.0252
31565W        W47034  16.540  15.584   0.163 -0.0177  0.3860  0.2127
31566W        W47035   1.742   8.127   1.067  0.0630 -0.0060  0.3106
31567W        W47036  16.105  13.150   0.282 -0.1307 -0.0608 -0.0500
31568W        W47037  17.284   8.060   5.507 -0.2731 -0.1632 -0.0949
31569W        W47038   6.938  14.413  14.362 -0.0085  0.0700 -0.0301
31570W        W47039  15.775   6.653  15.909 -0.1194  0.2091 -0.3665
31571W        W47040  10.364  17.345  13.201  0.1039 -0.1500 -0.1600
31572W        W47041   7.548  11.356  14.296 -0.3071 -0.3217  0.1542
31573W        W47042   9.867  16.113   2.915  0.0443  0.1224  0.3344
31574W        W47043   8.117  14.329   3.480  0.0640 -0.0475 -0.0682
31575W        W47044   9.792   3.379  14.292  0.1335 -0.2423 -0.2679
31576W        W47045   2.818   0.049  12.329  0.1908 -0.1751  0.3107
31577W        W47046   1.008   1.844  14.246 -0.0032  0.2165  0.0811
31578W        W47047   2.450  17.395  11.262  0.2310  0.0521  0.1777
31579W        W47048   9.048   9.744  12.869 -0.0491 -0.0236 -0.1694
31580W        W47049  13.446   0.409  15.404  0.0447 -0.0750  0.1684
31581W        W47050   6.951   4.293   3.446 -0.1803  0.1053 -0.0036
31582W        W47051   8.025  11.186   0.707  0.0883 -0.0464 -0.1251
31583W        W47052   5.762  11.174  12.286  0.0981  0.3078 -0.1632
31584W        W47053  15.974   6.970  11.801  0.0857  0.1574  0.1129
31585W        W47054  11.705   8.474   3.481  0.1981  0.2708 -0.0011
31586W        W47055  13.257  17.726  11.914  0.1159 -0.3286  0.0332
31587W        W47056  11.904   1.402  13.511  0.3613 -0.1249  0.0069
31588W        W47057   6.467  17.614  12.902  0.1210 -0.0628 -0.3947
31589W        W47058  16.457   6.110  14.123 -0.0284  0.0537  0.0168
31590W        W47059  11.288   9.211  11.633 -0.0179  0.0589  0.2887
31591W        W47060  11.098  14.638   2.867  0.0155  0.2930  0.1063
31592W        W47061   2.095   0.520  12.567  0.0728 -0.0287  0.1465
31593W        W47062   0.330   4.286  11.213  0.1109  0.1127 -0.0725
31594W        W47063   6.064  13.077  15.657 -0.0557  0.0904  0.2754
31595W        W47064   3.093  12.644   3.658 -0.0102  0.2282 -0.0807
31596W        W47065  10.970   9.877  15.036  0.1194 -0.2399  0.0640
31597W        W47066  16.612   2.113  13.463 -0.2995 -0.0167 -0.1988
31598W        W47067  15.823   9.506   5.150 -0.0241  0.3166  0.0602
31599W        W47068  10.222  12.174  11.482 -0.0451  0.0700  0.1151
31600W        W47069   6.560   1.449   5.856  0.1043 -0.1145  0.0280
31601W        W47070  18.065   2.010  13.412  0.1757  0.1334  0.1641
31602W        W47071  14.064   1.087  10.692 -0.1227  0.0837 -0.0271
31603W        W47072   9.606  14.930   1.557  0.1146 -0.1650  0.1600
31604W        W47073  15.076   1.201   0.756  0.0805  0.4013  0.1620
31605W        W47074   7.000   3.712  12.012 -0.2209 -0.0879 -0.2617
31606W        W47075   1.145   0.782  14.243 -0.0186  0.0251 -0.1504
31607W        W47076  17.281   3.873  15.729 -0.0262 -0.1565  0.0968
31608W        W47077   0.149   9.548   1.142 -0.0463  0.0109  0.1687
31609W        W47078   5.297   7.412  12.580  0.0913 -0.0300  0.0163
31610W        W47079  17.668  11.850   3.510  0.1545  0.0994 -0.1336
31611W        W47080  10.801  12.357   1.633 -0.0409 -0.1835  0.3501
31612W        W47081   4.393   0.974   1.088 -0.1140  0.0875 -0.2381
31613W        W47082   2.400   7.341  12.876  0.1575  0.2019 -0.3528
31614W        W47083  10.689  12.119   4.303 -0.0680 -0.0643 -0.2240
31615W        W47084  14.306  18.076  15.513 -0.0446  0.0351  0.0701
31616W        W47085  17.535   2.314   1.210 -0.1557  0.1550  0.1496
31617W        W47086   0.230  11.318   3.489 -0.0910  0.1405  0.1177
31618W        W47087   5.465  12.270  15.679  0.1580  0.2692  0.0834
31619W        W47088   2.693   6.108   1.948  0.0622 -0.0924  0.0043
31620W        W47089  15.755   5.486   1.132 -0.1666 -0.0592  0.0143
31621W        W47090  13.581   3.614  14.712  0.0515 -0.0312  0.1157
31622W        W47091   0.345  10.390   3.166 -0.1686 -0.0323  0.1446
31623W        W47092   7.973  14.770   0.398 -0.0881  0.1681 -0.2262
31624W        W47093  12.122  17.624  14.679  0.1287 -0.1930 -0.1160
31625W        W47094   4.828   1.148   2.717 -0.1927 -0.0529  0.2037
31626W        W47095  11.397   9.960   0.727 -0.1630 -0.0977  0.1350
31627W        W47096  14.327   5.638   4.176  0.0527  0.0258  0.1715
31628W        W47097   7.395  16.086   4.886 -0.0177  0.0084  0.2342
31629W        W47098   0.350   1.986   1.254 -0.1603 -0.0035  0.2085
31630W        W47099  15.265   6.265   1.747  0.0704 -0.1028  0.2471
31631W        W47100   3.615   5.537  14.041  0.0451  0.3281  0.0035
31632W        W47101   0.745  12.499  15.569  0.1342  0.2369  0.2245
31633W        W47102   7.843   1.147  16.236 -0.1251 -0.2098 -0.1126
31634W        W47103   8.021   4.683   5.734  0.3576  0.1597  0.0784
31635W        W47104   5.498  16.480   2.727  0.3176 -0.2296  0.1755
31636W        W47105  13.160  13.985  13.737 -0.0613  0.2048  0.1677
31637W        W47106   4.492   3.025   3.798  0.0218 -0.0644 -0.1954
31638W        W47107  15.891  16.790  16.124  0.0126  0.1350 -0.3198
31639W        W47108  12.289   6.207   4.101  0.3059 -0.0566 -0.1418
31640W        W47109  17.583  14.594  16.229  0.0433  0.3767  0.2558
31641W        W47110  16.837  14.439   3.368 -0.3434  0.0569  0.0172
31642W        W47111  14.427  16.197   1.199 -0.1239  0.0724  0.2089
31643W        W47112  11.209  10.210  11.822  0.1365  0.0686  0.0309
31644W        W47113  13.208  17.311  11.635 -0.0573 -0.0575 -0.3553
31645W        W47114   1.397  16.240  14.205 -0.2140 -0.1007 -0.1380
31646W        W47115   2.280  15.344   1.787 -0.0977  0.0140 -0.0944
31647W        W47116   1.340  17.305  15.316 -0.4113 -0.0764  0.0828
31648W        W47117   3.337   1.784   3.509 -0.0032  0.1505 -0.0495
31649W        W47118   1.505   9.667   2.172  0.3188  0.2543 -0.1812
31650W        W47119  12.938   8.917  13.389 -0.2517  0.3759  0.3601
31651W        W47120   5.204   7.783   3.417 -0.3458  0.1992 -0.0455
31652W        W47121   5.328  17.454  11.595  0.1637 -0.0187 -0.4566
31653W        W47122   7.057   1.246  16.170 -0.2839 -0.2087  0.0225
31654W        W47123   6.989   6.471   3.399  0.0772 -0.2789 -0.0471
31655W        W47124   5.737   3.142  12.915 -0.3972  0.0518 -0.0103
31656W        W47125   8.635   9.979   3.335  0.1011  0.3105 -0.2359
31657W        W47126   4.071  17.700   3.216  0.2508  0.0739  0.0163
31658W        W47127  17.448  16.089   1.327 -0.0890  0.1052  0.0518
31659W        W47128   7.351   6.791  14.192 -0.0637 -0.1501 -0.3708
31660W        W47129  11.766   0.075   4.668 -0.1578 -0.0824  0.4479
31661W        W47130   6.781   0.097   3.427  0.1662  0.1834 -0.2189
31662W        W47131  10.446   4.456   2.656  0.2885  0.0989  0.0633
31663W        W47132   1.110  14.326   1.850 -0.1891  0.0112  0.0262
31664W        W47133   2.059  13.873   0.821 -0.1541  0.1670 -0.0538
31665W        W47134  14.596  12.725   4.038  0.0699 -0.2100  0.2182
31666W        W47135   1.107  13.800   3.649  0.1867 -0.0338 -0.2195
31667W        W47136   5.048   6.750  14.797  0.1127 -0.0692  0.0779
31668W        W47137   9.165   9.363   3.524 -0.1000  0.1276  0.0744
31669W        W47138  12.745   0.360  14.538  0.2270 -0.0178  0.1127
31670W        W47139   2.602  17.960  16.183  0.0035 -0.1263  0.0877
31671W        W47140  10.992   6.159  15.094  0.0693 -0.2609 -0.2448
31672W        W47141  12.827  11.892  13.509 -0.1020  0.1257 -0.0768
31673W        W47142  17.219  14.888   2.669  0.2167  0.0988  0.3895
31674W        W47143   1.897  10.972   5.124 -0.3072 -0.1781  0.1584
31675W        W47144  12.376   6.906  14.400 -0.1110  0.1641 -0.2238
31676W        W47145   2.799  12.497  10.691 -0.4581 -0.1512  0.0301
31677W        W47146   6.980   4.707  11.909  0.2532  0.2276  0.2173
31678W        W47147  18.064  17.181   3.780 -0.2432  0.3046 -0.1507
31679W        W47148   3.936   0.686   4.229  0.0691 -0.2447 -0.0389
31680W        W47149   6.572  16.113  11.785  0.2252 -0.1690 -0.0460
31681W        W47150   7.644  13.018   4.812  0.0648 -0.1497 -0.1950
31682W        W47151   5.714   8.133   1.845 -0.0750 -0.0769  0.1833
31683W        W47152   9.068   7.751  11.396  0.4099  0.2458 -0.4334
31684W        W47153  11.311   9.598   3.384 -0.5033 -0.1613  0.3176
31685W        W47154  17.220   8.656  14.116 -0.0676  0.0566  0.0741
31686W        W47155   4.150   2.432  14.762  0.0305  0.0762 -0.0937
31687W        W47156  16.778  12.955   5.392 -0.0052  0.3198 -0.2468
31688W        W47157   6.534  12.895  15.933 -0.1434  0.2725 -0.1211
31689W        W47158   3.864  15.346  12.324 -0.0546  0.1532  0.0049
31690W        W47159  15.661  15.972  10.825  0.2604 -0.0312  0.0686
31691W        W47160   2.483   1.983  10.591 -0.1859 -0.2853  0.0312
31692W        W47161   5.507  12.555  16.120  0.3014  0.0297 -0.0972
31693W        W47162  12.148   8.867   1.988 -0.3333  0.0368 -0.0564
31694W        W47163  11.037  10.704  14.761 -0.0932 -0.0567  0.0204
31695W        W47164   0.039   9.280   3.231  0.0573  0.0322 -0.1781
31696W        W47165   9.917  11.551   2.125  0.1968  0.2061 -0.0842
31697W        W47166   1.593   6.941   0.521 -0.3706  0.0270  0.1256
31698W        W47167   9.789   5.052  13.111  0.2974 -0.0698  0.1899
31699W        W47168   9.799   8.138  13.139  0.0426 -0.2295  0.0486
31700W        W47169   1.797  15.142  15.585 -0.0267  0.0023 -0.0732
31701W        W47170   8.285  13.335  11.750  0.0496  0.0407 -0.1025
31702W        W47171   7.885   6.096   2.553  0.0702 -0.1333  0.0540
31703W        W47172  13.541   4.866   0.901 -0.2800 -0.2117 -0.1250
31704W        W47173  11.920  12.103  11.968 -0.2051  0.0298 -0.1920
31705W        W47174  12.949   9.337  12.090 -0.0305 -0.3918  0.1889
31706W        W47175   3.519   2.473   4.666 -0.2437  0.2999  0.2271
31707W        W47176   5.401   4.138  13.201  0.0226 -0.3180  0.3049
31708W        W47177  11.647   8.335   4.615  0.1800  0.0530 -0.0759
31709W        W47178   2.030   6.182  13.826 -0.2507 -0.2732 -0.2164
31710W        W47179   7.808   7.736   3.115 -0.1113  0.0419 -0.2637
31711W        W47180  18.094   6.305   0.416 -0.2134  0.5110  0.0313
31712W        W47181   4.057   7.597  14.493  0.2725  0.2645 -0.1470
31713W        W47182  16.380  10.656  13.260 -0.0603 -0.0010 -0.0831
31714W        W47183   7.967   5.438   4.271  0.0448 -0.1486 -0.2232
31715W        W47184   5.717   7.940   5.501  0.0402  0.5492 -0.0072
31716W        W47185  11.580  13.678  14.330  0.2029 -0.0658 -0.0285
31717W        W47186  13.119   2.890  15.676 -0.0568  0.2852 -0.1315
31718W        W47187  15.944  10.508   6.346 -0.2646  0.0445  0.0350
31719W        W47188   5.090   0.736   2.685  0.2999 -0.0344  0.1837
31720W        W47189   3.187   7.508  11.186 -0.6555 -0.2293 -0.0757
31721W        W47190  17.790   6.091  12.760  0.0043  0.0799  0.0438
31722W        W47191  17.140   6.195  13.275  0.1077  0.1354  0.0698
31723W        W47192   4.985  14.856   4.508 -0.0111 -0.0560  0.0454
31724W        W47193   5.465   1.540   1.105 -0.2466 -0.1055 -0.1117
31725W        W47194  12.782  10.229  14.037  0.1149 -0.0841  0.0567
31726W        W47195   7.677   2.068  16.219  0.0642  0.3923 -0.2268
31727W        W47196   9.877   4.929  13.642 -0.2474  0.0502  0.1903
31728W        W47197  12.287  14.921   0.211 -0.2046  0.0170  0.1886
31729W        W47198   9.054  17.004   2.318 -0.1817 -0.1771 -0.1113
31730W        W47199   8.199   0.913  13.744 -0.2079  0.0172 -0.0026
31731W        W47200   0.099   1.094  12.990 -0.2349 -0.0133  0.1459
31732W        W47201   7.067   7.237   5.588  0.2497 -0.1939 -0.1606
31733W        W47202   5.178   3.662   2.368  0.0927  0.0005 -0.3374
31734W        W47203   7.351  12.981   0.755  0.1275  0.1650  0.2283
31735W        W47204   5.004   0.035  10.963 -0.0990 -0.2803  0.2560
31736W        W47205   8.182   7.267  14.251  0.3054  0.0277 -0.3664
31737W        W47206   9.178  14.729   4.297  0.2216 -0.1217  0.1821
31738W        W47207   0.961  10.019   1.500 -0.1656 -0.1840  0.1038
31739W        W47208   8.521   9.665  16.221  0.0890 -0.1194  0.1127
31740W        W47209  12.738   1.509   3.451 -0.1489 -0.0514 -0.2225
31741W        W47210  17.306   3.999  10.395 -0.1333 -0.1693 -0.0358
31742W        W47211   1.354   7.987  12.967 -0.0744 -0.0722  0.2405
31743W        W47212   1.385  11.109   4.969 -0.2075  0.0701  0.2887
31744W        W47213  17.415   5.293   2.286  0.0816  0.0729  0.1719
31745W        W47214   8.691   3.619   4.015 -0.1146  0.1549 -0.1454
31746W        W47215  15.830  15.101   4.869  0.0528  0.0485 -0.1571
31747W        W47216   6.881   1.876  11.607 -0.2873  0.1455  0.1012
31748W        W47217   7.435   7.699   0.106  0.0545 -0.1976  0.2522
31749W        W47218  17.295   0.253   0.939 -0.0039  0.0466  0.0608
31750W        W47219  14.407   7.988   2.386  0.4493  0.1640 -0.1439
31751W        W47220  17.614  13.500  12.381  0.0438 -0.0451  0.0071
31752W        W47221  15.763   0.845  14.694 -0.3989  0.1463 -0.0358
31753W        W47222   4.649   6.736   1.925 -0.0620 -0.3530  0.0386
31754W        W47223   2.924   2.410  13.019  0.0884 -0.0637  0.1061
31755W        W47224  18.030   5.208   1.381 -0.2658  0.0512 -0.0743
31756W        W47225  15.694   9.732   2.809 -0.1849 -0.1161  0.0583
31757W        W47226   2.419   6.420  15.330 -0.0675  0.0440 -0.0065
31758W        W47227   4.117   0.986  15.153 -0.1247  0.1500  0.0091
31759W        W47228   4.179  14.822   4.967  0.0490 -0.0873  0.0004
31760W        W47229   4.437   8.429   1.292 -0.0573 -0.0047 -0.2765
31761W        W47230   4.855   1.716  15.970  0.0121  0.2376 -0.0243
31762W        W47231  17.561  15.240   1.382  0.1276 -0.0982  0.1351
31763W        W47232  11.522   4.137   3.543  0.0455  0.0231 -0.2486
31764W        W47233   0.084  14.783  13.993 -0.2343 -0.2104 -0.2946
31765W        W47234   8.618  15.474   1.535  0.1576  0.1808  0.0432
31766W        W47235   5.427   3.992  11.035 -0.0581  0.1051 -0.0744
31767W        W47236  18.048   3.549  10.627  0.1336 -0.0866 -0.0205
31768W        W47237  15.458  13.300   2.523  0.1467 -0.0536 -0.1138
31769W        W47238   2.161   7.484  13.843  0.0274  0.0565 -0.1216
31770W        W47239  10.809   9.335  12.772 -0.0996  0.3900  0.2831
31771W        W47240   2.182   3.463  13.355  0.1764 -0.0973 -0.0267
31772W        W47241   0.289  14.885  14.866  0.1232 -0.0088 -0.0259
31773W        W47242   0.091   6.630   4.335  0.1735 -0.4973  0.0610
31774W        W47243   8.053  11.215  14.318  0.3071  0.1407 -0.2256
31775W        W47244  10.857  15.391   5.419  0.0980  0.1469 -0.0433
31776W        W47245  14.446  14.279   1.414 -0.1550  0.2130 -0.5654
31777W        W47246  10.190  12.721   5.202 -0.2159 -0.0465 -0.2987
31778W        W47247  11.395  10.104   0.002  0.3569 -0.1028  0.4759
31779W        W47248   3.586   7.904   2.970 -0.0618  0.2179  0.0602
31780W        W47249   2.884  16.716   1.452  0.3789  0.1072 -0.2595
31781W        W47250  18.014  10.137   3.093 -0.0240  0.1210  0.0384
31782W        W47251   8.380   2.119   1.660  0.0204 -0.1324  0.2354
31783W        W47252   0.714   4.694  14.832 -0.3161 -0.2342  0.0883
31784W        W47253  11.411   8.108   1.394 -0.1213  0.1693 -0.2323
31785W        W47254  10.744   9.846  15.497  0.1256 -0.3204 -0.1335
31786W        W47255   3.184   9.027   2.057 -0.1118  0.0509  0.1273
31787W        W47256  13.055   4.684   0.565  0.0920 -0.1618 -0.3106
31788W        W47257  11.872   0.650   5.486  0.0706  0.0708  0.1000
31789W        W47258  15.263   2.107   0.060  0.0033  0.2286 -0.1188
31790W        W47259   2.524  16.435  11.773 -0.2701 -0.1785 -0.2096
31791W        W47260  14.532  10.711   0.155  0.0908  0.0101 -0.1068
31792W        W47261   2.992   7.630  13.686  0.1034  0.1858 -0.2981
31793W        W47262  15.678   6.129  14.622  0.2690 -0.2781  0.0280
31794W        W47263   3.373  15.926   1.760  0.2994 -0.0011  0.0708
31795W        W47264   0.679   9.663  15.291 -0.0278 -0.0558 -0.1209
31796W        W47265  11.723   1.088  12.779 -0.2393  0.0753 -0.0307
31797W        W47266   0.702  18.026   2.321  0.1640 -0.1335 -0.1860
31798W        W47267   4.753   0.116   0.345  0.0632 -0.0684 -0.2563
31799W        W47268   4.080  14.797   1.900 -0.1400  0.0899  0.2061
31800W        W47269   1.424   5.117   1.449  0.1057  0.0181 -0.0122
31801W        W47270   9.874   9.187   5.141 -0.0587  0.0177 -0.3046
31802W        W47271   1.466  13.202  11.118 -0.1131  0.0895 -0.0573
31803W        W47272   6.320  10.464  12.783  0.3927 -0.1520 -0.1820
31804W        W47273  16.044  11.073   2.172  0.0039 -0.1736 -0.1237
31805W        W47274   8.647   3.723   2.796  0.1979  0.1322  0.0611
31806W        W47275  11.983   5.996  16.136 -0.1949 -0.2155  0.1281
31807W        W47276  11.792  16.852  13.002  0.0911  0.2441  0.0195
31808W        W47277   1.823  13.765   2.517 -0.1705 -0.0413 -0.0722
31809W        W47278   1.836  13.085  12.920  0.1741  0.0499 -0.0793
31810W        W47279   1.701   0.140   2.314 -0.0598 -0.0723 -0.2873
31811W        W47280  12.169   9.659  15.388 -0.2092  0.0020  0.0782
31812W        W47281  11.094  12.518   4.378 -0.1385  0.3564  0.0608
31813W        W47282  14.724  12.311  15.302  0.3110 -0.2162 -0.1583
31814W        W47283   5.482   4.638  12.964  0.2110 -0.1120 -0.2148
31815W        W47284   2.248  14.992  13.879 -0.0072 -0.3253 -0.0086
31816W        W47285  12.429   8.078   1.102  0.0979  0.0103  0.1518
31817W        W47286  13.239  13.822  10.845  0.1989 -0.0905 -0.1409
31818W        W47287  13.182   0.794  15.467  0.2051 -0.0550  0.0110
31819W        W47288   0.348   7.823  12.883  0.2842 -0.0873  0.3674
31820W        W47289   6.204   3.400   0.431  0.0660  0.2058 -0.3768
31821W        W47290   8.327   9.677   1.530  0.1482  0.0649  0.2280
31822W        W47291   4.235  14.357  14.994  0.2774 -0.0059 -0.3555
31823W        W47292   8.435   6.372  16.275  0.0572  0.2512  0.0301
31824W        W47293  10.824  11.544   4.408  0.0390  0.2430 -0.1205
31825W        W47294   5.579   9.467   2.536 -0.1368 -0.1444 -0.1243
31826W        W47295   7.412  10.776   1.272  0.0974  0.2935  0.0713
31827W        W47296   4.290  16.702   3.247  0.2823  0.0551  0.0421
31828W        W47297  12.326  16.621  15.619 -0.0420 -0.0494  0.1053
31829W        W47298   8.374   0.770   5.544  0.2408 -0.1539  0.0454
31830W        W47299  17.105   9.103   2.015 -0.0386  0.2427 -0.0637
31831W        W47300   3.196   6.517   5.311 -0.1871  0.1198 -0.2625
31832W        W47301   2.267  13.744  14.325 -0.0468 -0.2540  0.1231
31833W        W47302   2.512  12.073  13.204 -0.0179 -0.0204  0.1168
31834W        W47303  12.537  15.200  13.513  0.0246  0.0497 -0.1660
31835W        W47304   8.080   5.274  13.533 -0.2803  0.0551 -0.0783
31836W        W47305   0.371   2.674  15.993  0.2974  0.0168  0.3721
31837W        W47306  10.402   2.790   2.125 -0.1360  0.0233 -0.0366
31838W        W47307  16.455   3.803   0.707  0.2495  0.4729  0.1386
31839W        W47308   7.325   5.016   5.133 -0.2320  0.0239  0.0350
31840W        W47309   1.059   7.338   3.593 -0.1207  0.2998  0.2604
31841W        W47310   3.801  12.833  11.240  0.0446  0.0149 -0.1605
31842W        W47311   4.471   1.490  13.268  0.0856 -0.0957  0.1193
31843W        W47312   3.897   6.028   4.583  0.0875  0.2186 -0.0709
31844W        W47313   1.100   3.188   1.851 -0.2372  0.0658 -0.2571
31845W        W47314  11.461   3.072   4.853  0.0611  0.0654  0.0130
31846W        W47315   4.213   2.626   3.903 -0.2525  0.0589 -0.1363
31847W        W47316  12.797   0.409  12.167  0.3986 -0.0088 -0.2589
31848W        W47317  16.336  12.100  11.942  0.3050  0.3562  0.0328
31849W        W47318  13.345   4.030  12.245  0.1706 -0.1014  0.2214
31850W        W47319  12.019  10.719  13.868  0.1756  0.3592 -0.2769
31851W        W47320   0.510  17.760   2.772 -0.0717  0.2114 -0.0955
31852W        W47321   8.977   6.271  16.180  0.0540 -0.2555 -0.1745
31853W        W47322   9.922  16.034   1.578 -0.1241  0.2451  0.0005
31854W        W47323   7.862  12.289   4.584  0.0500 -0.0534  0.3313
31855W        W47324   8.730  16.304  12.909 -0.0255  0.1859 -0.0193
31856W        W47325  15.028  13.864   0.314  0.1087 -0.1498 -0.1707
31857W        W47326  17.499   0.716   1.097 -0.1439 -0.4036 -0.2298
31858W        W47327   0.835   5.534   0.676 -0.0605 -0.3743  0.0532
31859W        W47328  13.845  17.964  11.340 -0.2862  0.1151  0.0110
31860W        W47329  15.259  14.774   1.709 -0.1725  0.2258 -0.0294
31861W        W47330   0.605   1.794   2.865  0.0474 -0.4262 -0.2321
31862W        W47331  10.060  11.486  10.181 -0.1089 -0.1964 -0.0112
31863W        W47332   0.460  12.556   1.765  0.1229  0.0658 -0.0498
31864W        W47333   2.890   4.802  12.296 -0.0988  0.0294  0.0162
31865W        W47334   2.740   2.805  12.239 -0.0751  0.0339  0.1112
31866W        W47335  16.998   4.163   4.542  0.1368 -0.0956  0.2548
31867W        W47336  11.572   2.819   3.277 -0.4502  0.1143 -0.0343
31868W        W47337   7.469  15.324   4.329 -0.0725  0.1107 -0.0828
31869W        W47338  12.752  11.062  11.130 -0.0375  0.2780 -0.5198
31870W        W47339   9.397   5.623  15.817 -0.0941 -0.1649  0.0240
31871W        W47340  11.951   9.339   2.496  0.2319  0.3453 -0.4829
31872W        W47341  13.947  17.199   5.118  0.0956 -0.0561 -0.1124
31873W        W47342   1.174   4.034  12.201 -0.2442 -0.1822  0.1143
31874W        W47343  10.313  10.619   5.292 -0.0273 -0.1701  0.0469
31875W        W47344   6.762  14.984  13.923 -0.3310  0.1261 -0.2103
31876W        W47345   1.891   8.082   2.989 -0.2364  0.2513 -0.1262
31877W        W47346   7.935   2.953   2.080 -0.1780  0.1658 -0.1071
31878W        W47347  13.503   6.163   6.360 -0.2923 -0.0891 -0.4327
31879W        W47348   3.699   3.773   5.114  0.0530  0.1375  0.0389
31880W        W47349   4.435   7.824   2.788  0.0010 -0.2243 -0.1874
31881W        W47350  14.506   9.283  15.858  0.1002 -0.0908 -0.1113
31882W        W47351   9.769  16.154  10.306 -0.0641  0.2102 -0.1808
31883W        W47352  15.314   4.856  13.711  0.0150 -0.2548 -0.1281
31884W        W47353   4.018  17.158  12.742 -0.0890 -0.0533  0.0357
31885W        W47354  10.462  15.080   1.545  0.0372  0.0262  0.2099
31886W        W47355   7.855  13.556   1.887 -0.2280 -0.2210  0.0209
31887W        W47356   7.984   8.679  10.348  0.1615 -0.0642  0.4156
31888W        W47357   4.425   1.010  15.690  0.0165  0.1288  0.2602
31889W        W47358   5.457  10.108  14.966 -0.3945 -0.0030 -0.1465
31890W        W47359   4.688   3.209  14.772  0.2052  0.0158  0.0068
31891W        W47360   3.311   7.210  13.318  0.0586 -0.1501 -0.0513
31892W        W47361   1.829   2.468  13.268  0.1585 -0.0540 -0.0824
31893W        W47362   3.674  12.635  16.126  0.1518 -0.3646 -0.2794
31894W        W47363  14.783   9.012  11.810 -0.0864  0.1139 -0.3614
31895W        W47364   8.776   2.238  15.510  0.1726 -0.1159  0.2306
31896W        W47365  15.018  10.220  12.589 -0.0508  0.0396  0.1544
31897W        W47366  17.750  11.257   5.405  0.2470  0.1105  0.1572
31898W        W47367   6.760  13.998  13.505 -0.0035 -0.2360  0.1876
31899W        W47368   0.783   8.550   0.277  0.1096 -0.0363 -0.0960
31900W        W47369  14.296  17.166  13.804 -0.2403 -0.3194 -0.2022
31901W        W47370   3.843   5.341  13.447  0.1367 -0.2259 -0.0426
31902W        W47371  10.748   4.594   1.814 -0.2103  0.0195 -0.1322
31903W        W47372  14.575  11.924  14.923 -0.1750 -0.0787  0.2020
31904W        W47373  14.176   8.368   4.430  0.0971 -0.3649 -0.1854
31905W        W47374   7.618   2.973  13.294 -0.0427  0.2979 -0.1629
31906W        W47375  15.189  13.320   0.138 -0.1443 -0.0041  0.4188
31907W        W47376  11.023  12.885  14.345 -0.2810 -0.1061  0.0363
31908W        W47377   1.461   9.810   4.146 -0.0736  0.0121 -0.1145
31909W        W47378   8.325  12.106   4.372 -0.2475 -0.4412 -0.1292
31910W        W47379   9.604  11.944   3.050 -0.0878 -0.1616 -0.1963
31911W        W47380   6.398  17.775  14.669 -0.2651  0.1377 -0.0560
31912W        W47381  15.370   9.913  12.156 -0.0696 -0.2679 -0.0233
31913W        W47382  10.083  12.027  10.848 -0.0857  0.1159 -0.0908
31914W        W47383  16.314  15.657   2.184  0.5354 -0.1473 -0.1388
31915W        W47384  11.078   8.918   0.398 -0.0039  0.0367  0.0060
31916W        W47385  13.241  14.380  12.528  0.1119  0.0933  0.0424
31917W        W47386   3.068   4.154   5.634 -0.0943  0.0192  0.0809
31918W        W47387   3.787   0.775   2.844 -0.1822  0.0459 -0.0478
31919W        W47388  14.646   5.313  13.524 -0.0876 -0.0645 -0.0646
31920W        W47389   8.949  17.980  14.125  0.0225  0.0565  0.0406
31921W        W47390  14.615  13.212  11.538  0.0102  0.2003 -0.0254
31922W        W47391  16.819  11.665  11.541  0.0719 -0.1240 -0.1087
31923W        W47392   9.413  11.183  14.872 -0.1515  0.1260  0.3530
31924W        W47393  13.966   7.879   4.744  0.0519  0.1146 -0.0073
31925W        W47394   5.636   6.818  14.651  0.1533  0.4272  0.2099
31926W        W47395  16.623  13.333  15.014  0.0310  0.2290 -0.3716
31927W        W47396   5.369   9.559  13.692  0.1427 -0.2268 -0.3218
31928W        W47397  12.109   4.696   4.996 -0.0297  0.2700 -0.3461
31929W        W47398   3.969   7.325   4.308  0.1829  0.1488  0.1404
31930W        W47399  14.850   4.828  11.691  0.0284  0.0129 -0.4143
31931W        W47400  16.895  17.360  12.903  0.2017 -0.1494 -0.1103
31932W        W47401   4.322   6.423  15.966  0.0641  0.1965  0.2518
31933W        W47402   7.079  12.250   2.296  0.0177 -0.1135 -0.0280
31934W        W47403  10.309  14.025  15.810  0.0228  0.0080 -0.1591
31935W        W47404   3.958   6.813   3.468  0.2865 -0.0744 -0.1607
31936W        W47405   0.771  17.370   4.448  0.1675 -0.0482  0.2502
31937W        W47406   2.028   5.787  14.112 -0.1052  0.2595  0.2060
31938W        W47407  15.978   2.633  12.528  0.2476 -0.1022 -0.4060
31939W        W47408   8.641  16.916   0.535  0.2071 -0.0340 -0.0393
31940W        W47409   5.299   6.497   4.262 -0.1978  0.0052 -0.1637
31941W        W47410   1.171  16.437  15.901  0.1831 -0.1704  0.0732
31942W        W47411  12.428   7.428   0.083 -0.1328  0.0019 -0.1964
31943W        W47412   1.137   4.155   3.842  0.3556  0.0344 -0.0718
31944W        W47413  17.124   9.169  13.263 -0.2640  0.0727  0.2173
31945W        W47414  15.292  13.773   3.968 -0.0609  0.1752  0.0836
31946W        W47415  16.513   8.798  15.391 -0.2656 -0.0707  0.2964
31947W        W47416  15.296   6.633   3.629  0.0207  0.1918  0.2168
31948W        W47417  13.138  10.046   3.544 -0.0644 -0.2857 -0.0012
31949W        W47418   1.527   6.230   5.595 -0.1788  0.0656 -0.3381
31950W        W47419   5.185  15.437  13.080 -0.2034 -0.0887  0.0175
31951W        W47420   7.481   6.936  15.863  0.3004 -0.1378 -0.0500
31952W        W47421   0.224   4.146  14.862 -0.1258  0.1463 -0.0984
31953W        W47422   9.451   7.601   0.878  0.3349 -0.2706 -0.0235
31954W        W47423   9.939   2.035   2.433  0.1239  0.1275  0.2552
31955W        W47424  11.082   3.528   6.618 -0.1299  0.1782  0.0482
31956W        W47425  11.679  11.278   1.172 -0.2416  0.0474  0.0026
31957W        W47426   0.095   3.016  15.726 -0.0741 -0.1492  0.1066
31958W        W47427  14.786   3.499   2.368 -0.2245 -0.1769  0.1118
31959W        W47428  15.787  15.449   2.919 -0.0421  0.1321  0.0772
31960W        W47429  15.406  12.159  14.575 -0.0908 -0.0325 -0.2444
31961W        W47430   0.636   2.700   4.508 -0.2648 -0.0583  0.2301
31962W        W47431   4.718   1.949   2.336 -0.0605 -0.2581 -0.1079
31963W        W47432  12.189   1.215  11.305 -0.1760 -0.0542  0.0522
31964W        W47433   9.225   9.346   4.342  0.0500  0.0256 -0.0895
31965W        W47434   1.929   8.538  11.193 -0.2201  0.1390  0.0789
31966W        W47435   8.291  14.439   0.315 -0.0037  0.1056  0.1560
31967W        W47436   6.972   6.558   5.508 -0.0011  0.2054  0.2350
31968W        W47437   1.112   5.659  11.623 -0.0103  0.1027 -0.1286
31969W        W47438  16.990   3.358   2.089 -0.1326 -0.1635  0.1524
31970W        W47439  15.340  12.520  13.736 -0.0862 -0.0338 -0.3073
31971W        W47440  10.732  11.343   5.136  0.2429 -0.2028 -0.0522
31972W        W47441  15.245  12.512  13.187  0.0348  0.1680 -0.2141
31973W        W47442  11.553  15.133  12.561  0.3259 -0.0359 -0.1706
31974W        W47443  15.946   5.262  13.881  0.2613  0.1714  0.2128
31975W        W47444   6.320   1.419   1.738  0.0044 -0.0359  0.0332
31976W        W47445   4.472  16.124   5.310 -0.0351  0.2858 -0.0140
31977W        W47446   6.989   4.557   0.131 -0.0391 -0.0046  0.1846
31978W        W47447  11.047   6.052   4.367 -0.2551  0.0329 -0.1019
31979W        W47448  15.001  16.892   3.310  0.2764  0.0623  0.2192
31980W        W47449   6.386   0.478   1.111  0.2558  0.0737 -0.0307
31981W        W47450   6.733  13.983   2.106 -0.3055  0.0094  0.1017
31982W        W47451  10.879  16.607   3.808 -0.3352  0.1555 -0.2588
31983W        W47452  18.049   2.743  12.623  0.0534 -0.2444 -0.1130
31984W        W47453  11.759   7.862  12.731  0.1407 -0.0872  0.1395
31985W        W47454  17.536   3.808   4.195  0.3386 -0.1121 -0.2452
31986W        W47455   9.897   6.713   5.693  0.2335  0.0634  0.2096
31987W        W47456  13.264   4.196   3.708  0.0701 -0.2929  0.2813
31988W        W47457  14.974   8.970  10.198  0.1632 -0.1864  0.4595
31989W        W47458  17.751   2.933   4.581  0.0511 -0.0392  0.0644
31990W        W47459   1.714  15.003   4.593 -0.3152  0.0271  0.0938
31991W        W47460   6.656   1.778  15.346 -0.2722 -0.1909  0.0774
31992W        W47461  17.293  13.934   1.141  0.0582 -0.4350  0.1029
31993W        W47462  14.412  17.332  10.957 -0.0774 -0.1097 -0.0131
31994W        W47463  13.889   3.360  12.255 -0.0539 -0.0809 -0.0418
31995W        W47464  16.022   9.260   5.562  0.0987 -0.1360 -0.0965
31996W        W47465  15.851   3.407   0.562  0.0037 -0.3247 -0.2002
31997W        W47466   8.696  12.958  12.173 -0.1122 -0.1402 -0.1635
31998W        W47467  14.150  15.624   3.621  0.1600  0.1175  0.0314
31999W        W47468   8.080  11.295  11.690 -0.1652 -0.1309  0.3024
32000W        W47469   1.336  16.022   5.403 -0.3867 -0.1473 -0.1030
32001W        W47470   4.227  15.561   5.263 -0.1873  0.3532  0.0884
32002W        W47471  14.550   6.943   3.907  0.0444 -0.3497  0.1297
32003W        W47472   5.248  10.176   2.197  0.0067 -0.1329 -0.1729
32004W        W47473  15.473  12.869   5.224  0.1162  0.2246 -0.0058
32005W        W47474   2.122  12.914  13.251 -0.1149  0.1705 -0.1465
32006W        W47475   4.197   6.775   1.654  0.4949  0.1754  0.0333
32007W        W47476   5.778  17.757   2.315  0.1187 -0.0893  0.2454
32008W        W47477   2.424   5.763  13.112 -0.0120 -0.0420  0.1654
32009W        W47478   6.959  17.204  13.759 -0.0412  0.4089  0.1192
32010W        W47479  13.204  13.201  16.010 -0.0312  0.0446 -0.0316
32011W        W47480  15.241   4.636  13.217 -0.3372  0.0532  0.2078
32012W        W47481  11.415   6.953   4.976 -0.0023 -0.0246 -0.1423
32013W        W47482   1.393   6.310   4.491  0.0737  0.0259  0.0949
32014W        W47483   0.921  10.191  15.882 -0.0065 -0.1092  0.0968
32015W        W47484   3.445   6.271   0.067 -0.0299 -0.1138 -0.0751
32016W        W47485  15.554  16.668  10.786  0.1277  0.2129 -0.1344
32017W        W47486  13.054  13.989  13.220  0.0113 -0.0865  0.0702
32018W        W47487  17.815   0.151  12.814  0.1180  0.4360 -0.1276
32019W        W47488   1.109  16.947  11.539 -0.4465  0.0247 -0.2696
32020W        W47489  12.924   4.023   0.975 -0.0700  0.2824  0.1006
32021W        W47490  16.601   7.852   4.122 -0.0982  0.0328 -0.3590
32022W        W47491  14.656   3.203  13.172  0.1688  0.2662  0.1063
32023W        W47492  16.316  16.502   1.110 -0.1136 -0.0463  0.1475
32024W        W47493  11.192  15.705   3.793  0.4611  0.0805  0.0513
32025W        W47494   1.822  14.775  12.725  0.0400 -0.2379 -0.0490
32026W        W47495   7.033   3.597   4.932  0.1195  0.0612 -0.0494
32027W        W47496  17.822   2.855   2.538 -0.3312  0.1382  0.0390
32028W        W47497   2.590   2.911   2.859  0.2807  0.1186  0.4791
32029W        W47498  10.255   9.799   4.271 -0.0218  0.1437 -0.0350
32030W        W47499   9.333  17.741   4.465  0.2682 -0.0898 -0.0369
32031W        W47500  12.834   6.177   5.182 -0.2540 -0.2743 -0.3101
32032W        W47501   5.770   2.011   4.293 -0.1408 -0.0154  0.4356
32033W        W47502  15.024   6.788  12.526  0.2689  0.0588 -0.0343
32034W        W47503  14.761   8.112   4.394 -0.1970 -0.1410 -0.0921
32035W        W47504   9.371  12.492  14.813 -0.1477 -0.0234 -0.0511
32036W        W47505   7.578   5.718  15.431  0.0546 -0.1051 -0.0631
32037W        W47506   2.843  10.592  11.305 -0.2893  0.1971  0.0911
32038W        W47507   4.423  17.872   2.925 -0.1572 -0.3293 -0.0491
32039W        W47508   3.583  15.991   2.260  0.2298 -0.1044 -0.0175
32040W        W47509   5.354  10.125   3.168  0.0154  0.1175 -0.0634
32041W        W47510   7.814  16.673  12.914 -0.1083 -0.1729 -0.1674
32042W        W47511   5.935   4.802  12.780 -0.0953 -0.4160  0.1131
32043W        W47512   4.757  17.703   3.281 -0.1197  0.0924 -0.1016
32044W        W47513   5.023  12.114   5.241 -0.1478  0.0828  0.0182
32045W        W47514  10.877   8.746   3.355  0.1097  0.1303 -0.2419
32046W        W47515   2.952   9.655  14.455  0.1444 -0.1362 -0.0353
32047W        W47516   3.502  15.591  11.150 -0.0052  0.0376  0.0372
32048W        W47517  13.669  17.863   1.765  0.0280 -0.1389  0.1551
32049W        W47518  10.806   9.206  12.223  0.3718  0.0387 -0.1102
32050W        W47519   1.445  15.953  16.170 -0.0537  0.0221 -0.0406
32051W        W47520   2.385  16.178   4.545  0.1474 -0.2504  0.2736
32052W        W47521  11.072  12.177   3.007 -0.0709  0.2432 -0.0372
32053W        W47522   7.304  12.431  11.564 -0.1478 -0.1025 -0.0255
32054W        W47523  12.975   8.679  10.509 -0.0884 -0.0403  0.2694
32055W        W47524  12.194   9.628   4.034 -0.0410 -0.2684  0.1882
32056W        W47525   4.110   9.735   1.780  0.2583  0.0135 -0.0766
32057W        W47526   2.697  11.572   2.489 -0.1805 -0.0003 -0.1267
32058W        W47527   5.743  17.742   2.860 -0.0626 -0.0641  0.3324
32059W        W47528  11.220   5.896   1.540 -0.4618 -0.2253 -0.4295
32060W        W47529   9.783  15.457  11.168  0.1980 -0.1858 -0.3638
32061W        W47530  14.317  15.962  16.151  0.2672  0.3159 -0.3637
32062W        W47531  15.668  10.973   1.858  0.2119  0.0583  0.2402
32063W        W47532  17.348  17.985  12.763 -0.0782  0.2654  0.0712
32064W        W47533   0.931  11.159   5.204 -0.5244  0.0087 -0.3044
32065W        W47534   9.786  15.347   3.654 -0.1005 -0.4890  0.0543
32066W        W47535   9.430   1.303  15.703 -0.0703  0.1212  0.0560
32067W        W47536   2.608   2.597  11.756  0.3893  0.0651 -0.1159
32068W        W47537  13.035   2.217   4.336 -0.3000  0.0622  0.0472
32069W        W47538   8.466  12.875   1.145 -0.0686  0.3033  0.0570
32070W        W47539  14.858  17.467   4.938  0.0076  0.0878  0.2486
32071W        W47540   7.715   5.962   9.943  0.0303  0.3671 -0.0811
32072W        W47541  15.595  14.689  15.912 -0.3239  0.1042  0.1989
32073W        W47542   9.881   7.148  11.132  0.2031 -0.0220  0.1802
32074W        W47543   0.315   1.218   2.007 -0.1755 -0.1131 -0.1912
32075W        W47544  10.292   8.023   5.292  0.1541  0.0114 -0.1050
32076W        W47545   5.297  14.647   3.535  0.3478 -0.0004 -0.2628
32077W        W47546  15.610  12.039  11.503  0.0160  0.0436 -0.0615
32078W        W47547  12.518   4.129   1.214  0.1264 -0.1461  0.0360
32079W        W47548  17.147   3.133   4.384  0.1221  0.0982 -0.1109
32080W        W47549   8.019   6.867   6.236  0.2755 -0.2359 -0.2594
32081W        W47550  11.609  17.291   2.226  0.1265 -0.0460 -0.1807
32082W        W47551  15.988   0.099  10.842  0.1063 -0.2130 -0.0838
32083W        W47552  10.430   1.634  14.133 -0.0836  0.2808 -0.0043
32084W        W47553   4.137   1.986   1.428 -0.1617  0.0575  0.0183
32085W        W47554  11.812   3.121   1.909  0.1121  0.1238  0.0881
32086W        W47555   1.168  16.652   1.665 -0.2241  0.0758  0.1161
32087W        W47556  14.215   5.924   2.856 -0.1609 -0.0844  0.1606
32088W        W47557   2.706   8.963  11.828  0.1194  0.1618 -0.0129
32089W        W47558  13.148  17.258  15.305  0.1921 -0.1047 -0.0147
32090W        W47559  10.352   4.142  10.397  0.0044  0.1509  0.1376
32091W        W47560   3.221  10.404  13.001  0.2634 -0.1694  0.2362
32092W        W47561   1.085   6.839  14.055 -0.1672 -0.4143 -0.0134
32093W        W47562   4.419   8.282  14.821  0.2446 -0.2552 -0.0804
32094W        W47563   4.506   4.985   4.018  0.1641  0.0575 -0.0324
32095W        W47564  14.959  10.314  13.131 -0.2443  0.1808  0.0220
32096W        W47565   0.506  13.986   6.033 -0.0972  0.1398  0.0718
32097W        W47566  15.934  11.477   1.879  0.2388  0.2178  0.2909
32098W        W47567  12.961   8.894  12.884  0.3078  0.0175  0.1872
32099W        W47568   0.375   3.791  12.565 -0.3441  0.2220 -0.3593
32100W        W47569  13.665  12.420   3.696 -0.2399  0.1080 -0.5821
32101W        W47570  13.851   6.974  15.743 -0.1032 -0.0289 -0.1271
32102W        W47571   6.660  10.738   0.806  0.4399  0.1897  0.0879
32103W        W47572  12.802  16.040  13.436 -0.1449  0.1531 -0.0739
32104W        W47573  11.996   5.107   1.884  0.0296  0.2998 -0.1549
32105W        W47574  14.395   6.527   3.519  0.2828  0.1124  0.0009
32106W        W47575   1.583  13.992   4.842 -0.2735 -0.2521 -0.1305
32107W        W47576   0.441   3.708  13.653  0.1948  0.0386  0.0048
32108W        W47577   8.146   6.187   1.253  0.4062  0.1210 -0.2043
32109W        W47578  14.337  11.493  16.207 -0.1240  0.2076  0.0697
32110W        W47579  17.034  10.393  15.726  0.0453 -0.0371 -0.1415
32111W        W47580  13.455  10.799   4.522 -0.0188  0.4514 -0.1618
32112W        W47581   9.860  17.902  14.044 -0.4196  0.1494 -0.1537
32113W        W47582  13.230  12.079  12.560  0.2129 -0.1592  0.3385
32114W        W47583   4.636  14.914  14.485  0.1289 -0.0740 -0.0967
32115W        W47584  13.791   3.021   1.171 -0.1244 -0.0827  0.1691
32116W        W47585  11.597  11.578   4.350  0.3512 -0.0119  0.1145
32117W        W47586  16.612   6.404  10.352 -0.1499 -0.2460 -0.5754
32118W        W47587  16.905   1.582   3.222 -0.0730 -0.2719 -0.0896
32119W        W47588   5.419  14.286  13.631 -0.0505 -0.0119 -0.0660
32120W        W47589  14.289  15.195  12.762  0.1588 -0.1976  0.1344
32121W        W47590   8.307   8.188   2.520 -0.2016  0.2194  0.1393
32122W        W47591  15.785   8.067  14.627 -0.0764  0.0363  0.2400
32123W        W47592  11.557  13.828   1.588 -0.3292  0.0697 -0.0664
32124W        W47593  14.892   1.747   4.913  0.0221 -0.2679  0.0628
32125W        W47594   4.793   2.886  13.297  0.0361 -0.1016 -0.0920
32126W        W47595   2.689   6.089  13.370  0.1281  0.0039  0.0664
32127W        W47596  15.529   4.508   4.534  0.0245 -0.0846 -0.2441
32128W        W47597   8.665  10.124   0.376  0.1244 -0.1558  0.1477
32129W        W47598   1.312  13.696  11.011 -0.1114 -0.2579 -0.1229
32130W        W47599  11.540   0.738   6.050 -0.0253 -0.3634  0.0568
32131W        W47600  16.331  13.991   0.544 -0.0415  0.0665  0.1390
32132W        W47601   4.169  12.737  13.025 -0.2662  0.1297  0.0242
32133W        W47602  14.622   0.941  15.185 -0.0194 -0.0091  0.0243
32134W        W47603  16.454   1.538  15.358  0.1781  0.2134 -0.0607
32135W        W47604  13.413   2.371   2.204 -0.3030 -0.2235 -0.2203
32136W        W47605   9.971  11.139  12.310  0.2071  0.2528  0.0541
32137W        W47606  16.137  12.215   5.081 -0.3771 -0.3309 -0.0142
32138W        W47607   6.737  15.638   5.058  0.2204  0.2184  0.2363
32139W        W47608  16.298   0.851   2.958  0.1707  0.2008  0.0270
32140W        W47609  10.579   6.202   4.077 -0.1748  0.4200  0.2236
32141W        W47610  17.476  14.454  11.882  0.0594  0.3868  0.0561
32142W        W47611   6.157   1.870  12.105  0.1563  0.0871 -0.2281
32143W        W47612   0.950   5.906  12.048  0.3085  0.1084 -0.0332
32144W        W47613   1.036   9.681   2.109 -0.3057 -0.0934  0.0104
32145W        W47614   8.322  12.001  15.780 -0.1274 -0.0484 -0.1208
32146W        W47615  12.711   3.110  15.509 -0.0710  0.2887  0.0322
32147W        W47616  13.955   9.503  12.855 -0.0673 -0.0364 -0.0903
32148W        W47617   9.196   1.081  13.062 -0.1066  0.0351  0.0008
32149W        W47618  13.120  13.216   1.048 -0.3111  0.2341 -0.0535
32150W        W47619   4.486  17.450  11.618  0.0542 -0.1871  0.1285
32151W        W47620   1.596   4.737  11.700 -0.1836  0.2485 -0.1754
32152W        W47621   9.389  12.585  13.735  0.0178 -0.1777 -0.2259
32153W        W47622  14.915  13.228  15.529 -0.2522  0.3391 -0.1827
32154W        W47623   2.165   8.613  13.387 -0.0653  0.0383  0.1219
32155W        W47624   3.056   9.755   1.155 -0.2810 -0.2301 -0.1406
32156W        W47625   4.508  15.922  10.399  0.0441 -0.2504  0.1117
32157W        W47626  14.574   5.775  15.355  0.2948  0.1477 -0.0648
32158W        W47627  14.382  12.809   5.296  0.1251  0.1641  0.3078
32159W        W47628   7.186  15.456  15.096  0.2768  0.0015 -0.3122
32160W        W47629  14.685  13.287  14.239  0.0289  0.0101  0.0254
32161W        W47630   5.663  15.569   1.462  0.1381  0.2414 -0.1885
32162W        W47631   9.763   6.727   0.844  0.2032 -0.1139  0.2425
32163W        W47632  16.960  12.056  13.159  0.1770  0.1198 -0.3033
32164W        W47633  10.120  14.773  15.761 -0.2624 -0.0049 -0.2081
32165W        W47634   2.564   7.356  14.605  0.0771 -0.3733 -0.0701
32166W        W47635   9.446   2.469  10.510  0.1569  0.0226  0.0560
32167W        W47636  14.991  17.564  15.248  0.1443  0.1776  0.3329
32168W        W47637  13.502   0.707  13.141 -0.1626  0.1992  0.0030
32169W        W47638   6.645   4.669   1.878  0.1049 -0.0867  0.1225
32170W        W47639  13.622  15.111   0.175 -0.0244  0.2298  0.1970
32171W        W47640   4.803  14.694   0.933  0.0462  0.0660  0.2821
32172W        W47641   5.660  14.802   0.269  0.0489 -0.2070 -0.1408
32173W        W47642   5.541  13.053  14.339 -0.1246 -0.0946  0.0497
32174W        W47643   0.777  13.019  14.584  0.0373  0.0378 -0.0765
32175W        W47644   2.629   2.063  14.251  0.0934 -0.2975  0.0202
32176W        W47645  15.320   8.267   0.241  0.0192 -0.1238 -0.0346
32177W        W47646  12.515  11.550  15.470  0.0934 -0.3905 -0.0492
32178W        W47647  15.303  17.672  14.492 -0.2352  0.0836 -0.1041
32179W        W47648  16.032   1.750  11.800  0.0397 -0.0162 -0.0872
32180W        W47649   7.705   0.483   1.033  0.2720 -0.0222  0.2259
32181W        W47650   1.423  14.220  15.048  0.1054  0.1252  0.0657
32182W        W47651  17.920  18.006   3.344  0.0596 -0.0062 -0.1266
32183W        W47652  14.543   6.883  13.999 -0.0207  0.4431  0.2332
32184W        W47653   8.361   4.380  12.031 -0.2300 -0.1706 -0.0938
32185W        W47654   1.363  13.199  14.738 -0.2342  0.1867 -0.0611
32186W        W47655   3.488  15.442   2.007  0.2383  0.2010 -0.0614
32187W        W47656  13.087   3.298  13.368 -0.1974 -0.0210  0.0904
32188W        W47657  14.673  11.648   2.914  0.1748 -0.0248 -0.0548
32189W        W47658   9.525  12.799  13.227  0.0914 -0.1566 -0.2921
32190W        W47659   0.007  13.421   4.588 -0.2447  0.2094  0.1876
32191W        W47660   7.328   1.242   3.279  0.1411  0.0823  0.3281
32192W        W47661   3.606   3.011   2.877  0.1478 -0.2520 -0.0805
32193W        W47662  10.756  14.557   5.262 -0.0564  0.3393 -0.3155
32194W        W47663   1.626   9.710  14.219  0.2281 -0.0067  0.2006
32195W        W47664   1.133   4.284   0.074 -0.1729  0.0805 -0.3496
32196W        W47665   9.607   0.736  12.278 -0.0175  0.2460 -0.2792
32197W        W47666  14.221  16.630   5.084  0.1057 -0.3154  0.0511
32198W        W47667   1.839  11.023  14.465 -0.0220  0.0818 -0.0152
32199W        W47668  12.598  14.940   5.766  0.1280 -0.0308  0.1042
32200W        W47669   1.608   4.276  13.432  0.1614  0.4870  0.0008
32201W        W47670  16.791   4.304  11.899  0.0544  0.0810 -0.1431
32202W        W47671   2.726  14.190  11.457 -0.1445  0.0777  0.0064
32203W        W47672  12.860   1.271  12.668 -0.0861 -0.1238 -0.2631
32204W        W47673   5.016   9.257  13.576  0.0652 -0.3720 -0.0935
32205W        W47674  17.374  17.962   0.069  0.1809 -0.2674 -0.2338
32206W        W47675  14.187   5.123   0.021 -0.0281 -0.2002  0.0389
32207W        W47676  14.720  12.756  16.062 -0.1918  0.2800  0.1634
32208W        W47677   0.151  14.973  12.082 -0.2818  0.1988 -0.0503
32209W        W47678   0.915  15.638  12.414  0.1125  0.0049 -0.0552
32210W        W47679  15.699   9.745  13.831 -0.1298  0.0943 -0.3533
32211W        W47680  10.827   3.621  15.205  0.2709 -0.1523 -0.1351
32212W        W47681  14.930   1.177  16.038 -0.0752 -0.0794 -0.1871
32213W        W47682  16.130   0.240   1.283  0.3819 -0.0939  0.3727
32214W        W47683  13.394  12.792   5.230 -0.3559 -0.0634  0.0002
32215W        W47684   2.275   6.026   2.171  0.0542 -0.1403 -0.2567
32216W        W47685   3.779  12.110  15.296  0.2174 -0.1732  0.1935
32217W        W47686  12.356  12.116   2.431 -0.1112 -0.1275 -0.2020
32218W        W47687   8.167  13.188   4.933  0.0432 -0.0172 -0.0344
32219W        W47688   4.200   4.128  13.771 -0.0564 -0.0751 -0.0193
32220W        W47689   6.925   3.346  13.954  0.0639  0.0071 -0.1553
32221W        W47690   9.231   1.326   4.681  0.0680  0.2751  0.3459
32222W        W47691   9.946  17.637   0.697  0.2139  0.1653  0.1337
32223W        W47692   2.602   5.701  12.625 -0.0476 -0.0648 -0.2629
32224W        W47693  15.104   8.942   5.091  0.1057 -0.1706 -0.0641
32225W        W47694  13.167   4.564  13.706 -0.2125  0.0421  0.1298
32226W        W47695  16.707  11.355  10.306  0.0303 -0.0170  0.0184
32227W        W47696   3.008   6.380  10.508 -0.0725  0.1660  0.1574
32228W        W47697  13.967   0.083   1.587 -0.1935 -0.1265  0.0102
32229W        W47698   6.946  11.604   3.290  0.1585  0.1628  0.4062
32230W        W47699   3.342   7.150   1.467  0.2978 -0.1609  0.0723
32231W        W47700  15.170  13.567   1.216 -0.0458  0.0628 -0.1024
32232W        W47701   8.120   2.352   5.051 -0.2899  0.1472  0.1255
32233W        W47702  12.017   9.574  13.842 -0.1468 -0.3529  0.0586
32234W        W47703   1.156  17.193   2.515  0.2386 -0.0727 -0.4155
32235W        W47704  13.965   2.217   2.823 -0.2939 -0.2057 -0.2282
32236W        W47705   6.510  15.522  11.613  0.2087  0.2439 -0.1659
32237W        W47706  10.026   6.879   3.450  0.1656 -0.4996  0.1913
32238W        W47707   1.427   0.218  15.419 -0.2833  0.1089 -0.0505
32239W        W47708   6.933   9.932   0.257  0.0484  0.1122 -0.2099
32240W        W47709   8.978   2.742   5.416  0.3547  0.0883 -0.0487
32241W        W47710   6.992   1.552  10.530 -0.1802 -0.5689  0.0280
32242W        W47711  16.639   9.477   3.593  0.0360  0.0739 -0.0901
32243W        W47712  11.597   8.911   3.636 -0.1750  0.0514 -0.0683
32244W        W47713  16.424   6.089  11.768  0.0253 -0.0081  0.3143
32245W        W47714   8.378  10.478  12.739  0.2220  0.2035 -0.2194
32246W        W47715  15.507   3.941  12.121 -0.1932  0.2504 -0.0670
32247W        W47716   0.166   3.847  11.427 -0.1911  0.0808 -0.0085
32248W        W47717   0.416  16.332   2.740  0.4271 -0.2474 -0.0016
32249W        W47718   0.522   9.852   1.310 -0.1417 -0.2155  0.2506
32250W        W47719  15.593   0.958  13.728  0.0964  0.0351  0.0984
32251W        W47720  14.310  15.514  14.930 -0.2838 -0.0520 -0.2336
32252W        W47721   2.805   0.659  14.357  0.0705 -0.2995 -0.0499
32253W        W47722   3.027  10.911   0.203 -0.0263  0.1431  0.4058
32254W        W47723   5.232  15.108  15.372  0.0952 -0.0488 -0.0389
32255W        W47724   7.018   6.542   2.232  0.0548 -0.1949  0.1250
32256W        W47725  12.559  13.932   4.745  0.0722 -0.3414 -0.0272
32257W        W47726  10.682  10.692  11.608  0.0728 -0.3705  0.0496
32258W        W47727   5.077   5.675   2.987 -0.3729  0.1420  0.1651
32259W        W47728  11.313   1.583   1.289  0.1095  0.0182  0.0155
32260W        W47729  10.528  14.328   1.025  0.2667  0.0840 -0.0180
32261W        W47730   1.848   0.900   1.713  0.0706  0.0715 -0.0900
32262W        W47731   3.879  13.929   5.340  0.1587 -0.0266 -0.0538
32263W        W47732   4.463   3.213   0.842 -0.2867  0.2506  0.0438
32264W        W47733   1.374   0.249   3.701 -0.1210 -0.1715 -0.1659
32265W        W47734  12.740   2.283   1.577 -0.0133  0.0657 -0.1989
32266W        W47735  15.368  13.311   2.051 -0.0937  0.2303  0.0574
32267W        W47736  16.413   1.809  11.464 -0.6343  0.1857 -0.2005
32268W        W47737  13.458  16.991   5.502  0.2627  0.1228 -0.3452
32269W        W47738   1.954   9.729  15.636 -0.0781 -0.0395 -0.0761
32270W        W47739  10.788   4.540   2.957  0.2076 -0.0380  0.0691
32271W        W47740  16.188   4.095  14.458 -0.2619  0.0538 -0.1587
32272W        W47741   5.525  11.007  16.263 -0.1639  0.3552  0.2676
32273W        W47742   7.734  12.883  12.281  0.1173 -0.0206 -0.2018
32274W        W47743  15.539   3.019  13.430  0.1475 -0.1396  0.4943
32275W        W47744   7.753   6.641   0.349  0.2554  0.0241 -0.2076
32276W        W47745   8.032  10.360   0.991  0.0346  0.1575 -0.0786
32277W        W47746  12.509   8.212  14.031 -0.1741  0.2838 -0.0585
32278W        W47747   2.356  14.267   4.292 -0.1275 -0.0496 -0.1453
32279W        W47748  14.093   5.892   2.343 -0.0944  0.2438 -0.2112
32280W        W47749   3.100   9.832  13.972  0.0972 -0.0447 -0.3885
32281W        W47750  15.690   8.406   1.631  0.0963 -0.3011 -0.1740
32282W        W47751  17.510   2.051  14.670 -0.3413 -0.0895  0.0617
32283W        W47752   9.448  15.735   4.565 -0.0399  0.1454  0.2372
32284W        W47753  17.459   6.442   1.529 -0.1095  0.0629  0.1520
32285W        W47754   1.029  10.268   5.232 -0.0202  0.0482  0.0884
32286W        W47755  15.686   5.642  14.662  0.1227 -0.3866 -0.1762
32287W        W47756   4.653   4.147  13.977  0.0096  0.1246 -0.1017
32288W        W47757  14.394  12.613  13.174 -0.0609 -0.1685 -0.2159
32289W        W47758   9.782   1.293  15.383 -0.0211  0.1389 -0.1757
32290W        W47759   0.243   0.074   2.572  0.0898 -0.1916  0.3933
32291W        W47760   9.067   1.806  11.451  0.0517 -0.3648 -0.2719
32292W        W47761   9.106  13.188  15.982  0.0453  0.0440  0.1026
32293W        W47762  15.025   7.563   1.096  0.0852  0.1284 -0.1306
32294W        W47763  15.389  11.558  13.152 -0.1405  0.0618  0.0406
32295W        W47764  11.421   6.364   4.683 -0.0510 -0.4763 -0.0390
32296W        W47765  17.816   0.608   1.448 -0.0804  0.0052 -0.1108
32297W        W47766   3.809  13.939  12.028 -0.0555  0.1047  0.2177
32298W        W47767  12.599  15.150   5.362  0.2666 -0.3949  0.1238
32299W        W47768  12.004  12.949   5.350  0.0565  0.1573 -0.0581
32300W        W47769   4.988   0.414   5.390  0.1015 -0.4080  0.1439
32301W        W47770   4.668   0.207   3.895  0.0840 -0.0565 -0.0473
32302W        W47771   5.091   3.150   3.370  0.3852 -0.0086  0.2417
32303W        W47772  15.892   8.551   4.763  0.5339  0.1481  0.1985
32304W        W47773   3.204  11.761  11.877 -0.3538 -0.0228 -0.1317
32305W        W47774   6.416   1.006  11.087  0.0823 -0.1180  0.1048
32306W        W47775  10.593  17.262   1.482  0.1546  0.2038 -0.3002
32307W        W47776   6.523  11.906   1.474 -0.1634  0.2743  0.1117
32308W        W47777   1.078  11.921   1.811  0.1140 -0.1513  0.2093
32309W        W47778   7.612   4.452   3.507 -0.1216 -0.1737 -0.0290
32310W        W47779  15.998   6.799   4.330 -0.1608  0.1485 -0.1696
32311W        W47780   5.276  14.984   2.279 -0.1820  0.0369  0.1945
32312W        W47781   8.855   1.174  12.710 -0.2630 -0.2384  0.4286
32313W        W47782  17.893  10.656   1.044  0.1353 -0.2913 -0.0197
32314W        W47783   1.146   7.648  12.580 -0.4206 -0.2745 -0.0384
32315W        W47784  15.202  18.057   1.316  0.1181 -0.0133 -0.1758
32316W        W47785   6.862  10.884   2.511 -0.1182 -0.0988  0.1334
32317W        W47786   3.646  13.083  14.857  0.0802  0.0147  0.0868
32318W        W47787   8.875   5.885  15.098  0.1234 -0.4385  0.0580
32319W        W47788   5.097  17.181   3.881  0.1474  0.2083 -0.0750
32320W        W47789   8.289   8.697  12.651 -0.2415  0.1316 -0.0635
32321W        W47790   2.757  11.242  13.039 -0.5281 -0.0872  0.0342
32322W        W47791  17.997   2.280   3.931  0.3252  0.0872  0.0243
32323W        W47792  10.580   2.734  11.766 -0.1665 -0.1617 -0.0236
32324W        W47793   7.533   1.527   5.806  0.0722  0.2353  0.2119
32325W        W47794  10.940   4.544   0.403  0.1090 -0.2274  0.1317
32326W        W47795   6.651   5.248  13.503  0.0561  0.0608 -0.1002
32327W        W47796  14.930  17.985   5.004 -0.0314 -0.0345  0.0742
32328W        W47797  15.707   7.978  11.919  0.1077  0.0714  0.3837
32329W        W47798   7.007  11.791   4.126  0.1826 -0.2814 -0.0035
32330W        W47799   1.754   4.790  13.645 -0.1052 -0.5178 -0.2062
32331W        W47800  11.638   2.299   2.799 -0.0882  0.1052 -0.2241
32332W        W47801   1.192  11.544  14.013 -0.1496  0.1828  0.1532
32333W        W47802  16.551   0.486  12.224 -0.1544  0.0681  0.0376
32334W        W47803  18.040   6.058   0.906  0.1665  0.0795  0.0777
32335W        W47804   1.932   9.573   4.062  0.0616  0.2601 -0.0317
32336W        W47805   6.062  16.804   4.621 -0.1683  0.4997 -0.0548
32337W        W47806   0.025   1.199  11.912  0.1506  0.0527  0.0402
32338W        W47807  12.551  10.896   1.278  0.2242  0.1099  0.2415
32339W        W47808   5.794   3.158   2.664  0.1787  0.0679 -0.1738
32340W        W47809  13.923  14.138  14.960  0.0749  0.0823 -0.0720
32341W        W47810   1.303  12.936   6.197 -0.4050 -0.1462 -0.0169
32342W        W47811   7.606   9.520  14.525 -0.0079 -0.0459 -0.1965
32343W        W47812   3.295  15.111  15.047 -0.0231  0.1274 -0.0982
32344W        W47813  17.196   7.198  15.808  0.0870 -0.1765 -0.0883
32345W        W47814  13.282  16.382  15.221  0.3183 -0.1241  0.0699
32346W        W47815   8.675   8.773  13.856 -0.0115  0.2492 -0.0758
32347W        W47816   1.721   0.133   4.100 -0.1712  0.0610 -0.0651
32348W        W47817  16.025   8.461  15.432  0.4060  0.0822 -0.0283
32349W        W47818  18.088  15.813   0.091  0.1769  0.1347 -0.0050
32350W        W47819   6.506   4.994  11.779  0.0922 -0.1115  0.0986
32351W        W47820   6.843  10.258  16.197  0.0212 -0.2624 -0.0245
32352W        W47821  12.171  10.429   0.201 -0.0626  0.0775  0.1888
32353W        W47822  16.936  16.528  16.055 -0.1441 -0.1728  0.3562
32354W        W47823   9.270   7.740   0.446  0.1455 -0.0771 -0.1878
32355W        W47824   3.073  14.447  14.311  0.0825  0.6220  0.0435
32356W        W47825  14.696  13.788   2.779 -0.2198  0.1363 -0.1142
32357W        W47826   5.377   5.631  13.076 -0.1354 -0.1543 -0.0040
32358W        W47827   3.036  13.301  14.163 -0.0413  0.0540  0.1225
32359W        W47828   5.814   3.209   1.804 -0.1158 -0.2177  0.0264
32360W        W47829  13.813   8.638  11.048  0.0519 -0.2598 -0.0704
32361W        W47830   5.385  14.537  14.096  0.3563  0.0101 -0.1233
32362W        W47831   9.493  11.443   3.699  0.4757  0.1214 -0.0611
32363W        W47832   5.068   1.148   5.960  0.0124 -0.0037 -0.2474
32364W        W47833  17.380  14.870  12.203  0.0094 -0.0490 -0.0414
32365W        W47834  13.643   1.525   4.217 -0.0326 -0.2215  0.1723
32366W        W47835  13.868   5.834  13.283  0.2325 -0.0943  0.1466
32367W        W47836  16.409  11.547   2.545  0.2588 -0.2342  0.0350
32368W        W47837   2.753   3.692  15.500 -0.2447  0.1955  0.2752
32369W        W47838   3.584   2.303   2.630 -0.0939 -0.0040  0.0818
32370W        W47839  15.049  13.611   2.512  0.1148  0.0983  0.0482
32371W        W47840  15.004   1.232  14.975  0.1351  0.0107 -0.0548
32372W        W47841   2.462   0.272   5.218 -0.0784 -0.1219  0.0469
32373W        W47842  15.667  12.925  12.869  0.1758 -0.0105 -0.0418
32374W        W47843   9.020   7.613  14.628  0.0859 -0.0084  0.0164
32375W        W47844  13.115   8.789   1.303  0.2621 -0.3331  0.0728
32376W        W47845   5.560   8.671   3.916  0.0777 -0.0652 -0.1532
32377W        W47846   4.318  15.946   2.752 -0.0222 -0.2471 -0.0241
32378W        W47847   5.518  16.392  11.033 -0.2373 -0.0959 -0.1379
32379W        W47848   8.157  14.492  11.949 -0.1770 -0.0530  0.2370
32380W        W47849  13.112  11.969  13.979  0.0266  0.0162  0.1649
32381W        W47850   5.318  13.828   4.416 -0.1099  0.0872 -0.1588
32382W        W47851   6.460  12.483  15.133  0.0393 -0.2531 -0.1442
32383W        W47852   2.423   1.230   0.644 -0.0585 -0.0246 -0.0084
32384W        W47853   9.532   4.542  13.631 -0.1129  0.0684 -0.0364
32385W        W47854   9.947  13.983  10.031 -0.2791  0.2863  0.0541
32386W        W47855  13.209   6.643   5.117  0.0988 -0.1227  0.3053
32387W        W47856  17.042  10.804   5.139 -0.1622 -0.2155 -0.1297
32388W        W47857  14.865   8.533  11.683  0.0066  0.0904 -0.1191
32389W        W47858  16.565  16.948   2.468  0.2774  0.0239  0.0497
32390W        W47859  12.324  15.250   0.850  0.0363 -0.2006  0.4391
32391W        W47860  10.666   0.171   1.675 -0.2643  0.0106 -0.1567
32392W        W47861   4.647   2.317   3.784  0.0257  0.2004 -0.0952
32393W        W47862   4.881   9.747   2.404 -0.1525  0.1107  0.1338
32394W        W47863   4.293   6.464   6.148 -0.2353  0.0235 -0.2944
32395W        W47864  16.498   4.485  14.218 -0.1494  0.0301  0.1614
32396W        W47865   2.118   7.091   5.364  0.2183 -0.1776 -0.1670
32397W        W47866  11.759   9.345   4.716 -0.0122  0.1410  0.0344
32398W        W47867   3.521  16.194   3.071  0.0311 -0.1332  0.1519
32399W        W47868   5.678   2.992   2.238  0.0190 -0.1282  0.0240
32400W        W47869  14.506  14.942   5.042 -0.1255 -0.0457 -0.1556
32401W        W47870  10.251   9.365   0.508  0.2753 -0.2862 -0.0443
32402W        W47871   6.749  17.366   2.391 -0.2113 -0.0258  0.0594
32403W        W47872  15.528  13.759  16.315 -0.0194 -0.3082 -0.0967
32404W        W47873   4.082  10.049  16.012 -0.0008 -0.0607  0.2231
32405W        W47874  10.967  11.244   0.057  0.0554  0.3446  0.0331
32406W        W47875  11.320  17.995   4.961 -0.1477 -0.0522  0.1784
32407W        W47876   5.695  15.797  15.609  0.1389 -0.3152  0.0919
32408W        W47877   4.130  11.368  11.406 -0.1610  0.1059 -0.0548
32409W        W47878  11.479  16.268   1.878 -0.0023 -0.3291 -0.0740
32410W        W47879   1.442   7.960   1.969  0.3249  0.1623 -0.0607
32411W        W47880  15.299   3.087   1.983 -0.2305  0.2351  0.0598
32412W        W47881  16.330  14.251  14.365 -0.0653 -0.1237 -0.0942
32413W        W47882   5.274   9.579   2.126  0.2136  0.1801 -0.2188
32414W        W47883  16.554  14.018  13.271 -0.1669 -0.2744  0.0960
32415W        W47884   1.564   5.751  11.406  0.1904 -0.4294 -0.0777
32416W        W47885  10.019   6.432   5.133  0.1173 -0.1576 -0.3338
32417W        W47886   4.159   3.426   3.395  0.1511  0.1853  0.0811
32418W        W47887   7.178  16.364   1.815 -0.2933 -0.2002 -0.0343
32419W        W47888  14.871  12.163   1.254  0.0478  0.1296 -0.0161
32420W        W47889   7.819   1.991  15.272 -0.2075 -0.0127 -0.0051
32421W        W47890   2.283   9.630   0.354  0.1511 -0.1643 -0.3205
32422W        W47891   7.773  10.550  13.847  0.1289  0.1063 -0.0004
32423W        W47892   3.297  14.347  12.357  0.3171 -0.1445 -0.1524
32424W        W47893  16.846   0.609   4.572  0.0774 -0.0025 -0.0581
32425W        W47894  17.689   3.055  11.334 -0.0908 -0.0924 -0.1388
32426W        W47895   8.698  14.166   0.014 -0.0202 -0.0636 -0.1158
32427W        W47896   0.707   8.286   1.856 -0.0419 -0.0366  0.0058
32428W        W47897   5.775  15.549  10.847  0.0810 -0.1167 -0.2217
32429W        W47898   1.270   8.427   3.325  0.0203 -0.0377  0.2714
32430W        W47899  14.252  17.698  15.889  0.2087  0.1701  0.0845
32431W        W47900  10.983   4.932   4.817 -0.0955 -0.1302 -0.0884
32432W        W47901  15.570   1.841   1.775  0.0782 -0.1189 -0.3332
32433W        W47902  13.169  14.425  13.973 -0.0459 -0.2185 -0.3053
32434W        W47903   9.131  10.310  11.980  0.0546 -0.1611 -0.2378
32435W        W47904  10.977   6.971  12.890 -0.0984  0.2405  0.1738
32436W        W47905   3.673   1.523  11.703  0.1840  0.0722 -0.1730
32437W        W47906   5.425   2.828  12.460  0.1205  0.0667 -0.2197
32438W        W47907  15.208  15.883   3.391  0.4303 -0.0321  0.1732
32439W        W47908  15.597  13.354   4.417  0.1299  0.0744 -0.1734
32440W        W47909  12.555   2.550  11.594  0.1136 -0.0957 -0.1345
32441W        W47910  13.447   3.344   3.315  0.2112 -0.0282 -0.1145
32442W        W47911   1.354   8.119  14.049 -0.1005  0.0782 -0.1030
32443W        W47912  17.615   5.707   0.650  0.2430  0.0455  0.0287
32444W        W47913   5.983   8.575  12.717 -0.0136 -0.2998 -0.3163
32445W        W47914  11.277  14.296  15.230 -0.0283 -0.1245 -0.3289
32446W        W47915   6.558   8.542  13.512  0.0596 -0.2415  0.0836
32447W        W47916  12.044  11.424   2.177 -0.1511  0.0465 -0.1434
32448W        W47917   5.055   2.078  15.510 -0.3421 -0.0414 -0.1126
32449W        W47918   7.019   1.133  15.011  0.2198 -0.0704 -0.2248
32450W        W47919  12.968   6.367  12.625  0.2262 -0.2264 -0.5278
32451W        W47920  12.128   0.506   1.808 -0.1500 -0.1816 -0.1234
32452W        W47921   7.633   6.595  12.240  0.2652  0.2298 -0.1718
32453W        W47922  15.246   5.940  15.834 -0.2929 -0.1550  0.1847
32454W        W47923   5.255  10.817  14.364  0.0149  0.0332  0.0039
32455W        W47924   1.390   7.214  12.796 -0.2328  0.0729 -0.0288
32456W        W47925  16.075  12.248  11.531  0.3304  0.0210  0.1129
32457W        W47926   4.958   9.490  10.213 -0.0419  0.2930  0.1020
32458W        W47927  12.197   8.532  15.392 -0.1045  0.1325  0.2801
32459W        W47928   4.486  13.953  16.215 -0.0419  0.2661  0.2637
32460W        W47929   8.990  17.355  16.148  0.0537 -0.3248 -0.0143
32461W        W47930   4.473   3.777  12.948  0.1353  0.0414 -0.0686
32462W        W47931   4.550   5.359  13.883 -0.3584 -0.0625 -0.1772
32463W        W47932   0.861   0.807   0.580  0.1554  0.0600 -0.3011
32464W        W47933   9.193   2.016   3.914  0.1712 -0.1202  0.2377
32465W        W47934   8.414  15.012  15.534 -0.0586  0.0867 -0.0250
32466W        W47935   8.536   1.332  13.084  0.2597 -0.0499 -0.1067
32467W        W47936  15.319   8.519  12.033  0.7292  0.3321  0.0272
32468W        W47937  10.890   2.271   3.406 -0.1662  0.0689  0.3264
32469W        W47938  13.480   5.505  11.003  0.0077 -0.1664  0.1824
32470W        W47939   5.081  10.603  12.303  0.0234  0.2757 -0.3893
32471W        W47940   8.154  15.367   1.407 -0.2029  0.3240  0.0013
32472W        W47941  10.537  10.955  16.184  0.1177  0.0290  0.1594
32473W        W47942   8.920   1.536  13.367 -0.0259 -0.0062  0.2553
32474W        W47943  15.683   0.201   1.570  0.1075  0.1091 -0.2914
32475W        W47944  13.362   3.755   3.562 -0.0194 -0.0839 -0.3735
32476W        W47945  11.966   5.774  14.569 -0.0256  0.0048  0.1914
32477W        W47946   4.138   0.936  11.434 -0.2791 -0.0435 -0.0408
32478W        W47947   9.463   5.490   0.844  0.1426 -0.1389  0.1770
32479W        W47948   0.876   8.607   3.774 -0.1948  0.0419  0.0534
32480W        W47949  13.546  16.106   2.120  0.3399 -0.1193 -0.2226
32481W        W47950   7.810   0.295   2.471  0.0052  0.3268  0.0213
32482W        W47951   8.714  16.414   5.161  0.0053 -0.0738 -0.1790
32483W        W47952  17.367   9.597   1.701 -0.1979  0.2344  0.0694
32484W        W47953  10.079   6.565  14.311 -0.0279  0.1679 -0.0503
32485W        W47954  16.453  13.855   1.618 -0.0944 -0.0657 -0.2959
32486W        W47955   2.383   7.790  11.382 -0.0493  0.0056  0.1063
32487W        W47956   6.435  13.603   2.462  0.0322  0.0844 -0.2056
32488W        W47957   1.066  14.118   1.405  0.0794  0.1931  0.1750
32489W        W47958   0.479   5.624   1.551 -0.0070 -0.0607 -0.0302
32490W        W47959   6.459   7.256   0.480  0.0249  0.0088 -0.1012
32491W        W47960  10.400  13.847  11.208 -0.1210  0.1044 -0.0053
32492W        W47961  12.512   4.969  11.804  0.0964 -0.0070 -0.1382
32493W        W47962  16.590   7.615  12.846 -0.3601 -0.0315  0.2746
32494W        W47963   2.055  13.398  12.591  0.2288  0.0379  0.0604
32495W        W47964   5.320   7.597   2.974 -0.1376  0.1137  0.0495
32496W        W47965   9.659  10.746  15.835  0.3134 -0.0004 -0.1358
32497W        W47966   7.592  18.066  13.872 -0.2627  0.1020  0.1584
32498W        W47967  17.139  12.999  12.959 -0.0372  0.1047  0.2187
32499W        W47968  10.253  11.262   0.619  0.0033 -0.1155  0.0430
32500W        W47969  15.885   7.831  13.726 -0.2891 -0.0444  0.0433
32501W        W47970   1.374   1.748   1.415  0.0137  0.0843  0.0699
32502W        W47971  12.297   5.816  14.235  0.0768 -0.1527 -0.0764
32503W        W47972   5.721   4.960  15.625  0.0757  0.0575  0.1116
32504W        W47973  17.733   3.109  15.443  0.0848  0.2942  0.0090
32505W        W47974   1.978   8.065   1.952  0.0181  0.3815 -0.1313
32506W        W47975  11.050  13.836   1.815  0.3138 -0.1429  0.2463
32507W        W47976   4.520   6.363  15.490 -0.1819  0.1619  0.1106
32508W        W47977  14.479   3.787   1.039  0.0447  0.1426 -0.1346
32509W        W47978  17.341   9.576  11.267 -0.1235  0.1093  0.2438
32510W        W47979   5.070  14.692   2.558  0.0407  0.0902  0.2788
32511W        W47980  15.009   9.446  15.887 -0.2746 -0.1393  0.0854
32512W        W47981   6.775   4.886   2.816 -0.0766 -0.1294 -0.3281
32513W        W47982  13.325  15.395   3.413 -0.0064  0.1396 -0.0642
32514W        W47983  17.125  17.743   2.199 -0.0415 -0.1630  0.1297
32515W        W47984   9.014   8.494  13.414  0.1839  0.0871 -0.1262
32516W        W47985   4.737  15.410   3.023 -0.0795  0.1031 -0.1879
32517W        W47986  11.551   4.622   3.561 -0.2507 -0.0383 -0.1945
32518W        W47987  17.103   2.732  13.534  0.1541  0.2053 -0.1133
32519W        W47988  16.418  11.634   1.997  0.2308 -0.0223 -0.0768
32520W        W47989  13.544  15.540  15.267  0.2389  0.3026  0.1037
32521W        W47990   5.831   2.364  13.691  0.1005  0.2085 -0.1609
32522W        W47991   0.386   2.255  13.258  0.2258  0.1311  0.2666
32523W        W47992  12.410  17.013   0.173  0.2097 -0.1703  0.0193
32524W        W47993  16.539   2.605   5.062 -0.0547  0.2157 -0.0045
32525W        W47994   8.615  11.662   5.453  0.1084 -0.4657 -0.0638
32526W        W47995  14.904   7.497   4.758  0.1213 -0.1196  0.0496
32527W        W47996  10.303   5.947   5.181  0.0127 -0.1908 -0.1955
32528W        W47997  10.477   9.421  15.622  0.0654  0.0401 -0.3310
32529W        W47998  13.705   2.752  13.582  0.2186  0.1438 -0.0244
32530W        W47999  13.889   3.224   4.597  0.2230  0.0632 -0.1949
32531W        W48000  13.812   3.205   5.616 -0.2409  0.0649 -0.1040
32532W        W48001   0.238   5.193  15.770 -0.3773  0.3904  0.2058
32533W        W48002  11.197   2.527  13.276  0.2078 -0.3601  0.2316
32534W        W48003   6.776   5.052   3.371 -0.1323 -0.0799 -0.1466
32535W        W48004   2.874  13.327   5.051  0.3107  0.2673 -0.0573
32536W        W48005   0.493   0.789   3.887  0.0034  0.0898  0.4818
32537W        W48006   8.937   9.621   3.109  0.1539 -0.0746 -0.0928
32538W        W48007   3.846  10.543   2.336  0.0486  0.1290 -0.0330
32539W        W48008   3.119   2.204  16.114  0.1011 -0.0098  0.0284
32540W        W48009  12.855   1.826   6.206 -0.0260 -0.2126  0.2325
32541W        W48010  11.806   9.550   5.194 -0.1354 -0.0963  0.2451
32542W        W48011   3.129  15.113  12.934  0.2055 -0.3373  0.1675
32543W        W48012  17.794  15.674  15.102 -0.0967 -0.1919 -0.1227
32544W        W48013   6.746   3.933  11.138 -0.0817 -0.2543 -0.2956
32545W        W48014  14.887  17.190   2.313 -0.1011 -0.1862 -0.2239
32546W        W48015  15.380   6.925  10.346 -0.1618  0.2399 -0.1330
32547W        W48016  10.119  14.462   3.000  0.2355 -0.3398 -0.2875
32548W        W48017  15.157  17.491   0.142  0.1178  0.2204  0.2458
32549W        W48018  14.929  15.624  11.912  0.3304 -0.1208 -0.1370
32550W        W48019   7.249  11.632  11.362  0.1105 -0.1213  0.2050
32551W        W48020   6.036   3.155  14.359 -0.1657  0.2992  0.2113
32552W        W48021  16.590   1.921  14.406  0.2635  0.0325  0.1504
32553W        W48022   2.142  12.969   0.162 -0.2329 -0.1323  0.2421
32554W        W48023   5.544   3.395  15.181  0.1261 -0.3872  0.0506
32555W        W48024  15.514   4.838  15.707  0.0665 -0.0566  0.0434
32556W        W48025  17.253   7.109   0.444 -0.0519 -0.3305  0.0292
32557W        W48026   2.946  14.620   3.148 -0.2133  0.0844  0.1552
32558W        W48027   8.247  12.134  11.086 -0.2414  0.1808  0.0765
32559W        W48028   3.875   3.016  12.844 -0.3370 -0.1740 -0.1923
32560W        W48029   8.979  14.973  13.478 -0.2671 -0.0987 -0.0582
32561W        W48030   3.946  14.396  11.104 -0.0164  0.0091 -0.0058
32562W        W48031   6.201   0.098  14.730 -0.2595 -0.0224 -0.0640
32563W        W48032  12.922  17.732   0.551  0.2716 -0.1482  0.0517
32564W        W48033  11.241   2.464  13.869 -0.2546 -0.1733 -0.1265
32565W        W48034   9.471   5.642  12.342 -0.3303 -0.0510 -0.2356
32566W        W48035  10.802   6.471   4.595 -0.0341 -0.0389 -0.0270
32567W        W48036  13.647   2.428  12.229  0.2845  0.1867  0.0526
32568W        W48037  13.576   1.004  16.309 -0.0495  0.1324 -0.3019
32569W        W48038  11.664   9.597  11.801 -0.0455 -0.2262  0.1407
32570W        W48039  15.445   3.508  13.758 -0.0281  0.1886  0.0648
32571W        W48040   1.732   7.910   2.423  0.3255  0.0705  0.0942
32572W        W48041  13.955   5.265  15.462 -0.2240 -0.0032 -0.0979
32573W        W48042  10.231  15.543  10.891  0.0911  0.1325  0.0436
32574W        W48043   0.547  10.337   2.747  0.3777 -0.1553 -0.3805
32575W        W48044  16.310   5.680  13.868 -0.2070  0.0724 -0.1791
32576W        W48045   9.902   3.326   5.836  0.2292 -0.2044  0.3258
32577W        W48046  15.239  15.856  11.168 -0.0937  0.0281  0.0759
32578W        W48047  16.034  14.966  15.894  0.1205  0.3852 -0.2039
32579W        W48048  15.547   5.159   2.703  0.2933 -0.1188  0.1537
32580W        W48049   3.039   7.533  15.479 -0.1815  0.0774 -0.1193
32581W        W48050  10.403   4.638  15.071  0.0903 -0.0446 -0.0100
32582W        W48051  12.499  14.691   0.736 -0.0758 -0.0649  0.1569
32583W        W48052  15.929   1.955   3.124  0.1715 -0.0468 -0.0951
32584W        W48053   4.701   8.531  16.107  0.0224 -0.0416  0.1372
32585W        W48054  10.970  14.059  12.937  0.0781  0.1613 -0.2703
32586W        W48055  12.484   7.083  15.699 -0.0923  0.1645  0.2462
32587W        W48056   4.376  17.230  16.191 -0.0630  0.1560  0.0804
32588W        W48057  16.650  15.143   2.799  0.3559 -0.2212 -0.0575
32589W        W48058   2.265  15.692   4.164 -0.2004  0.2762 -0.2210
32590W        W48059   1.960   3.611   0.996  0.2095  0.0222 -0.2585
32591W        W48060   5.468  11.547  13.651 -0.0629 -0.0175 -0.2726
32592W        W48061   6.616  15.423  13.256  0.0554 -0.1936 -0.1263
32593W        W48062   4.598  17.872  12.832  0.3115 -0.0657 -0.0123
32594W        W48063   8.961  17.198   1.378  0.1636 -0.0332  0.0028
32595W        W48064  17.530   6.493  13.687  0.1489  0.1421  0.1361
32596W        W48065   8.213  15.205   0.266  0.0257 -0.0397  0.1418
32597W        W48066   2.564   8.616  15.978  0.0885  0.1993 -0.2429
32598W        W48067   9.655   9.593   1.616  0.0407 -0.0040 -0.1179
32599W        W48068   2.360   2.563   0.103  0.0366  0.0923  0.1866
32600W        W48069  17.869   9.442  14.447 -0.0644 -0.2539  0.1432
32601W        W48070  10.488   0.505   4.015 -0.1238  0.1955 -0.0710
32602W        W48071  10.001   4.154  12.295 -0.1359 -0.2713 -0.2266
32603W        W48072   0.380   6.326   0.798 -0.1872  0.2094  0.0154
32604W        W48073  16.364  15.352  16.012  0.0504  0.0291  0.1161
32605W        W48074   0.801   4.383   3.510 -0.3582 -0.2362 -0.0589
32606W        W48075   4.256  13.059  11.345  0.1447 -0.2292  0.0744
32607W        W48076   0.827   0.112   1.139 -0.0940  0.1505  0.1516
32608W        W48077   3.077   2.818  13.927  0.3921  0.1431  0.0076
32609W        W48078  13.616  10.377  14.779  0.1730  0.0305 -0.2274
32610W        W48079   7.551   0.351  14.771  0.3449  0.1950 -0.0484
32611W        W48080   6.621  15.884   0.424 -0.2007 -0.2354  0.1903
32612W        W48081   1.760   2.899  14.483 -0.2355  0.0975 -0.1677
32613W        W48082  17.456   4.623  14.223  0.0733  0.2197 -0.0420
32614W        W48083   1.924   8.782   5.448 -0.0673  0.0837 -0.2755
32615W        W48084   9.957   1.178  14.554  0.0600 -0.1490 -0.0780
32616W        W48085   3.870  10.642   0.129  0.0339  0.0491 -0.0520
32617W        W48086  13.138   6.658   0.603 -0.2252  0.2480  0.2394
32618W        W48087   1.740   9.264   3.661  0.3037  0.1319 -0.2780
32619W        W48088   3.528   7.632   0.129  0.2908 -0.0656 -0.0130
32620W        W48089  17.897  16.786   4.757  0.0836  0.3800  0.3787
32621W        W48090  16.910   7.807  14.789 -0.1773 -0.2906  0.1703
32622W        W48091  17.666   2.264  11.200 -0.1281  0.1891 -0.0136
32623W        W48092  10.854   0.830  14.089 -0.0674 -0.1024 -0.1674
32624W        W48093   5.539  14.533  10.508  0.0905 -0.0755  0.1598
32625W        W48094  15.819  14.606  14.210 -0.0315 -0.0477 -0.1038
32626W        W48095  13.908  14.756  15.655 -0.1369 -0.3119  0.2654
32627W        W48096  17.230   0.925   1.490 -0.0233 -0.2707 -0.1815
32628W        W48097  10.355  16.090  12.880  0.0553 -0.0273 -0.0220
32629W        W48098   3.802  14.099   2.706 -0.0761 -0.0050 -0.0414
32630W        W48099   4.807  16.003  11.943 -0.1284 -0.0003 -0.1042
32631W        W48100  10.078  11.656  12.519  0.0622  0.1042 -0.2765
32632W        W48101   6.672   7.929   2.150 -0.2678 -0.0120  0.0661
32633W        W48102   4.802   9.786   4.251  0.0926 -0.2988  0.3166
32634W        W48103   3.795   8.312   9.999 -0.3614 -0.1770  0.2598
32635W        W48104   8.850   4.195   1.233 -0.1325 -0.0022  0.1237
32636W        W48105  14.168   8.800   2.661 -0.0747 -0.2164 -0.0587
32637W        W48106   3.727   9.049   0.567  0.0466 -0.0175 -0.0152
32638W        W48107   4.344   5.262   5.408 -0.1502  0.2909  0.0796
32639W        W48108   7.638  12.564   0.599 -0.0201  0.0128  0.1153
32640W        W48109   9.124   6.931  16.139  0.4288 -0.0489 -0.0059
32641W        W48110   1.529  11.849   4.945  0.0924  0.0762  0.0645
32642W        W48111  15.188   2.309  11.766  0.2276  0.1443 -0.4027
32643W        W48112  10.663   6.611  13.569  0.1269 -0.0912  0.0628
32644W        W48113  13.615   7.547  15.365  0.1326 -0.0825  0.0731
32645W        W48114  12.540   0.837   4.192 -0.3210  0.0531  0.0323
32646W        W48115   3.012   2.856  14.472  0.0274  0.2059 -0.1940
32647W        W48116  11.263   9.455  12.114  0.0831 -0.3548  0.1445
32648W        W48117  15.050  13.122  10.728  0.0901 -0.0866 -0.0813
32649W        W48118   1.088  10.276   1.100  0.0451  0.1905 -0.1211
32650W        W48119   3.240   8.993   3.895  0.3451 -0.2544 -0.3678
32651W        W48120  10.069  11.467  11.929 -0.1650  0.2064  0.0840
32652W        W48121   7.814  15.335  15.492  0.3470  0.0035 -0.2180
32653W        W48122   6.690  17.683   4.778 -0.1600  0.4077 -0.2643
32654W        W48123  16.655   2.331  11.679 -0.2976  0.3751 -0.1108
32655W        W48124   3.265  14.204   3.128  0.0988 -0.2843 -0.1543
32656W        W48125   3.817   2.291  13.475 -0.0776  0.0090  0.0832
32657W        W48126   0.463  13.432   0.031 -0.3139 -0.1085  0.1866
32658W        W48127   8.041   1.800   2.917  0.0703  0.0703  0.0948
32659W        W48128   4.141   5.855  13.129 -0.1292  0.0265 -0.1551
32660W        W48129   2.587  13.653   0.981  0.0185 -0.0165 -0.0319
32661W        W48130  14.466  13.817  12.018  0.1407  0.1040  0.0418
32662W        W48131  15.828  17.486  12.132  0.1378  0.1313 -0.0510
32663W        W48132  13.530  10.899   1.819  0.1828 -0.4088 -0.0412
32664W        W48133   8.788   5.122  13.209 -0.0021 -0.1932  0.0005
32665W        W48134  14.783   4.815  13.680  0.3075  0.0899 -0.0997
32666W        W48135  14.437  17.626  12.113  0.0779 -0.0401 -0.0037
32667W        W48136   8.627  14.674  14.241 -0.1097 -0.0172 -0.0307
32668W        W48137   9.013  17.327   4.523 -0.0502  0.0511  0.1236
32669W        W48138  14.043  12.768   5.651 -0.0071 -0.1286 -0.0532
32670W        W48139   8.312  16.428   0.594  0.2366  0.4945  0.0772
32671W        W48140   0.486   1.861  12.913 -0.2506  0.1013  0.1000
32672W        W48141   3.850   6.431   1.836  0.1276 -0.0851  0.0169
32673W        W48142   2.077  13.381   2.394  0.0573 -0.0870  0.1794
32674W        W48143  12.091   9.918  13.485 -0.0380  0.1941  0.0473
32675W        W48144  15.771   3.850   0.874  0.4071  0.1516  0.2982
32676W        W48145  12.994  11.367   2.985  0.2526  0.4562 -0.3475
32677W        W48146   4.434   6.931  13.986 -0.0307 -0.0013  0.0110
32678W        W48147   0.522  10.713  15.464 -0.2126  0.0082  0.3741
32679W        W48148   7.451   2.650   3.248  0.0308  0.1049  0.1170
32680W        W48149   2.076   3.703   0.516 -0.0482 -0.0474  0.1285
32681W        W48150   9.705   6.019   4.233  0.1180 -0.1064  0.0973
32682W        W48151  10.879  15.166   2.140 -0.1103 -0.1018 -0.2281
32683W        W48152   6.084  11.922  13.258  0.2923  0.4520 -0.1004
32684W        W48153  16.142  16.466  13.500 -0.1630 -0.0383 -0.2984
32685W        W48154   5.028   7.169   3.513  0.0353  0.0774  0.1215
32686W        W48155   7.482  18.018  14.962  0.3493 -0.1936  0.1981
32687W        W48156   3.383  10.694   2.515 -0.1495 -0.2454  0.0719
32688W        W48157   5.325   3.171  11.459  0.1898  0.0074 -0.1469
32689W        W48158   9.137  17.383   3.695  0.1520 -0.1993  0.2580
32690W        W48159   3.091   7.065   5.354  0.1429 -0.0770  0.3356
32691W        W48160   4.873  17.264   1.895  0.1125 -0.1385  0.1185
32692W        W48161  16.745   0.939  12.152 -0.0243  0.0849 -0.0155
32693W        W48162  12.478  11.276   0.905  0.2261 -0.0307 -0.0253
32694W        W48163  17.099  14.304  16.075  0.0467 -0.0083 -0.2294
32695W        W48164   7.588   0.628   3.880  0.3960  0.1658 -0.2852
32696W        W48165   7.876  12.354   0.030 -0.0099 -0.0467 -0.1620
32697W        W48166   7.296   4.644  13.563 -0.0748  0.1079  0.3546
32698W        W48167  16.798  12.816  14.155 -0.2371  0.0687  0.2043
32699W        W48168  12.721  10.174   1.896  0.2650  0.0345  0.0786
32700W        W48169  13.031   8.445  11.304 -0.0298  0.0264 -0.0450
32701W        W48170   3.255  14.829   2.494 -0.2292  0.1568 -0.0393
32702W        W48171  16.581   9.370  14.236  0.1791  0.0085 -0.1418
32703W        W48172  11.657  15.233   1.002 -0.0919 -0.4338  0.0729
32704W        W48173  18.017  11.270  15.857  0.0660  0.1736 -0.1317
32705W        W48174  15.799   9.088  16.046 -0.0997  0.1842 -0.0895
32706W        W48175  15.576  14.294   5.100 -0.1894  0.1383 -0.0862
32707W        W48176  17.229  13.525   0.428 -0.0579 -0.0324  0.1436
32708W        W48177  10.835   5.645   3.960  0.0625  0.0709  0.1892
32709W        W48178   2.875   1.744  16.062  0.0680  0.0910 -0.1334
32710W        W48179  14.772  15.848   0.394  0.0243  0.2583  0.2969
32711W        W48180   3.129   1.851   4.999  0.1908 -0.0973  0.0499
32712W        W48181  16.363   8.456  12.189  0.1157 -0.3889  0.1084
32713W        W48182   1.845   4.335  14.240 -0.3888 -0.1882 -0.0023
32714W        W48183   5.988  16.555   2.731 -0.0513 -0.0407 -0.0684
32715W        W48184  14.414   9.752  12.163  0.2174  0.0811 -0.3187
32716W        W48185   9.527  14.659  12.256  0.2597  0.0944  0.2654
32717W        W48186  17.708  10.309  11.261 -0.0884 -0.1276 -0.1849
32718W        W48187   2.917  16.291   2.987  0.2011 -0.1664  0.1381
32719W        W48188   9.259   0.544  16.003  0.0119  0.3061 -0.0848
32720W        W48189  10.279   6.710   0.951 -0.4085 -0.0573 -0.0422
32721W        W48190  15.810  10.334   4.747 -0.2778  0.1516 -0.0557
32722W        W48191   4.086   1.037  12.407 -0.0768 -0.0180  0.1938
32723W        W48192  14.586   6.033   2.339 -0.2094  0.2766  0.0380
32724W        W48193  11.009   4.176   4.245 -0.2210  0.1930  0.1582
32725W        W48194   8.273   0.390  10.444  0.0286 -0.1988  0.1278
32726W        W48195  13.121   7.662   4.940  0.0857  0.2138  0.1658
32727W        W48196   4.711   1.718   0.478  0.0980  0.1489  0.0062
32728W        W48197   2.176   6.615  13.499  0.0460 -0.1087  0.1243
32729W        W48198   0.894  13.603   1.121  0.2084  0.1597 -0.0289
32730W        W48199  11.047  18.009  12.965  0.3712 -0.1377  0.3204
32731W        W48200   3.889  14.594   1.060 -0.0483 -0.4294 -0.0054
32732W        W48201  11.616   9.662   0.375  0.0233  0.1517 -0.2694
32733W        W48202   8.401  13.936  10.993 -0.1977  0.0936  0.1986
32734W        W48203   1.272   6.985  11.784  0.3104 -0.0294  0.0280
32735W        W48204   1.357  12.227   2.217 -0.0901 -0.0307 -0.0058
32736W        W48205   1.886  10.849  12.300 -0.0426 -0.0698 -0.5635
32737W        W48206  16.375   8.515  13.178  0.1716 -0.2743 -0.0533
32738W        W48207   3.988   8.040  13.457 -0.1064 -0.0144  0.1642
32739W        W48208   9.213  17.176  15.120 -0.2129 -0.1781  0.0276
32740W        W48209  12.744  13.950   1.641  0.1620  0.0843 -0.0548
32741W        W48210   7.623  11.945   1.291 -0.2385  0.0024  0.0770
32742W        W48211   0.599   8.025   0.155 -0.0644  0.3178  0.2674
32743W        W48212  11.969  12.491   2.336 -0.2261  0.2129 -0.2486
32744W        W48213   4.708  11.673  13.017 -0.1605 -0.0018  0.1203
32745W        W48214   6.327  13.720  15.919  0.0599 -0.0072  0.1715
32746W        W48215  15.164   3.284  12.512 -0.3522 -0.0223 -0.0533
32747W        W48216  11.446   8.063   3.609 -0.1391 -0.1176  0.1906
32748W        W48217   1.728  17.315   4.430 -0.0951 -0.0981 -0.1867
32749W        W48218   4.964   3.474  14.416  0.0314  0.1117 -0.1491
32750W        W48219  14.698   3.473   3.333  0.3155  0.0371  0.3129
32751W        W48220   6.003  17.211   4.357  0.1261 -0.1378  0.2600
32752W        W48221   1.003   4.615  15.771 -0.1951  0.0127 -0.2426
32753W        W48222   3.149   2.292  11.724 -0.0891  0.0163 -0.1800
32754W        W48223  17.422   1.534  13.977 -0.2894 -0.2589  0.2568
32755W        W48224  14.305   9.285   1.925  0.2816  0.0075  0.1894
32756W        W48225   3.115   5.690  12.352  0.1113  0.1382 -0.0170
32757W        W48226   9.427  12.305  13.277 -0.2161  0.1859 -0.2104
32758W        W48227   2.973   8.849  16.165 -0.3471  0.2219  0.1595
32759W        W48228   7.437   9.190   2.263 -0.0555  0.1317 -0.1232
32760W        W48229   5.517   2.762   0.042  0.1628 -0.0723 -0.0398
32761W        W48230  17.699   8.644  14.727 -0.0986 -0.1529 -0.0284
32762W        W48231  11.786   9.961  15.291  0.0727  0.0255  0.2711
32763W        W48232   9.835  12.924  12.566 -0.1959 -0.0247  0.3027
32764W        W48233   5.319   9.232  12.377 -0.2378  0.1587 -0.0948
32765W        W48234  16.535  11.459   1.426  0.1460  0.1014  0.0542
32766W        W48235  16.483  11.925   0.112  0.3220  0.2010  0.0224
32767W        W48236  14.101  17.231  11.911 -0.0216  0.0716 -0.1237
32768W        W48237  14.448  14.238   2.041  0.1864  0.0447  0.0664
32769W        W48238  16.296  13.375   3.669  0.3704  0.0369 -0.0324
32770W        W48239  16.114   5.158  15.936  0.4894 -0.1256 -0.2944
32771W        W48240   6.568  13.177   3.266 -0.2996  0.1491 -0.1967
32772W        W48241  17.402   5.956  15.412  0.0177 -0.1578  0.0624
32773W        W48242  11.739   5.967   1.849 -0.2573 -0.0682 -0.2549
32774W        W48243  15.087   2.813   3.894 -0.3488  0.0369 -0.1457
32775W        W48244  17.704   2.054   2.936 -0.1590  0.1574 -0.2101
32776W        W48245   1.552   4.972   2.720  0.0230  0.3013  0.1302
32777W        W48246  14.583   2.708  10.257  0.1750  0.2238  0.1259
32778W        W48247   3.396  11.139   2.272 -0.2260  0.0611 -0.2751
32779W        W48248   8.513  13.765   2.654  0.0873 -0.3143 -0.0493
32780W        W48249   4.881   4.969   2.251  0.1785 -0.1873 -0.0045
32781W        W48250  15.167   5.393  13.021 -0.2341 -0.0721  0.1968
32782W        W48251  11.552  11.771   3.628  0.1283  0.2175 -0.0383
32783W        W48252   3.761   3.613   3.714  0.1082  0.0321  0.0439
32784W        W48253  14.305   5.392  12.019 -0.1848  0.1640  0.2158
32785W        W48254  11.131   9.554  14.422  0.0077 -0.0114 -0.2357
32786W        W48255   8.093   4.889   3.657 -0.0427  0.0373  0.1077
32787W        W48256   4.779   4.125  16.142  0.1427 -0.1102 -0.1179
32788W        W48257   1.759   7.490   2.149 -0.1264 -0.1470 -0.2648
32789W        W48258   2.028  11.904  13.412  0.0917  0.3461  0.1193
32790W        W48259   0.683  13.882   3.400  0.3482 -0.2417  0.1293
32791W        W48260   1.774  15.296   0.435 -0.0386  0.2973 -0.2154
32792W        W48261   8.223  17.658  15.383 -0.0729  0.0643 -0.0943
32793W        W48262  12.085  17.975   1.769 -0.2404 -0.0465  0.0977
32794W        W48263  17.414  14.282   1.446  0.3063 -0.1628 -0.4262
32795W        W48264  12.561  14.852  12.245  0.3693 -0.1734 -0.1839
32796W        W48265   9.113   4.919   0.119  0.1555  0.0082 -0.1003
32797W        W48266   8.205   4.006  14.359  0.0767  0.0968 -0.0417
32798W        W48267   4.892   2.578   0.638 -0.0053 -0.2303 -0.3350
32799W        W48268   5.579  14.915   3.079 -0.0992 -0.2427 -0.1661
32800W        W48269   1.066   8.441   5.588  0.2205 -0.1341 -0.0224
32801W        W48270   5.913  17.912   6.077  0.0948 -0.0486 -0.0554
32802W        W48271   8.979   6.809   1.497 -0.1427  0.0864 -0.1304
32803W        W48272  10.166   7.593   1.649  0.0868 -0.1595  0.1016
32804W        W48273  15.097   6.911   5.518  0.0096  0.2669  0.3423
32805W        W48274  15.170   5.316   4.311 -0.0638 -0.0746 -0.0119
32806W        W48275   9.003   4.533  12.929  0.1091  0.1001  0.1073
32807W        W48276   2.311   3.929  11.173  0.0999 -0.2544  0.1766
32808W        W48277   2.882  10.512  15.366  0.2104 -0.0913 -0.1539
32809W        W48278  13.989   7.796   2.715 -0.0977 -0.1449  0.0781
32810W        W48279   6.839   2.305   4.883 -0.0708  0.0640 -0.2484
32811W        W48280  13.109  12.452  16.170 -0.2268 -0.1233  0.0438
32812W        W48281  17.111   5.197   3.789  0.2173 -0.1651  0.0208
32813W        W48282  15.703  12.188   5.378 -0.1487 -0.1813  0.0496
32814W        W48283   8.441   1.424  13.553 -0.2666  0.0065  0.1371
32815W        W48284   9.461  15.455  12.732 -0.1402 -0.1232 -0.1147
32816W        W48285   5.757  15.074  12.048  0.1968 -0.0959 -0.3418
32817W        W48286   7.709   2.880  12.128 -0.0924  0.1853 -0.1570
32818W        W48287   5.093   4.279  15.350  0.1781 -0.0585 -0.1005
32819W        W48288  17.838  13.211   4.160  0.0898  0.1344  0.0572
32820W        W48289   8.843  13.223  14.258  0.0792  0.0258 -0.1482
32821W        W48290  10.566  14.504  15.943 -0.1231  0.1040  0.0719
32822W        W48291   4.472  17.918   4.157 -0.1862 -0.2022 -0.2367
32823W        W48292   5.704  14.242  12.655  0.1465 -0.2477 -0.2205
32824W        W48293   1.665   8.675   3.151  0.0496  0.2008  0.1776
32825W        W48294   2.782   5.640   3.353  0.0021  0.0646 -0.0825
32826W        W48295   1.857  17.970  10.220  0.1359  0.0774  0.4753
32827W        W48296   1.202   5.688  14.839  0.0547  0.0124  0.0469
32828W        W48297   2.664   6.224  16.060  0.4858 -0.2240 -0.4576
32829W        W48298  11.141  17.303  14.087  0.4495  0.2624  0.0893
32830W        W48299   7.293  11.328  13.293 -0.1578 -0.2161 -0.0012
32831W        W48300  17.424  12.325  11.823  0.0049  0.4599 -0.1094
32832W        W48301  15.298   7.765   0.191 -0.3580 -0.0559  0.2437
32833W        W48302   8.811   2.688  14.337  0.1041 -0.0956  0.2215
32834W        W48303   5.673  15.072   1.215 -0.0795  0.3269 -0.1175
32835W        W48304  11.827   2.490  12.304  0.1253  0.4885  0.0263
32836W        W48305  16.637   4.764  16.057 -0.1546 -0.0146  0.0267
32837W        W48306  12.727  14.843  14.520 -0.0498 -0.0838 -0.2643
32838W        W48307   2.152  16.032   5.489 -0.1545  0.0624  0.1524
32839W        W48308   6.385   3.025   6.534  0.1290  0.0171  0.0860
32840W        W48309  12.996   0.490  15.030 -0.3392 -0.1865  0.1869
32841W        W48310   8.089  11.245  13.401 -0.0045 -0.2071  0.0182
32842W        W48311  11.100  16.545   3.349 -0.0269  0.1200 -0.3174
32843W        W48312  17.971  14.698   3.068 -0.0858 -0.0361  0.1164
32844W        W48313   0.110  16.657  12.791 -0.3125 -0.0017  0.0915
32845W        W48314   6.264  10.155  14.908 -0.2716  0.2313 -0.1500
32846W        W48315   1.725  11.623  13.807 -0.3041  0.1207  0.1984
32847W        W48316   1.941  17.856  11.975 -0.0903  0.1223 -0.0799
32848W        W48317   1.738  13.262  11.559  0.0892  0.0395 -0.0674
32849W        W48318  14.656   3.422   5.843  0.0675  0.2763 -0.0348
32850W        W48319  17.143   9.705  13.295  0.1860 -0.1205  0.4176
32851W        W48320  14.851   9.499  12.035 -0.0408 -0.2475 -0.1251
32852W        W48321  17.897   0.536   2.516  0.0091  0.0368 -0.0894
32853W        W48322   9.418   6.404   4.028  0.3202  0.0709  0.2787
32854W        W48323   0.109  17.973   0.982 -0.0525  0.0879  0.1258
32855W        W48324   0.555  16.467   5.174 -0.0605 -0.1861  0.0194
32856W        W48325   8.976  12.942  15.564 -0.1079  0.1469 -0.0156
32857W        W48326  12.573  11.749  14.170 -0.1442 -0.1980 -0.1680
32858W        W48327  16.973   0.083   3.788  0.1416 -0.1087 -0.0240
32859W        W48328   0.754   3.427  13.928 -0.1609  0.3321  0.0997
32860W        W48329  17.898  17.652   2.337  0.1822 -0.0229  0.2194
32861W        W48330   7.491   2.445   2.734  0.5014  0.0821 -0.2130
32862W        W48331   0.839  16.313  14.268  0.2628  0.0955 -0.0962
32863W        W48332  14.090  10.823  13.588  0.0077 -0.0368 -0.0789
32864W        W48333  16.979   4.797  15.071  0.2121  0.1894  0.1862
32865W        W48334   5.979  10.606  12.437 -0.2544  0.2290 -0.1577
32866W        W48335  10.086  17.439  12.246  0.2032 -0.0373 -0.1087
32867W        W48336  18.060  13.154   3.111 -0.2474 -0.0481 -0.0979
32868W        W48337   8.559  16.452  14.780  0.0912 -0.1030 -0.1123
32869W        W48338  12.920   3.801   4.438 -0.2673  0.1355  0.1278
32870W        W48339  17.379  12.348   0.459 -0.1244  0.3175  0.1649
32871W        W48340  12.638   4.635  14.171 -0.0826 -0.0917  0.0708
32872W        W48341  17.013   3.861   3.783  0.0245 -0.1096 -0.0113
32873W        W48342  16.875   4.154  15.737 -0.0277 -0.1560 -0.0353
32874W        W48343  12.789  12.430   3.445  0.0135 -0.0253 -0.2266
32875W        W48344  17.274  11.237  11.149 -0.0699  0.2713 -0.0977
32876W        W48345   4.137  17.118  11.617 -0.2024  0.2458 -0.1835
32877W        W48346  12.431  10.834   0.261  0.2548  0.0858  0.1400
32878W        W48347  10.437   5.773  13.010 -0.0454 -0.0343 -0.0342
32879W        W48348   7.907   2.676  14.151  0.4627 -0.1439  0.1772
32880W        W48349  13.625   7.913  15.970  0.0448 -0.0908 -0.0708
32881W        W48350   9.398  14.147  15.614 -0.0024 -0.0578  0.1086
32882W        W48351  16.719  17.636   4.468 -0.3574 -0.4454  0.0282
32883W        W48352   4.127   9.316   2.717 -0.1466  0.4637 -0.0731
32884W        W48353   4.282   1.682   3.065 -0.2028 -0.0025  0.0854
32885W        W48354  12.984   9.185  15.381 -0.1772 -0.3250  0.2741
32886W        W48355  15.444  15.376   1.734 -0.1498 -0.3005 -0.1873
32887W        W48356   3.356  17.578  15.001 -0.1954 -0.1410  0.0851
32888W        W48357  11.330  16.134   3.825 -0.1493  0.0134 -0.1815
32889W        W48358   2.682   9.934  16.205  0.1574 -0.1921  0.4022
32890W        W48359   5.378  17.851  14.918  0.3377 -0.0294 -0.0593
32891W        W48360   7.609   7.510  10.615  0.1282 -0.2277  0.0334
32892W        W48361   5.716  16.642   0.892  0.3776  0.3845 -0.0141
32893W        W48362   9.035   2.943   3.614  0.0399  0.2824 -0.0744
32894W        W48363   8.478  12.008   1.256 -0.2077 -0.1016 -0.1588
32895W        W48364  12.479   6.220  11.474  0.3910 -0.0843 -0.1126
32896W        W48365   9.814   3.758  13.018  0.1103 -0.1329  0.0478
32897W        W48366   2.261  13.338   1.925 -0.3090  0.0886  0.1220
32898W        W48367   8.292   9.044   3.272 -0.0172  0.0782  0.0114
32899W        W48368   9.298   3.107   2.781  0.1246 -0.0143 -0.3201
32900ION     NA48369   4.594   0.952   4.924 -0.1838  0.0441  0.0744
32901ION     NA48370  13.106  13.506  10.466  0.1925 -0.2307  0.3455
32902ION     NA48371  14.356  11.582  15.214  0.0267  0.0938 -0.1631
32903ION     NA48372  14.768  13.683  15.399  0.0846  0.0917  0.2872
32904ION     NA48373   9.852  18.059   4.130 -0.0246  0.0164 -0.0527
32905ION     NA48374  14.943  17.017  10.169 -0.0613 -0.2499 -0.0776
32906ION     NA48375   4.042   5.523   5.082 -0.1113  0.1614  0.0131
32907ION     NA48376  13.862   5.657  14.111  0.0509 -0.0257 -0.1950
32908ION     NA48377   2.614   8.365   1.341  0.0926  0.1354 -0.0309
32909ION     NA48378   0.920   0.066  15.249 -0.2066 -0.2506  0.1662
32910ION     NA48379  14.356  14.447  10.370  0.3011 -0.0746  0.1189
32911ION     NA48380  11.240  10.411  15.567 -0.0621  0.4294  0.0845
32912ION     NA48381  16.697   6.701   5.720 -0.2114  0.1576 -0.0130
32913ION     NA48382  17.873   4.854   0.999  0.1162  0.1590  0.0213
32914ION     NA48383  10.755   9.921   5.881 -0.0340  0.2397  0.1454
32915ION     NA48384  13.855   1.351  13.746 -0.0743  0.0245  0.4877
32916ION     NA48385  10.852   4.103  10.724 -0.2588  0.3512 -0.0829
32917ION     NA48386   3.240   4.072  10.338 -0.1212 -0.2669 -0.1119
32918ION     NA48387   5.382   3.652  14.145  0.0408  0.1317 -0.1525
32919ION     NA48388   4.845  12.444  10.390  0.3191 -0.0160  0.4004
32920ION     NA48389   6.898   1.451   0.369  0.3161  0.1408  0.3073
32921ION     NA48390   6.806   2.956  10.818 -0.0319  0.2361  0.0810
32922ION     NA48391   5.799  10.879   3.288 -0.0514 -0.0058  0.1467
32923ION     NA48392  15.901  15.760  13.707 -0.0546  0.0850 -0.3230
32924ION     NA48393  12.464   4.979  14.540  0.3095 -0.0569  0.1059
32925ION     NA48394   0.095  10.074  14.468  0.0131  0.0719  0.1684
32926ION     NA48395  11.800   1.476  10.972  0.1871 -0.1322  0.3228
32927ION     NA48396  16.923   2.884   1.289  0.1335  0.1538 -0.1380
32928ION     NA48397   7.960  10.297  15.615 -0.0825 -0.0208 -0.2496
32929ION     NA48398  12.877  16.020  11.330  0.0394  0.0623  0.1190
32930ION     NA48399  17.494   6.118   4.258  0.1869  0.1825 -0.1660
32931ION     NA48400  17.609  14.742   1.305 -0.2669  0.0482  0.2225
32932ION     NA48401   7.228  10.933   2.844 -0.1379 -0.1614 -0.2708
32933ION     NA48402   8.033   3.417  10.707  0.1751  0.0487 -0.0862
32934ION     NA48403  17.611  14.532  10.467 -0.2895 -0.1583 -0.0991
32935ION     NA48404  14.574   8.612   2.784 -0.2303  0.1855  0.2468
32936ION     NA48405   6.056   0.331  10.223 -0.1083 -0.1135 -0.1259
32937ION     NA48406   1.934  15.254   5.946 -0.1261  0.1164 -0.1222
32938ION     NA48407   4.127   1.454   5.712  0.0912  0.2467 -0.4124
32939ION     NA48408   4.451  10.400   5.749 -0.0573 -0.0778  0.1195
32940ION     NA48409  17.010   5.665   5.114  0.1576 -0.0237 -0.1223
32941ION     NA48410  15.134   3.470  11.616  0.1155  0.1662 -0.1683
32942ION     NA48411  17.759  10.061  13.067 -0.0770  0.0141  0.1300
32943ION     NA48412  16.214   7.723  15.410 -0.0197  0.0254  0.2769
32944ION     NA48413   7.538  15.987  10.338 -0.1687 -0.1058 -0.1370
32945ION     NA48414   3.516   6.266   5.664 -0.0102 -0.0048 -0.0515
32946ION     NA48415   8.973  11.788   5.811  0.1578 -0.4317 -0.0362
32947ION     NA48416   9.838   1.798  16.243 -0.0544 -0.1687  0.1980
32948ION     NA48417  13.607   1.251  10.385  0.0434 -0.1571  0.4505
32949ION     NA48418   5.304   5.185   0.593 -0.1013  0.1192  0.0717
32950ION     NA48419   6.973   9.664   5.947  0.0673 -0.0623 -0.0983
32951ION     NA48420   7.566   1.102   4.605  0.1951  0.0316  0.1608
32952ION     NA48421   1.481   9.726  10.428  0.1042  0.4406  0.0429
32953ION     NA48422   8.225  17.735   1.900  0.1850 -0.3881  0.3384
32954ION     NA48423   9.626   2.247   2.826 -0.0534  0.1937 -0.1217
32955ION     NA48424   2.053  11.196   1.040  0.2378  0.1824  0.1084
32956ION     NA48425  11.145  16.473   4.987 -0.1789  0.1781 -0.1036
32957ION     NA48426   5.727  17.103  11.854 -0.0503  0.0618  0.3325
32958ION     NA48427   8.801  16.737  10.356 -0.0969  0.2134 -0.3431
32959ION     NA48428  13.553   2.978  10.521  0.2420  0.4658 -0.2206
32960ION     NA48429  17.266  11.698  10.549  0.1607 -0.1082  0.0574
32961ION     NA48430  10.572  14.050  11.634 -0.0203  0.1980 -0.2537
32962ION     NA48431   8.476  11.981   5.887 -0.0285  0.0712  0.1127
32963ION     NA48432  10.868   8.204   3.417  0.2429 -0.0092  0.1823
32964ION     NA48433  13.378   2.456  15.843  0.0775 -0.0920  0.0201
32965ION     NA48434   8.689  15.365   2.753  0.0322 -0.4265  0.3025
32966ION     NA48435  14.880  10.555   5.115  0.1939  0.0698  0.1887
32967ION     NA48436  11.349  13.044   2.552  0.1589 -0.0683  0.1150
32968ION     NA48437   2.220   3.976  13.014  0.2626 -0.1368  0.0211
32969ION     NA48438  13.199   6.077  14.608 -0.1608  0.0323 -0.0980
32970ION     NA48439  10.190  16.579   6.062  0.0252  0.0556 -0.3133
32971ION     NA48440  12.163  11.544  10.663  0.1703 -0.1533 -0.0947
32972ION     NA48441  11.861  15.577   1.553 -0.1306 -0.1070  0.2026
32973ION     NA48442  15.787   0.966   2.135 -0.1289  0.0191 -0.1775
32974ION     NA48443   9.538   0.472  11.039  0.0014  0.0333  0.0167
32975ION     NA48444   2.696   6.946   2.776 -0.1975  0.1937  0.0677
32976ION     NA48445   9.379   3.225   3.265  0.0714  0.1596 -0.2145
32977ION     NA48446  11.646  10.092   2.963  0.0017  0.2864 -0.2891
32978ION     NA48447  13.350  17.867   5.821  0.0119 -0.2578  0.0259
32979ION     NA48448   8.530   0.859  15.588  0.1225  0.2195  0.0078
32980ION     NA48449  11.679  12.917  15.887  0.1352 -0.2435 -0.0507
32981ION     NA48450   6.108  11.062  14.237 -0.2249  0.1245  0.0420
32982ION     NA48451   8.740   2.395  13.163  0.1977  0.1395  0.0937
32983ION     NA48452   9.903  16.394   0.009  0.2684 -0.0485 -0.5138
32984ION     NA48453  11.838   7.857   5.697  0.0731 -0.0083  0.0257
32985ION     NA48454   0.290  17.979   4.208 -0.0131 -0.3406 -0.1555
32986ION     NA48455  13.057   7.446  10.695  0.0809  0.0121  0.0178
32987ION     NA48456   4.143  14.697  10.651 -0.1323  0.1153 -0.1475
32988ION     NA48457   7.574  12.099  12.600  0.0344 -0.0046 -0.0891
32989ION     NA48458  13.510  11.661  10.111 -0.2549  0.1949 -0.0538
32990ION     NA48459  16.630   8.106  13.047 -0.1523  0.3678  0.0767
32991ION     NA48460  14.009  13.009  15.713  0.4206  0.2866  0.0944
32992ION     NA48461   9.088  16.094   3.871  0.0213  0.1313  0.1789
32993ION     NA48462  11.277   0.802   6.494  0.1107 -0.0324 -0.2663
32994ION     NA48463   4.311  15.653  13.168 -0.0157 -0.0814  0.0759
32995ION     NA48464   3.915   0.782   4.704 -0.0048 -0.2950 -0.2882
32996ION     NA48465  14.571   4.722   6.195  0.0678 -0.1194  0.1768
32997ION     NA48466  15.151   1.888   5.359  0.0331  0.0922  0.0917
32998ION     NA48467   3.914  16.280  10.283 -0.0755  0.0771 -0.1337
32999ION     NA48468  17.485   7.018  10.066  0.1438  0.0290  0.1466
33000ION     NA48469  13.680  11.911   5.940 -0.5108 -0.1637  0.1652
33001ION     NA48470  17.279  10.194   3.899  0.3758 -0.1619 -0.1737
33002ION     NA48471  16.779   0.766  15.091  0.0015  0.0333  0.0383
33003ION     NA48472  15.032   7.391  15.575  0.0644  0.0438 -0.0385
33004ION     NA48473   6.741   0.728   0.849 -0.0155  0.4366 -0.0634
33005ION     NA48474   6.176  17.113  14.070  0.0526 -0.0950 -0.1122
33006ION     NA48475  13.447   9.469  13.544 -0.2090  0.0328  0.0730
33007ION     NA48476  17.469   4.830  14.873  0.0913  0.0563  0.1975
33008ION     NA48477  10.043   3.331  13.840 -0.0716 -0.0700  0.2189
33009ION     NA48478   9.542   3.270  12.635 -0.2492 -0.3235  0.3264
33010ION     NA48479  15.183   5.837  15.318 -0.1324  0.0483 -0.2745
33011ION     NA48480  12.793   6.525  13.723 -0.2385 -0.0893  0.1243
33012ION     NA48481  15.081   9.727   4.559 -0.4029 -0.0352 -0.0323
33013ION     NA48482   4.816  14.418   1.351  0.0502  0.0353  0.2389
33014ION     NA48483  11.155   3.074  13.140  0.1560  0.3177 -0.0315
33015ION     NA48484   9.359   2.881  10.925 -0.1187 -0.3421  0.3004
33016ION     NA48485  14.024  16.310   1.521 -0.0016  0.0904  0.1907
33017ION     NA48486   3.704  10.211   3.117 -0.2891 -0.0051 -0.1639
33018ION     NA48487  16.034  12.648   2.408 -0.0808 -0.2024  0.0729
33019ION     NA48488  13.207  17.309  15.815  0.0729  0.3227  0.0068
33020ION     NA48489   4.514  14.358  14.480  0.0518 -0.0814  0.2857
33021ION     NA48490  10.513   3.130  15.155 -0.1992 -0.0281  0.0517
33022ION     NA48491   4.045  10.482  14.756 -0.0615  0.2374  0.0891
33023ION     NA48492  15.810  10.373  16.267  0.5338  0.0504 -0.2270
33024ION     NA48493  10.292  17.046  11.975 -0.4292  0.1455 -0.2175
33025ION     NA48494  15.695  10.800   2.928  0.2263  0.0490 -0.0274
33026ION     NA48495   7.623   2.732  15.163  0.0668 -0.2301  0.1623
33027ION     NA48496   7.603  13.116   5.360 -0.2457 -0.3238 -0.1544
33028ION     NA48497  14.126  15.413   1.035  0.2433  0.0103  0.1869
33029ION     NA48498   1.271   5.042   5.664 -0.0678 -0.3257  0.1641
33030ION     NA48499   8.426  14.843   0.651 -0.0964 -0.0052  0.2102
33031ION     NA48500  16.281   8.630   2.939 -0.0489  0.2054  0.1093
33032ION     NA48501  17.379   5.457   1.040 -0.0111  0.1098 -0.0583
33033ION     NA48502   0.364   2.253   5.721  0.0541  0.0440  0.0181
33034ION     NA48503   8.291  14.052   4.080 -0.0993  0.0846  0.1374
33035ION     NA48504  10.397   9.779   3.575 -0.0028  0.2748  0.0712
33036ION     NA48505   6.475   0.785  13.908  0.4046 -0.0787  0.5028
33037ION     NA48506  12.201   9.595  12.552  0.1301 -0.2480 -0.2272
33038ION     NA48507  10.702   0.996   0.769  0.1393  0.0917 -0.0818
33039ION     NA48508   1.271   6.315  10.419  0.2178  0.1036 -0.0391
33040ION     NA48509   8.335  12.318  14.781  0.2832 -0.0088  0.1635
33041ION     NA48510   6.515   7.784  10.499 -0.0067  0.0508 -0.1658
33042ION     NA48511  15.294  17.627   5.032  0.2509  0.0965 -0.1902
33043ION     NA48512   4.066  12.961   3.205  0.0081  0.0382 -0.3411
33044ION     NA48513   2.122   9.003  10.162 -0.1338 -0.2362  0.0311
33045ION     NA48514   4.507  16.100   0.182 -0.2044  0.4542 -0.3335
33046ION     NA48515   4.429  12.926   5.620  0.2747 -0.0592  0.0304
33047ION     NA48516   5.747  14.917   9.611  0.2297 -0.4201 -0.2517
33048ION     NA48517   4.202   4.104  11.041  0.3877  0.0210 -0.1127
33049ION     NA48518   6.212  11.711   5.731  0.0979 -0.0085  0.0515
33050ION     NA48519   1.862   4.785  12.481  0.0024 -0.0210  0.1485
33051ION     NA48520  14.957   3.829   3.708 -0.0723 -0.1585  0.1075
33052ION     NA48521   1.131   1.006   5.709  0.1530  0.0456  0.2108
33053ION     NA48522   7.716   4.207   1.216 -0.1158 -0.2517 -0.0020
33054ION     NA48523   1.175  12.383   3.065 -0.0002 -0.1267 -0.3264
33055ION     NA48524   6.717   3.863   5.900  0.0803 -0.3467  0.1850
33056ION     NA48525   5.573  10.464   2.499 -0.0535  0.0825  0.1187
33057ION     NA48526  13.640   0.371  16.110  0.3166  0.0672  0.0330
33058ION     NA48527  17.711   2.941   1.696 -0.0039 -0.1079  0.3645
33059ION     NA48528   6.768   0.152   5.175 -0.0470 -0.1473  0.3903
33060ION     NA48529  13.696   1.312   0.444  0.1119  0.2972  0.2710
33061ION     NA48530   9.076  13.201   3.838  0.1118  0.0129 -0.0426
33062ION     NA48531   3.972  14.796  13.530 -0.1733  0.1380 -0.0624
33063ION     NA48532   6.245  12.377   1.722 -0.0592 -0.2902  0.3652
33064ION     NA48533  12.381   1.698   6.025 -0.2076  0.1157  0.1835
33065ION     NA48534   9.353  11.079   2.111 -0.2685 -0.0592 -0.0567
33066ION     NA48535   9.087   2.090  10.489  0.0319  0.1161 -0.1445
33067ION     NA48536  11.560   1.603   3.508  0.3504 -0.1522  0.1075
33068ION     NA48537  11.642   5.353  14.307 -0.0286  0.1458  0.1086
33069ION     NA48538  11.081   9.489  10.193  0.0646  0.1027  0.0358
33070ION     NA48539   2.740   7.214  10.115  0.0983  0.1277 -0.1383
33071ION     NA48540   2.394  13.755   5.737  0.1277  0.0978 -0.2956
33072ION     NA48541   0.173   6.293  15.952  0.1291 -0.0462  0.0005
33073ION     NA48542   2.970   8.189   5.516 -0.0624 -0.2206  0.0441
33074ION     NA48543   5.230  13.691   9.856 -0.1149 -0.0065  0.0353
33075ION     NA48544   4.819   9.599   1.199 -0.2108 -0.0828 -0.0661
33076ION     NA48545  16.811  15.536  14.582  0.4169 -0.0084  0.0472
33077ION     NA48546   0.757   4.724  13.600  0.1057 -0.1650  0.2829
33078ION     NA48547  10.788   4.986  13.576  0.0684  0.1194 -0.0469
33079ION     NA48548   1.885  12.082   2.224 -0.2067 -0.2426 -0.1339
33080ION     NA48549   0.016  15.314  10.419 -0.1098 -0.0901 -0.0263
33081ION     NA48550  10.334  12.243  10.449 -0.1118  0.1281 -0.0217
33082ION     NA48551  15.916  17.986   2.150 -0.0757 -0.1268 -0.0255
33083ION     NA48552   0.334  16.208  14.564 -0.0614 -0.1743 -0.1203
33084ION     NA48553   6.071   5.275  10.358 -0.0408  0.1330  0.0397
33085ION     NA48554  10.647   6.213  13.158  0.0991 -0.0620  0.0671
33086ION     NA48555   8.289  17.610  10.918  0.1476  0.3374 -0.1767
33087ION     NA48556   9.658   3.077  15.770 -0.0530  0.2899  0.2444
33088ION     NA48557  16.143  16.349  15.487 -0.2987 -0.1055 -0.1198
33089ION     NA48558   3.068   3.237   0.957 -0.1561  0.2294  0.1887
33090ION     NA48559   9.658   4.138  14.822 -0.0276  0.1078 -0.1995
33091ION     NA48560  16.018  16.538  12.712  0.2281  0.0234 -0.0757
33092ION     NA48561  12.451  11.006  13.704  0.3662 -0.2177  0.3119
33093ION     NA48562   5.443  15.995   5.683  0.0195 -0.0067  0.2310
33094ION     NA48563   0.674  15.887  13.657 -0.1892  0.1367 -0.0804
33095ION     NA48564   4.406   7.880  10.364 -0.0013 -0.3011 -0.1761
33096ION     NA48565  17.819  13.632   5.855 -0.3457 -0.1710  0.0041
33097ION     NA48566   2.273   0.726  10.262 -0.1090 -0.1397 -0.0074
33098ION     NA48567   3.522   7.826   0.741  0.1542  0.0297 -0.1511
33099ION     NA48568  10.171   9.419  10.398 -0.3958 -0.1385  0.2766
33100ION     NA48569  14.826   8.239   2.506 -0.1104  0.1264 -0.0076
33101ION     NA48570  11.402   9.998  14.298  0.0017 -0.0771 -0.2690
33102ION     NA48571  10.862  14.739  13.845 -0.1061  0.1120 -0.3492
33103ION     NA48572  14.355  13.478  13.895  0.1313 -0.0555 -0.0018
33104ION     NA48573   3.622  12.638  15.162 -0.1248  0.0751  0.0330
33105ION     NA48574   0.033   6.006  14.080  0.2141  0.0844  0.2683
33106ION     NA48575   9.774  15.744  10.661 -0.1195  0.1376 -0.0840
33107ION     NA48576   2.255   8.492   5.786  0.2623 -0.1993  0.1260
33108ION     NA48577   4.219  17.250  13.566  0.3486 -0.0203 -0.1519
33109ION     NA48578   4.954   5.717  15.462  0.3256  0.1263  0.2658
33110ION     NA48579  14.338  17.054   4.029 -0.2899  0.2099  0.3745
33111ION     NA48580  10.512  16.170   0.923 -0.0308  0.0787  0.0654
33112ION     NA48581   1.848  11.822   6.165  0.0824 -0.1546  0.1222
33113ION     NA48582   9.815   1.722   5.896 -0.0214  0.1645  0.1617
33114ION     NA48583   4.550   0.711  10.450  0.2018  0.0696 -0.0141
33115ION     NA48584   5.812  16.133   4.270 -0.3576  0.0101 -0.0064
33116ION     NA48585  13.951   1.804   3.976 -0.0494 -0.1966 -0.2123
33117ION     NA48586  15.868   5.141   6.468  0.2706  0.0916 -0.1644
33118ION     NA48587   3.585  15.558  12.718 -0.1667 -0.0978 -0.0790
33119ION     NA48588  13.091  13.632   2.006  0.0752 -0.0333 -0.0571
33120ION     NA48589  13.501   3.715  10.630  0.1429  0.1007  0.2756
33121ION     NA48590  11.574  16.704  10.376 -0.1632 -0.0878  0.0521
33122ION     NA48591  12.858   1.752  15.297  0.2660  0.0630 -0.1506
33123ION     NA48592   0.103   5.201  10.178  0.2562  0.2820  0.2525
33124ION     NA48593   3.972  13.271  10.317 -0.2684  0.0244 -0.1840
33125ION     NA48594   4.563  14.697  15.501  0.0335 -0.0238 -0.1781
33126ION     NA48595   0.478  15.533   1.688  0.0523 -0.2464  0.0041
33127ION     NA48596  17.006   6.961   6.175 -0.2880  0.0091 -0.1845
33128ION     NA48597   8.975   2.303  14.682  0.0182  0.0907 -0.0327
33129ION     NA48598  15.448   6.229   0.907 -0.1817 -0.1813 -0.1469
33130ION     NA48599   5.900  16.530  10.050  0.2295 -0.1632 -0.0959
33131ION     NA48600  14.351  15.291   5.865 -0.0288 -0.0096  0.0920
33132ION     NA48601  15.067   9.273   0.518 -0.0008 -0.2002 -0.0153
33133ION     NA48602   1.862   9.758   5.483  0.1370 -0.1689 -0.0012
33134ION     NA48603   1.157  13.200   1.221 -0.0599 -0.0143  0.0598
33135ION     NA48604  14.065   8.180  11.164  0.0484 -0.2855 -0.0850
33136ION     NA48605  12.877  16.579   0.290 -0.0177  0.1657 -0.1289
33137ION     NA48606  16.520  11.938  13.462  0.1615 -0.0510  0.0870
33138ION     NA48607  12.336   4.233   6.014 -0.2685 -0.2048  0.0560
33139ION     NA48608  10.153   0.232   3.124 -0.3228 -0.1971  0.2703
33140ION     NA48609   0.090  13.949  14.676 -0.1096  0.0081 -0.0945
33141ION     NA48610  15.152   1.072   2.819 -0.1935  0.1737  0.0381
33142ION     NA48611   7.373   5.240  12.186 -0.0561  0.1609 -0.1011
33143ION     NA48612   2.500   6.709  14.225 -0.0021  0.1247  0.0058
33144ION     NA48613  17.509  17.280   2.214  0.1692 -0.2855 -0.0759
33145ION     NA48614   0.084   6.018   5.639  0.0504  0.0609 -0.0122
33146ION     NA48615   2.080   2.563  13.745  0.0890 -0.0348  0.3780
33147ION     NA48616  11.057   7.807  13.415  0.0686  0.3531  0.1723
33148ION     NA48617  16.736   0.318   5.685  0.3710 -0.1089  0.0897
33149ION     NA48618   4.436   1.489  15.112  0.1710 -0.2137  0.1769
33150ION     NA48619  15.966  17.744  16.147  0.0298  0.0355  0.0323
33151ION     NA48620  10.922   2.739  10.882 -0.0546 -0.3636 -0.0601
33152ION     NA48621  10.273   3.809   6.346 -0.0676  0.2730 -0.1676
33153ION     NA48622  11.994  14.916  16.046  0.0472 -0.0108 -0.0528
33154ION     NA48623  14.763   7.251  10.944 -0.1666  0.0716  0.1815
33155ION     NA48624  14.939  12.129  10.317  0.1197 -0.0060 -0.2032
33156ION     NA48625  14.743  12.054   5.861  0.1713  0.0980 -0.2807
33157ION     NA48626  14.747  15.061  11.876  0.0893  0.0482  0.2399
33158ION     NA48627  13.604   7.916   0.666 -0.1459  0.2536 -0.2304
33159ION     NA48628   4.454   6.906   3.894  0.1750 -0.2565  0.0017
33160ION     NA48629   7.714   6.443  15.766 -0.0167 -0.3272 -0.3398
33161ION     NA48630   3.128  15.920   3.321 -0.3695 -0.0593 -0.1629
33162ION     NA48631  11.633  11.226   6.023  0.3599  0.0282  0.4210
33163ION     NA48632  12.698  17.913   3.242 -0.2917 -0.1664  0.0834
33164ION     NA48633   9.528   5.459  15.301  0.1750 -0.2107  0.0410
33165ION     NA48634   7.112   1.306   2.838  0.3767 -0.3002 -0.0746
33166ION     NA48635   0.720   5.122   2.793 -0.2408 -0.1497 -0.1466
33167ION     NA48636   0.771   1.308   0.624 -0.0814 -0.2573 -0.0115
33168ION     NA48637   3.177  15.933   1.241  0.0638 -0.1771 -0.0656
33169ION     NA48638  13.858   2.345   5.924 -0.0969 -0.0846  0.2054
33170ION     NA48639   1.899   9.355  14.477  0.2247  0.0634 -0.2550
33171ION     NA48640   3.097   5.207   2.701 -0.5788 -0.1245 -0.0271
33172ION     NA48641   0.029  17.751  10.130  0.1726 -0.1855 -0.4022
33173ION     NA48642   8.129   0.683   6.046  0.4814  0.2573  0.0292
33174ION     NA48643   9.813   8.591  10.417 -0.0162 -0.1818  0.2149
33175ION     NA48644  10.041  11.830  13.557 -0.2499  0.0006  0.4390
33176ION     NA48645  10.546  13.320   5.672  0.0024 -0.0742  0.0900
33177ION     NA48646  12.776  10.809  15.937  0.3116 -0.1797  0.3771
33178ION     NA48647   1.780  11.027  15.570 -0.0937 -0.2130 -0.1870
33179ION     NA48648   5.389   7.000   4.860 -0.1209  0.0398 -0.0130
33180ION     NA48649   8.368   5.915  15.994 -0.3018 -0.2676  0.0409
33181ION     NA48650  14.998  14.432  14.588  0.1560  0.0116  0.0389
33182ION     NA48651   8.818   2.306   5.640  0.0481  0.1333 -0.0096
33183ION     NA48652   4.281  13.990   0.423  0.1316  0.1500  0.0136
33184ION     NA48653   1.885  10.315  13.005  0.1506  0.2831  0.0749
33185ION     NA48654   0.697   7.985   4.888  0.3581 -0.0686 -0.0779
33186ION     NA48655  16.309  12.856   5.519 -0.0790 -0.2212  0.0481
33187ION     NA48656  10.367  14.081  10.320 -0.0253 -0.1041  0.1605
33188ION     NA48657  11.739   2.421  10.924  0.0471  0.1164  0.2608
33189ION     NA48658   2.033   6.556  10.425 -0.3105  0.0670  0.1147
33190ION     NA48659  14.854  13.171   3.911 -0.1064 -0.1665 -0.2103
33191ION     NA48660  17.322  13.150  11.326  0.3030  0.0233  0.3229
33192ION     NA48661   9.296  11.046  10.822  0.2032 -0.1409  0.1182
33193ION     NA48662  16.163   8.469  10.643  0.2077 -0.0277  0.1410
33194ION     NA48663  14.234   6.085  10.378 -0.0227 -0.2378  0.4051
33195ION     NA48664  13.981   3.288   6.417  0.0822 -0.0024  0.1424
33196ION     NA48665   6.879   7.290  14.841 -0.1158 -0.0423  0.1817
33197ION     NA48666  15.791  13.041   0.743  0.0794  0.1745 -0.0130
33198ION     NA48667  14.823   4.366  10.509  0.0297  0.2250  0.0952
33199ION     NA48668   3.475   6.676   3.397 -0.0386 -0.2066  0.3542
33200ION     NA48669  12.864  10.905  10.676  0.2015  0.1359 -0.2379
33201ION     NA48670   5.644  13.439  14.024  0.2559  0.0283  0.0982
33202ION     NA48671  15.972  13.998  10.365  0.1496  0.0846 -0.2526
33203ION     NA48672   9.013  15.723  12.388 -0.1617  0.0424  0.4826
33204ION     NA48673  15.760  16.760   2.933  0.1278  0.0848 -0.0344
33205ION     NA48674  12.295  11.025  15.123  0.1119  0.1696  0.0655
33206ION     NA48675   9.603   0.566  14.094  0.0328  0.0310  0.1033
33207ION     NA48676  15.763  13.545   3.804 -0.1835  0.1994 -0.1132
33208ION     NA48677   7.895  16.411   5.677 -0.1108 -0.0691  0.0295
33209ION     NA48678  14.174   8.647   3.633 -0.0330 -0.0225 -0.1139
33210ION     NA48679   9.335   9.965  13.652 -0.3686 -0.0938  0.1353
33211ION     NA48680  16.706   5.646  13.565  0.2156 -0.1668  0.2232
33212ION     NA48681  15.524   0.793  10.066  0.2015 -0.0870 -0.2199
33213ION     NA48682  15.440  12.090  10.384 -0.2350 -0.0021  0.2397
33214ION     NA48683   4.477  11.677   5.680 -0.0855 -0.2790 -0.2891
33215ION     NA48684  11.650  10.288  10.329  0.0678  0.0101 -0.2808
33216ION     NA48685  17.059  15.616   5.821  0.0359 -0.0356 -0.2193
33217ION     NA48686  14.065   7.353  15.490 -0.0157 -0.2187  0.0748
33218ION     NA48687   2.226  16.071  10.387 -0.1087  0.1667 -0.0150
33219ION     NA48688  18.057  11.557  10.338 -0.2703  0.1979 -0.0450
33220ION     NA48689   7.925  13.179  10.227 -0.0039 -0.0368  0.0177
33221ION     NA48690  15.454  10.996   1.383  0.1484  0.1103  0.0958
33222ION     NA48691   5.962   1.947   3.448 -0.1645 -0.2552  0.0381
33223ION     NA48692  10.357  11.694   3.544  0.1352 -0.1976 -0.0713
33224ION     NA48693   0.691   3.911  14.621  0.0384  0.1069  0.2098
33225ION     NA48694  12.663   6.876   1.180  0.0004 -0.2215  0.3186
33226ION     NA48695   3.335  13.836  10.090 -0.0993 -0.0344  0.0034
33227ION     NA48696  12.211  13.767  10.759 -0.1258  0.3042  0.0381
33228ION     NA48697  15.893   1.674  16.057  0.1316  0.2175  0.0708
33229ION     NA48698   3.713   7.051  10.173  0.0278 -0.1226 -0.2729
33230ION     NA48699   0.280  14.349   3.029 -0.2181 -0.0861 -0.1915
33231ION     NA48700   8.388  12.394   0.955 -0.0661  0.0320 -0.2687
33232ION     NA48701  17.211   4.844  13.025 -0.0694 -0.0366 -0.2278
33233ION     NA48702   7.640  10.062   4.617 -0.2072  0.1969 -0.2751
33234ION     NA48703   8.837   8.081  14.596 -0.0421 -0.1499 -0.5265
33235ION     NA48704   3.572  12.482   5.650 -0.1322  0.2795  0.2997
33236ION     NA48705  17.136   7.984   5.972 -0.3179  0.0978 -0.0303
33237ION     NA48706  12.019  13.429   5.242 -0.3997  0.0418  0.0403
33238ION     NA48707   6.255  10.943  10.171 -0.3909  0.0718 -0.1179
33239ION     NA48708   1.072  16.944   5.795 -0.1883  0.0566 -0.3117
33240ION     NA48709   5.298  17.387   6.130 -0.0311 -0.1203  0.1508
33241ION     NA48710  16.418  10.987   2.431  0.1230  0.0569  0.0672
33242ION     NA48711   3.107  16.545  10.416  0.0516  0.0507  0.0703
33243ION     NA48712   8.478   8.629  10.548  0.1976  0.0007  0.2061
33244ION     NA48713  12.543   3.531   4.162  0.0037  0.0053  0.0553
33245ION     NA48714   5.693  13.042  15.193 -0.4645  0.2437  0.2377
33246ION     NA48715   9.058   5.237   0.577  0.0134  0.1208 -0.1171
33247ION     NA48716  12.847   8.811  10.997 -0.2038 -0.0610  0.2399
33248ION     NA48717  14.591  17.539   1.501 -0.1678  0.0140 -0.3130
33249ION     NA48718  17.580   6.198  10.385  0.1988 -0.0284 -0.1667
33250ION     NA48719   4.671   8.299   1.748 -0.0472 -0.2088 -0.1672
33251ION     NA48720  17.994   8.879   4.506  0.0756  0.0989  0.0953
33252ION     NA48721  16.342   4.653   6.289  0.0781 -0.2958 -0.0967
33253ION     NA48722  14.877   7.199   1.434 -0.0165 -0.1976  0.1748
33254ION     NA48723   6.448   1.619  11.561  0.3488  0.1050  0.1442
33255ION     NA48724   8.573   2.760  10.658 -0.2787  0.4624 -0.1107
33256ION     NA48725   5.274   2.853  10.777  0.0061  0.0042 -0.1695
33257ION     NA48726  11.460   2.248  14.781 -0.3778  0.0105 -0.0613
33258ION     NA48727  10.564   4.064  15.291  0.0811 -0.3094  0.0352
33259ION     NA48728  12.276   2.162   0.248  0.0869 -0.0005 -0.1436
33260ION     NA48729  11.436  17.263   1.775  0.0896  0.2028 -0.1696
33261ION     NA48730  17.794   6.988  14.855 -0.2094  0.2582  0.2047
33262ION     NA48731  14.413  15.173   3.239  0.0116 -0.0217 -0.1080
33263ION     NA48732  16.160  13.121  15.005 -0.1572  0.0205 -0.0438
33264ION     NA48733   3.043  17.998   5.943 -0.0183 -0.3296 -0.0703
33265ION     NA48734  11.308  11.808  10.373  0.0451 -0.0362 -0.0313
33266ION     NA48735   8.797   7.163  14.668  0.2822  0.4066 -0.1407
33267ION     NA48736   7.604  10.332  10.300  0.0069  0.2066  0.2358
33268ION     NA48737   9.040   5.740   1.875 -0.1385  0.0951  0.2401
33269ION     NA48738   5.022   6.437  13.512 -0.1246 -0.1274 -0.0804
33270ION     NA48739   2.321   0.540  15.032 -0.1875  0.2167 -0.0473
33271ION     NA48740  10.777   9.000   6.196 -0.1398  0.0098  0.0886
33272ION     NA48741   9.424  14.403   2.232 -0.0269 -0.0744 -0.0852
33273ION     NA48742  10.124  16.920  13.158 -0.0435 -0.0874 -0.2504
33274ION     NA48743   8.771  13.383  15.648 -0.1843 -0.0494 -0.0498
33275ION     NA48744   3.312   0.820  14.539  0.1310  0.0699  0.2663
33276ION     NA48745  10.633  17.947  14.630  0.1319 -0.0216  0.1202
33277ION     NA48746   3.833   8.900   2.438  0.1380  0.1349 -0.0442
33278ION     NA48747   7.979  16.766  13.867 -0.2178 -0.1830  0.0775
33279ION     NA48748   5.512   9.639  10.350  0.0706 -0.1815  0.1009
33280ION     NA48749  13.663  14.063  13.304  0.1704 -0.2604  0.1793
33281ION     NA48750  11.767  12.823   5.788  0.0937  0.1808  0.2257
33282ION     NA48751  11.253  14.545   0.235  0.0041 -0.2425 -0.0998
33283ION     NA48752  16.560  16.773   3.082  0.2153  0.0650 -0.0351
33284ION     NA48753  12.943   5.189   6.050  0.0860 -0.1747  0.1514
33285ION     NA48754  15.811   9.813  11.238 -0.0850 -0.0504  0.1396
33286ION     NA48755   1.898   0.420   2.713 -0.0294  0.0483 -0.2742
33287ION     NA48756   3.310   5.146  12.456  0.2997 -0.1388  0.2416
33288ION     NA48757   8.331  13.313   5.806  0.2422 -0.2465 -0.1454
33289ION     NA48758   3.438   2.625  14.235 -0.0892 -0.0847 -0.0083
33290ION     NA48759   6.593   2.395   1.767  0.0412  0.1525 -0.2065
33291ION     NA48760  10.695  13.637   3.749  0.3836  0.0904  0.0575
33292ION     NA48761   1.671   0.472   5.963 -0.4155 -0.0431  0.1299
33293ION     NA48762   4.177  15.885   2.188  0.0294  0.0116 -0.1120
33294ION     NA48763   5.526   3.658   5.984 -0.2427  0.1353 -0.2243
33295ION     NA48764   3.650   9.512  10.138 -0.2042 -0.3163 -0.1876
33296ION     NA48765  10.329  14.512   3.531  0.2462 -0.1848 -0.0290
33297ION     NA48766   7.993   9.839   1.950 -0.3500  0.2524 -0.0187
33298ION     NA48767  13.588  11.646   0.117 -0.1187 -0.0139  0.0846
33299ION     NA48768   6.798   9.998  10.254 -0.1320  0.2867  0.0207
33300ION     NA48769   9.329  11.122   4.750 -0.0426  0.1089  0.0537
33301ION     NA48770  15.204   3.803   2.575 -0.2026 -0.1329 -0.0662
33302ION     NA48771   5.442  17.920   3.380  0.3555 -0.0823 -0.0436
33303ION     NA48772   3.546  15.377  10.224 -0.1977  0.2239 -0.1958
33304ION     NA48773   8.861  13.815  10.481  0.1078  0.1149  0.1729
33305ION     NA48774  16.193   5.075  15.194 -0.1131 -0.1565 -0.0999
33306ION     NA48775   1.566   2.716   1.438  0.0535 -0.1400 -0.3427
33307ION     NA48776   7.008  16.010   1.504 -0.1147  0.2232  0.1289
33308ION     NA48777   5.961   0.224   5.667 -0.1138 -0.1561  0.1018
33309ION     NA48778  16.499  11.342   6.067  0.0982 -0.0838 -0.6683
33310ION     NA48779  14.182   9.940   4.953  0.1289  0.0032  0.2913
33311ION     NA48780  13.982   1.334  12.117 -0.1878  0.1087 -0.0840
33312ION     NA48781  17.525   3.862  15.118 -0.0912  0.1496 -0.1093
33313ION     NA48782   1.102   3.169  10.212 -0.2707  0.2221  0.0298
33314ION     NA48783  12.185  14.383   4.232  0.0654 -0.0082  0.0358
33315ION     NA48784  12.415  18.053  14.527 -0.3117  0.2834  0.0532
33316ION     NA48785   6.988  14.688   0.502  0.1917  0.0248  0.1636
33317ION     NA48786   8.627  14.056   1.814 -0.3134 -0.0266  0.1127
33318ION     NA48787  17.112   9.298  10.382 -0.0208  0.0259 -0.2936
33319ION     NA48788   4.391  10.685  10.223  0.0515  0.0401  0.0341
33320ION     NA48789   2.106  12.880   6.094 -0.1504 -0.1150 -0.2296
33321ION     NA48790   1.231   7.636   1.664  0.0064 -0.0189 -0.1418
33322ION     NA48791   0.195  13.269  13.743  0.0238  0.0977 -0.0089
33323ION     NA48792   0.302   0.590   2.780  0.5269  0.1243  0.0237
33324ION     NA48793   1.691  13.352  15.139 -0.3058 -0.0279  0.0937
33325ION     NA48794   6.092   8.773  10.630 -0.0891 -0.0113  0.1638
33326ION     NA48795  12.589   9.391   4.252  0.0085 -0.1226 -0.2051
33327ION     NA48796  16.898   0.701  12.593 -0.2561 -0.0032 -0.2029
33328ION     NA48797   9.252  11.391  13.639 -0.0123  0.3135  0.0835
33329ION     NA48798  11.760   0.070   6.305 -0.2000 -0.0470  0.0389
33330ION     NA48799  11.810  16.637  15.724 -0.0225  0.1461  0.1602
33331ION     NA48800   6.425   0.084   1.511  0.2764  0.1725 -0.0205
33332ION     NA48801   7.817   8.304  10.634 -0.0432 -0.1227  0.0815
33333ION     NA48802  11.193   0.928  10.960  0.0898 -0.0959  0.0559
33334ION     NA48803   3.340  15.054   5.931  0.1981 -0.1845  0.0667
33335ION     NA48804   9.197  12.248   3.979  0.3054  0.0760  0.1083
33336ION     NA48805   3.809   5.453  14.830 -0.2307  0.0229  0.2895
33337ION     NA48806   6.187   7.924   5.743 -0.0758 -0.2423 -0.1419
33338ION     NA48807   5.641   7.977  10.446 -0.0173  0.0083  0.0100
33339ION     NA48808  17.016   4.416  14.157 -0.0906  0.2181 -0.2164
33340ION     NA48809   7.738   7.029  10.522 -0.3739  0.1071  0.0148
33341ION     NA48810   5.820   0.540   1.918 -0.1737  0.0396 -0.1865
33342ION     NA48811  11.739   2.454   6.297 -0.0569 -0.0849  0.0645
33343ION     NA48812   2.518   6.193   0.328  0.3646  0.3211 -0.0371
33344ION     NA48813  15.255  15.604   6.038 -0.0850  0.0132  0.2256
33345ION     NA48814   5.606  14.000   1.484 -0.1856  0.2172  0.0931
33346ION     NA48815   4.425  18.058   3.547  0.1989  0.3663  0.0376
33347ION     NA48816   9.391  15.955   5.808 -0.0438 -0.1896  0.4893
33348ION     NA48817  16.113   4.012  10.192 -0.2848 -0.0527 -0.4257
33349ION     NA48818   9.071   5.336  12.456 -0.1898  0.1374 -0.1835
33350ION     NA48819  10.088   9.046  15.824  0.1023 -0.2095 -0.1921
33351ION     NA48820   7.889  12.493   5.551  0.1513 -0.2150  0.1489
33352ION     NA48821  18.097   9.694  15.835 -0.0985 -0.1210 -0.0644
33353ION     NA48822  17.197   2.510   5.638  0.2949 -0.0333  0.0762
33354ION     NA48823  11.078  14.606  10.320 -0.0049 -0.0420  0.1709
33355ION     NA48824   6.494  14.638  11.578 -0.0187 -0.1721  0.0681
33356ION     NA48825   7.077   2.505   2.473 -0.1424 -0.0490  0.0783
33357ION     NA48826  16.304   6.264   0.334 -0.2560  0.0768  0.0651
33358ION     NA48827   4.777  17.514  10.332 -0.2448 -0.0291 -0.0575
33359ION     NA48828   7.331   8.860   5.697 -0.0923 -0.0177  0.1452
33360ION     NA48829   8.375  17.360   0.585 -0.0404  0.1732 -0.0370
33361ION     NA48830   7.606  16.530  15.779  0.0050 -0.0983  0.0328
33362ION     NA48831   9.261   0.441   5.449 -0.3695  0.2130 -0.1181
33363ION     NA48832  10.225   2.362  10.633 -0.1379 -0.1283 -0.0400
33364ION     NA48833  12.765  15.272  10.305 -0.4359  0.2530  0.1677
33365ION     NA48834  15.762   4.101   5.853 -0.0806  0.0189  0.0800
33366ION     NA48835   4.381   5.470  14.362  0.0170  0.3188  0.0969
33367ION     NA48836  15.465  11.746   6.071  0.3977 -0.2481 -0.0232
33368ION     NA48837   6.541   3.740  10.395 -0.1189 -0.1459  0.1456
33369ION     NA48838  11.967  14.054  12.337  0.0265  0.0387  0.0920
33370ION     NA48839   2.685  15.723  12.730  0.2523 -0.0915 -0.3377
33371ION     NA48840   0.933  15.514  11.900 -0.0859 -0.1776  0.0273
33372ION     NA48841  15.849   7.082  10.165 -0.1464 -0.0230 -0.0431
33373ION     NA48842   5.701  17.095   1.918  0.0230 -0.0579  0.1282
33374ION     NA48843   6.414   3.630  12.681  0.0855  0.1302 -0.1270
33375ION     NA48844   8.137   5.895  10.766  0.0820  0.0620  0.3220
33376ION     NA48845  15.834   6.813  13.854  0.2052  0.0741 -0.0349
33377ION     NA48846   4.445  15.269  10.320 -0.2227 -0.0105 -0.0164
33378ION     NA48847   3.576   6.548  15.930  0.1742 -0.2269 -0.1799
33379ION     NA48848   1.415   7.247  10.511  0.1189 -0.0778 -0.1685
33380ION     NA48849   2.099   1.447  13.543 -0.2337 -0.1640 -0.0864
33381ION     NA48850   4.705   6.435  10.441 -0.0925 -0.0863  0.2098
33382ION     NA48851   8.913   8.626  16.194  0.1164 -0.2589  0.0160
33383ION     NA48852  11.764   5.333   4.176 -0.2165  0.1648  0.0044
33384ION     NA48853   4.811   6.887   6.096 -0.1884  0.2739  0.0973
33385ION     NA48854   9.301   7.851  10.550  0.1158  0.0695 -0.0132
33386ION     NA48855   3.965   1.214  15.730 -0.1490 -0.0893 -0.0713
33387ION     NA48856   9.247  17.121   4.117  0.1131  0.2247 -0.1591
33388ION     NA48857  13.004   4.286  13.326  0.1631 -0.1353  0.1490
33389ION     NA48858  15.933  15.097  14.571 -0.0193  0.4167 -0.0296
33390ION     NA48859   4.925   9.604  15.264 -0.2853 -0.4335 -0.4452
33391ION     NA48860  11.597  17.368  14.017 -0.4690  0.0528 -0.2897
33392ION     NA48861   5.386   4.636   6.217 -0.2519  0.3947  0.2023
33393ION     NA48862  10.867   3.051   6.457  0.3830  0.1827 -0.1932
33394ION     NA48863  10.772   5.139   6.222  0.0907  0.1594  0.4119
33395ION     NA48864   9.594  12.990   0.043  0.0162  0.0338  0.0925
33396ION     NA48865  11.159  10.186   5.109 -0.2479 -0.1730  0.0936
33397ION     NA48866  14.654   4.821   4.052 -0.1817  0.0229  0.0365
33398ION     NA48867  16.244   5.184   3.454  0.1104 -0.0372 -0.0577
33399ION     NA48868   0.242  14.519  10.200 -0.0132 -0.0499 -0.1963
33400ION     NA48869   7.852   9.136   1.900 -0.1857  0.1141 -0.2422
33401ION     NA48870  15.553  16.051   0.692 -0.1062 -0.1909  0.1231
33402ION     NA48871   5.433   1.807  14.185 -0.3542 -0.0500 -0.0749
33403ION     NA48872   1.430   3.559   5.759 -0.0293  0.0164  0.0668
33404ION     NA48873   2.699   9.478   2.902  0.0142 -0.0407 -0.1183
33405ION     NA48874   7.247  15.217  14.658 -0.1264  0.0722  0.0365
33406ION     NA48875   0.043  15.433   2.531  0.1061  0.2913  0.2841
33407ION     NA48876   1.031   8.157  14.839  0.0219  0.0210 -0.0040
33408ION     NA48877  10.465   6.454  10.343  0.0408 -0.1527 -0.0223
33409ION     NA48878   4.906   8.339   5.584  0.1585 -0.0591 -0.1324
33410ION     NA48879   5.852  16.214  13.531  0.1563  0.0506 -0.0329
33411ION     NA48880   3.268  16.743  15.954  0.0924  0.4156  0.1828
33412ION     NA48881   2.537  17.354   1.995  0.1394  0.0263  0.0356
33413ION     NA48882   0.537  14.387   1.503  0.2110 -0.0175  0.0663
33414ION     NA48883  10.126   4.707  10.884 -0.0050 -0.1029 -0.1085
33415ION     NA48884  11.890   7.475  10.585  0.1626  0.3178  0.1533
33416ION     NA48885  12.248  11.460   6.042  0.1255 -0.0699  0.2921
33417ION     NA48886  11.248   0.233   0.563 -0.1151  0.1676 -0.0610
33418ION     NA48887   7.596   9.540   1.038  0.0464 -0.1218 -0.0688
33419ION     NA48888  13.746  16.316   0.465  0.0654 -0.0222  0.1077
33420ION     NA48889   5.692   0.127  14.607  0.2165  0.0427  0.3392
33421ION     NA48890  12.598   2.717  10.596  0.0209  0.3594  0.0094
33422ION     NA48891  14.578  14.188   2.501 -0.1809  0.0866  0.0742
33423ION     NA48892  13.933   7.921   3.192 -0.1503 -0.1657 -0.1202
33424ION     NA48893   0.675   7.623  16.155 -0.0759  0.1515  0.5469
33425ION     NA48894  12.085   0.883   6.232 -0.2693  0.2044  0.0382
33426ION     NA48895  11.212  12.175   6.168  0.1978 -0.3315  0.2535
33427ION     NA48896   6.430   2.111  10.689  0.1627 -0.1994  0.4073
33428ION     NA48897  10.198  17.968  10.740  0.2769  0.1626  0.0741
33429ION     NA48898  10.190  11.822  14.911  0.0448  0.2777 -0.3198
33430ION     NA48899   1.749   5.722   5.105  0.2857 -0.2625 -0.0720
33431ION     NA48900  17.593   0.262   5.341 -0.2181  0.0348  0.1019
33432ION     NA48901  10.565   7.743   4.217 -0.1545 -0.0682  0.1715
33433ION     NA48902  17.793   0.438   2.058  0.1891  0.1067  0.0438
33434ION     NA48903  13.182   2.072   1.085 -0.3395  0.0538 -0.0234
33435ION     NA48904   6.614   6.389  10.514 -0.0970 -0.0422  0.1353
33436ION     NA48905   8.060   2.244   6.379  0.1952  0.2983  0.0967
33437ION     NA48906  16.902  16.914  15.718 -0.0766  0.0009 -0.0188
33438ION     NA48907  14.600   0.131  14.591  0.0336  0.3107 -0.0618
33439ION     NA48908  12.144   8.752  14.424 -0.2048  0.1804  0.0797
33440ION     NA48909   0.218   8.362  10.255  0.0764 -0.0969  0.2532
33441ION     NA48910   8.187  11.478   4.436 -0.0016 -0.1587  0.3757
33442ION     NA48911  12.476   8.785  13.132 -0.3434  0.0633  0.1472
33443ION     NA48912  18.087   5.053   6.110 -0.1374  0.1296  0.0384
33444ION     NA48913   0.748  16.769   0.753 -0.0526 -0.3569 -0.3791
33445ION     NA48914   7.066  17.265   1.590  0.0222  0.3199 -0.1701
33446ION     NA48915   4.445  15.032   0.099 -0.0394 -0.2608 -0.0467
33447ION     NA48916   9.387  10.833   0.961 -0.0690 -0.1894 -0.0034
33448ION     NA48917  15.977   3.205  13.177 -0.0759 -0.1229  0.0523
33449ION     NA48918  13.459  16.173   2.908  0.0155  0.2321 -0.0021
33450ION     NA48919   0.900  17.460   1.348  0.0321  0.0734 -0.1087
33451ION     NA48920  13.839   8.410  10.609 -0.0021 -0.0423 -0.0272
33452ION     NA48921  13.021   5.993  16.319  0.0385 -0.0943 -0.2105
33453ION     NA48922  13.892  12.476   1.854  0.1561 -0.1445 -0.3664
33454ION     NA48923  15.155  14.615  15.747  0.2153 -0.1152  0.0769
33455ION     NA48924  16.777  14.386  15.168  0.2822  0.0646 -0.0342
33456ION     NA48925   0.937   8.689  15.477  0.0137 -0.2994 -0.2966
33457ION     NA48926  12.302   2.705  14.654 -0.1674  0.0317 -0.2684
33458ION     NA48927  13.973   4.932   0.509  0.0417 -0.2994 -0.1458
33459ION     NA48928  11.282   1.563   6.437 -0.3408 -0.0653 -0.1722
33460ION     NA48929  12.328  14.820  12.759 -0.0470 -0.1473  0.1007
33461ION     NA48930  10.825   0.068   5.517 -0.2175 -0.3500 -0.2563
33462ION     NA48931   4.496   7.881   0.361 -0.1114  0.1121  0.0578
33463ION     NA48932  15.238   9.379  10.598 -0.0969  0.0703  0.0161
33464ION     NA48933  16.054  11.465  10.362  0.1485  0.1968  0.3032
33465ION     NA48934   9.347   7.815   1.504  0.0020 -0.1981  0.0929
33466ION     NA48935   1.818   3.895  13.969  0.2609 -0.2288 -0.3372
33467ION     NA48936  14.157  16.631   3.403 -0.2602 -0.0549  0.0920
33468ION     NA48937  17.443  12.588  12.714  0.1733 -0.2724  0.0689
33469ION     NA48938  13.029  12.117  11.031  0.2228 -0.1101 -0.1600
33470ION     NA48939   9.396   8.410  11.242  0.0905  0.4333 -0.0583
33471ION     NA48940  13.724  17.596   1.299  0.1540 -0.0934 -0.3372
33472ION     NA48941  13.863  17.273  13.566  0.0113 -0.1107 -0.1599
33473ION     NA48942  13.243   8.459  12.706  0.0297  0.0070 -0.0779
33474ION     NA48943   7.016   8.779  16.002 -0.1294 -0.0624 -0.1172
33475ION     NA48944  10.103  13.638   0.651  0.0423 -0.0708 -0.0932
33476ION     NA48945   3.077   5.387   5.275 -0.2083 -0.1543  0.0307
33477ION     NA48946   2.205  15.811  13.467  0.1129 -0.2128 -0.2484
33478ION     NA48947   4.661  15.447   4.504  0.0703 -0.2227 -0.0352
33479ION     NA48948   3.495   7.428  15.644 -0.1242 -0.0446  0.0026
33480ION     NA48949   8.612  16.507  11.689 -0.0506  0.1236 -0.0740
33481ION     NA48950  11.180   0.525  14.378  0.0470  0.0333  0.0045
33482ION     NA48951   0.369  13.516   5.250 -0.2060 -0.0143 -0.2220
33483ION     NA48952  12.142   3.171   0.184 -0.0339 -0.4923 -0.3626
33484ION     NA48953   0.687  12.898  10.278 -0.2824  0.0928 -0.0337
33485ION     NA48954   4.516   9.503  16.319 -0.0413 -0.0462  0.1226
33486ION     NA48955   6.035  10.473   1.175  0.0911 -0.2099  0.2318
33487ION     NA48956  17.860   5.541   2.636 -0.0991  0.0840 -0.1139
33488ION     NA48957   7.104   8.127   2.401 -0.0300 -0.2109 -0.1210
33489ION     NA48958   5.065   4.003   1.219  0.2179  0.0460 -0.1567
33490ION     NA48959   4.284  12.762   0.972 -0.2583 -0.3278 -0.1300
33491ION     NA48960   8.700   0.780  10.690 -0.0543 -0.3028 -0.0687
33492ION     NA48961  12.512  16.462  10.309  0.0005  0.0680 -0.1436
33493ION     NA48962  15.888  11.660  13.065 -0.1594 -0.1286  0.1212
33494ION     NA48963   5.672  14.033  11.683  0.0468 -0.0253 -0.1099
33495ION     NA48964  16.547  11.287   5.062 -0.0607  0.0836 -0.3134
33496ION     NA48965  17.404   7.165   1.797  0.1716  0.2168  0.1905
33497ION     NA48966   2.730   0.641  10.522 -0.1086 -0.0575  0.0048
33498ION     NA48967   0.959  15.735  10.550  0.0998 -0.0509  0.2711
33499ION     NA48968   2.850   1.774   3.523  0.0350 -0.1157  0.1212
33500ION     NA48969  10.790  16.324  10.376  0.0362 -0.1255  0.0777
33501ION     NA48970   8.165   6.328   3.415 -0.0607 -0.1581 -0.0016
33502ION     NA48971  12.025  16.129   4.475  0.1221  0.3754 -0.0132
33503ION     NA48972  14.476   8.815  10.373  0.1197 -0.0296 -0.0146
33504ION     NA48973   8.667   4.983  16.135 -0.2108  0.0656 -0.0563
33505ION     NA48974   4.101   3.912   5.849  0.1706 -0.0839 -0.0588
33506ION     NA48975  11.136  16.795   6.309  0.3275  0.2685  0.0777
33507ION     NA48976  14.882  12.359   3.756 -0.2517 -0.0783  0.2040
33508ION     NA48977  13.919  16.487   5.967 -0.3230 -0.1263 -0.1359
33509ION     NA48978   5.112  12.679   4.025  0.0938  0.2192 -0.0660
33510ION     NA48979   8.206   9.616  10.250 -0.1135 -0.0759 -0.0919
33511ION     NA48980  11.231  15.922   6.099  0.3997  0.1010  0.1085
33512ION     NA48981  10.389   4.065  11.941  0.2983 -0.4461 -0.2547
33513ION     NA48982   9.935  15.682   3.337 -0.0119  0.0817 -0.1248
33514ION     NA48983   1.847   5.875   1.390  0.0799 -0.1780  0.0724
33515ION     NA48984  16.645  10.993   4.177  0.2400  0.0386 -0.1965
33516ION     NA48985   9.734  17.405  13.935  0.0857  0.1820 -0.2056
33517ION     NA48986   8.588   5.017  11.231  0.1484 -0.0022 -0.3220
33518ION     NA48987   6.720  16.013   9.966  0.2208  0.0040  0.0474
33519ION     NA48988   1.390  14.501  13.031  0.0865  0.0627  0.1241
33520ION     NA48989  11.162   5.446   3.033 -0.1472  0.0419 -0.0023
33521ION     NA48990  14.268   4.007   5.070 -0.2644 -0.1389 -0.0654
33522ION     NA48991  16.957  16.600   5.823 -0.2307  0.1431  0.0107
33523ION     NA48992   1.342   2.350   2.939  0.0522  0.1566  0.1335
33524ION     NA48993  17.429   4.954  10.318  0.1294 -0.1665 -0.2128
33525ION     NA48994   3.479   3.891   2.742  0.0088 -0.2394 -0.0087
33526ION     NA48995   4.727   2.113   6.217 -0.0110 -0.1636 -0.2547
33527ION     NA48996  11.410   7.269   1.144  0.0470  0.3738  0.2349
33528ION     NA48997  16.508  10.617  10.770 -0.1824  0.4300  0.0881
33529ION     NA48998  12.406   3.255   6.162 -0.2303 -0.1533 -0.2241
33530ION     NA48999  17.660  10.016  12.097 -0.0171  0.0587 -0.0521
33531ION     NA49000   1.317   1.859   5.828  0.0624 -0.2851 -0.0718
33532ION     NA49001   9.869   4.403   2.233  0.2913 -0.0112 -0.1384
33533ION     NA49002  15.129   1.917  10.270 -0.2036  0.0373 -0.2453
33534ION     NA49003  17.753   4.564  11.616  0.0176 -0.0498 -0.0789
33535ION     NA49004   2.813   0.625   5.540 -0.0501 -0.0545 -0.1795
33536ION     NA49005   9.178  17.645   0.340 -0.0457  0.3597  0.2126
33537ION     NA49006   0.102   2.020   2.683 -0.2822  0.3612  0.2055
33538ION     NA49007  17.510   0.499  10.284  0.1789 -0.2083 -0.2697
33539ION     NA49008  16.335   0.589   4.818 -0.1263  0.0747  0.2799
33540ION     NA49009   2.652  12.866  10.268  0.0438 -0.0493  0.0311
33541ION     NA49010   6.586  13.073   5.691 -0.0047 -0.0940  0.2868
33542ION     NA49011  13.878  13.420   3.824 -0.1485  0.3779 -0.0542
33543ION     NA49012   6.267   1.979   6.105 -0.1245 -0.2082 -0.1628
33544ION     NA49013  15.403   9.322   1.159 -0.2676  0.1458  0.1165
33545ION     NA49014   9.068  17.452  10.759 -0.1428 -0.0251  0.3229
33546ION     NA49015  16.596   0.784  10.158 -0.0808 -0.2296 -0.0789
33547ION     NA49016  11.744   9.012   2.760  0.0895 -0.3514 -0.0200
33548ION     NA49017  10.036   8.549   2.904 -0.0954  0.2512  0.1578
33549ION     NA49018   9.933   3.417   1.061 -0.0526  0.3718 -0.1908
33550ION     NA49019  16.185  12.057   4.221  0.0730  0.0612 -0.0241
33551ION     NA49020   2.567  14.569   5.959  0.3299 -0.0057 -0.1459
33552ION     NA49021   9.182   1.882  12.494 -0.0522 -0.1162 -0.0944
33553ION     NA49022  13.147   4.369   6.272 -0.1730  0.2507 -0.2431
33554ION     NA49023  14.158  16.349  10.243  0.0743  0.0699 -0.0239
33555ION     NA49024  15.124  11.230  10.482 -0.0745  0.2246  0.0724
33556ION     NA49025  14.122   9.702   6.519 -0.1000 -0.0969  0.0400
33557ION     NA49026   3.413  14.291   1.822 -0.1013 -0.0481  0.0516
33558ION     NA49027   7.050  14.394   9.955  0.0415 -0.1551 -0.0688
33559ION     NA49028  17.219  17.185  10.747 -0.3503  0.0722  0.1470
33560ION     NA49029   2.808  12.251   3.585 -0.1400  0.2767  0.0375
33561ION     NA49030   6.943  12.297   0.277 -0.1056 -0.1954 -0.1051
33562ION     NA49031   8.825  14.981   1.430 -0.0036 -0.0924  0.1432
33563ION     NA49032  11.099   3.431   5.824 -0.1530  0.2350  0.0603
33564ION     NA49033  12.109   7.183  11.703 -0.0676 -0.0122  0.1883
33565ION     NA49034   0.349   2.594  15.008 -0.1123  0.0624  0.0533
33566ION     NA49035  15.752   1.593   3.944  0.1380  0.1683 -0.1510
33567ION     NA49036  16.290   3.938  10.633 -0.1069  0.1026 -0.1699
33568ION     NA49037  17.931  14.419   2.191 -0.0333 -0.0251 -0.2830
33569ION     NA49038   9.457   9.056   3.944  0.0291  0.0491 -0.1121
33570ION     NA49039  16.333  17.836  12.044 -0.0350 -0.1910 -0.0015
33571ION     NA49040  13.150  14.410   3.103  0.1655  0.1333  0.1702
33572ION     NA49041  15.849   9.499   6.379  0.1481  0.1405  0.2123
33573ION     NA49042   3.322   4.885  14.973  0.1613  0.3666  0.0547
33574ION     NA49043   8.861  17.198   6.314  0.1608  0.0960  0.0592
33575ION     NA49044   0.609   9.239  10.314  0.2108  0.0485  0.1143
33576ION     NA49045  12.664   8.482  15.581  0.1334 -0.0550  0.1812
33577ION     NA49046  14.396  10.605  10.198  0.0994  0.0489 -0.1471
33578ION     NA49047   7.653  11.510   5.617 -0.0262  0.1464 -0.1135
33579ION     NA49048   6.748  15.025  16.105  0.0137 -0.0969 -0.0542
33580ION     NA49049   0.936   8.807  12.325  0.1502  0.1134 -0.0310
33581ION     NA49050   4.797   2.876   2.117  0.0877 -0.0612 -0.1779
33582ION     NA49051   4.483   2.374  15.117  0.0036  0.0527  0.2210
33583ION     NA49052   2.909  11.408  10.105  0.2753 -0.0787  0.0765
33584ION     NA49053   8.446  10.110   5.800  0.1948  0.1199  0.2623
33585ION     NA49054  17.356  11.370   5.728 -0.0248 -0.1535  0.0117
33586ION     NA49055   1.585   7.342   5.581  0.1856 -0.1471 -0.2640
33587ION     NA49056   0.144  15.548   3.983  0.1421 -0.1581 -0.0549
33588ION     NA49057  12.475   9.361  14.033 -0.1006  0.0572 -0.3611
33589ION     NA49058  11.546   9.046   1.233  0.3134  0.0190  0.1740
33590ION     NA49059   1.801   2.603  15.127  0.0926 -0.1963 -0.1333
33591ION     NA49060   1.305   0.442  10.125 -0.2002  0.0273 -0.4744
33592ION     NA49061  17.665  14.727  12.696 -0.2403 -0.1448 -0.0687
33593ION     NA49062   2.859  15.194   3.677  0.1497 -0.2707  0.0005
33594ION     NA49063   2.702   1.787   1.941  0.3008  0.3288  0.0723
33595ION     NA49064   2.095  17.540   0.046 -0.1368 -0.0797  0.0987
33596ION     NA49065   9.447   0.994   6.350 -0.4233 -0.2980  0.2523
33597ION     NA49066   1.003  13.458  14.374 -0.0505  0.1302  0.0506
33598ION     NA49067  13.194   7.557  14.569 -0.0646 -0.1120  0.1504
33599ION     NA49068  12.364   5.069  10.497  0.0386  0.2496 -0.0395
33600ION     NA49069  16.976   4.466   2.732  0.2190 -0.2581 -0.4064
33601ION     NA49070  12.968  11.777  15.616 -0.1555  0.0807  0.1178
33602ION     NA49071  10.199  10.807   4.515  0.0469 -0.0639  0.1055
33603ION     NA49072  10.407  18.078   2.084  0.1926 -0.2505  0.0948
33604ION     NA49073   5.703   3.308   0.356 -0.1666 -0.1670 -0.0340
33605ION     NA49074   9.562   7.284   6.135 -0.2236 -0.3360 -0.0726
  18.09851  18.09851  16.32062
