INSANE! Membrane UpperLeaflet>loPI:POPI:DPPI:PYPI:ERGO=30.0:5.0:3.0:2.0:10.0 LowerLeaflet>PSPI:POPI:POPS:YOPS:POPE:YOPE:POPC:YOPC:ERGO=6.0:14.0:21.0:9.0:9.0:21.0:12.0:48.0:60.0
49074
    1loPI    C1    1  17.047   4.515  10.381  0.0064 -0.1024 -0.1696
    1loPI    C2    2  17.297   4.825  10.344 -0.1030  0.0390  0.2191
    1loPI    C3    3  17.420   4.489  10.523 -0.1083  0.0070  0.1630
    1loPI   PO4    4  16.944   4.392  10.174 -0.1099 -0.1143 -0.0952
    1loPI   GL1    5  16.978   4.290   9.760  0.0736  0.0966 -0.0465
    1loPI   GL2    6  16.656   4.315   9.613  0.0243  0.0378 -0.1613
    1loPI   C1A    7  17.039   4.343   9.288  0.0343  0.1879 -0.0725
    1loPI   C2A    8  16.996   4.432   8.858 -0.0046  0.3568 -0.0058
    1loPI   C3A    9  17.038   4.621   8.425 -0.3706  0.1554 -0.0624
    1loPI   C4A   10  17.067   4.869   8.054 -0.0151 -0.1218  0.2929
    1loPI   C5A   11  17.275   4.664   7.783 -0.3111  0.2194 -0.0900
    1loPI   C6A   12  17.385   4.224   7.914 -0.0464 -0.0043  0.0687
    1loPI   C1B   13  16.531   4.417   9.190  0.0246  0.0144 -0.2768
    1loPI   C2B   14  16.514   4.497   8.743 -0.1593  0.0468 -0.3426
    1loPI   C3B   15  16.461   4.604   8.290 -0.0334 -0.0177 -0.2490
    1loPI   C4B   16  16.613   4.725   7.965  0.2199 -0.0247  0.1613
    2loPI    C1   17   5.414   3.478  10.145  0.0220 -0.0438  0.0487
    2loPI    C2   18   5.068   3.302  10.240 -0.0179 -0.0380 -0.0834
    2loPI    C3   19   5.347   3.359  10.521 -0.2478  0.2400  0.0953
    2loPI   PO4   20   5.471   3.523   9.815 -0.0993 -0.0330  0.1364
    2loPI   GL1   21   5.498   3.398   9.325 -0.3382  0.0128 -0.3085
    2loPI   GL2   22   5.251   3.489   9.087 -0.0283 -0.2517 -0.1667
    2loPI   C1A   23   5.795   3.024   9.310 -0.1356  0.0412  0.4443
    2loPI   C2A   24   5.878   2.681   9.109  0.0642  0.3517  0.1242
    2loPI   C3A   25   5.719   2.568   8.779  0.1966  0.0785 -0.2206
    2loPI   C4A   26   5.577   2.524   8.242  0.1072 -0.0117  0.2309
    2loPI   C5A   27   5.358   2.263   8.014  0.0689  0.0328 -0.1911
    2loPI   C6A   28   5.348   1.893   7.783  0.0160  0.1821  0.1338
    2loPI   C1B   29   5.405   3.352   8.718 -0.0536 -0.1200  0.0840
    2loPI   C2B   30   5.186   3.184   8.308 -0.3526  0.1231 -0.0702
    2loPI   C3B   31   5.356   3.032   7.950  0.1498 -0.2055 -0.4593
    2loPI   C4B   32   5.555   2.796   7.774  0.0159  0.0760 -0.0422
    3loPI    C1   33  16.873   2.622  10.042  0.1249 -0.2380 -0.1756
    3loPI    C2   34  17.208   2.836  10.080 -0.0362  0.0014 -0.0806
    3loPI    C3   35  17.067   2.629  10.392  0.0097 -0.0804 -0.1138
    3loPI   PO4   36  16.691   2.750   9.874 -0.0756  0.1368 -0.1543
    3loPI   GL1   37  16.863   2.790   9.477 -0.2913  0.0066  0.3313
    3loPI   GL2   38  17.029   3.027   9.637 -0.0878  0.2094  0.1172
    3loPI   C1A   39  16.919   2.893   9.046  0.0503 -0.2676  0.0119
    3loPI   C2A   40  16.905   2.846   8.497  0.3964 -0.1623  0.1221
    3loPI   C3A   41  17.137   2.935   8.226  0.0058  0.2126 -0.1316
    3loPI   C4A   42  17.327   3.311   8.264 -0.1143  0.3349 -0.0794
    3loPI   C5A   43  17.640   3.562   8.142 -0.1779 -0.0708  0.0925
    3loPI   C6A   44  17.728   4.016   8.153 -0.0271 -0.1738  0.0174
    3loPI   C1B   45  17.273   2.975   9.298 -0.2508 -0.0674  0.0027
    3loPI   C2B   46  17.348   2.943   8.780 -0.3013  0.0243 -0.4659
    3loPI   C3B   47  17.617   2.900   8.375 -0.4224  0.0557  0.2671
    3loPI   C4B   48  17.769   2.729   7.979  0.1079  0.2577 -0.0553
    4loPI    C1   49  13.949  14.236  10.455 -0.0667 -0.1703  0.0783
    4loPI    C2   50  13.734  14.187  10.789  0.0033  0.0990  0.1655
    4loPI    C3   51  14.130  14.237  10.812  0.0428 -0.1322  0.0232
    4loPI   PO4   52  13.786  14.384  10.336  0.1729 -0.1212  0.0047
    4loPI   GL1   53  13.863  14.439   9.880  0.3814  0.0562  0.0675
    4loPI   GL2   54  13.620  14.417   9.741  0.1255 -0.1225 -0.2275
    4loPI   C1A   55  14.161  14.345   9.503  0.0254  0.1898 -0.2398
    4loPI   C2A   56  14.356  14.348   9.081  0.1682  0.2685  0.0691
    4loPI   C3A   57  14.377  14.184   8.721 -0.0131 -0.1147  0.1166
    4loPI   C4A   58  14.463  14.090   8.377  0.3937 -0.1646 -0.1879
    4loPI   C5A   59  14.441  13.840   7.992 -0.0082 -0.0048 -0.0632
    4loPI   C6A   60  14.321  13.383   8.006 -0.3938 -0.3681 -0.0530
    4loPI   C1B   61  13.671  14.452   9.314  0.0610  0.0760  0.3777
    4loPI   C2B   62  13.788  14.475   8.863 -0.1124  0.1212 -0.0463
    4loPI   C3B   63  13.931  14.304   8.476  0.2299  0.0604 -0.2562
    4loPI   C4B   64  13.987  14.281   8.161 -0.0138 -0.1268 -0.1049
    5loPI    C1   65   2.369   2.685  10.236 -0.1283  0.3373 -0.0083
    5loPI    C2   66   1.977   2.758  10.204 -0.1413  0.1835 -0.2230
    5loPI    C3   67   2.110   2.494  10.473 -0.2182 -0.0213 -0.3832
    5loPI   PO4   68   2.473   2.643  10.053 -0.2316 -0.1471  0.0547
    5loPI   GL1   69   2.427   2.593   9.561  0.0199  0.2792  0.1971
    5loPI   GL2   70   2.770   2.476   9.503  0.0241  0.3839  0.2052
    5loPI   C1A   71   2.063   2.602   9.198 -0.2629  0.1721  0.4386
    5loPI   C2A   72   2.183   2.566   8.687 -0.2473 -0.2945  0.2597
    5loPI   C3A   73   1.940   2.892   8.415  0.2344  0.3314  0.0220
    5loPI   C4A   74   1.973   3.140   8.007 -0.2511  0.3095 -0.2245
    5loPI   C5A   75   1.914   3.170   7.610  0.3252  0.3060  0.0462
    5loPI   C6A   76   1.738   3.090   7.154 -0.0462  0.0319 -0.1280
    5loPI   C1B   77   2.517   2.444   9.128 -0.0559  0.1368 -0.0034
    5loPI   C2B   78   2.186   2.125   8.969  0.1061  0.0744  0.0488
    5loPI   C3B   79   1.982   1.970   8.685 -0.1039  0.0284  0.1488
    5loPI   C4B   80   1.741   1.580   8.612 -0.0417 -0.0266 -0.0453
    6loPI    C1   81  17.975   5.579  10.856 -0.1393 -0.1058  0.7201
    6loPI    C2   82  17.899   5.958  10.957  0.0922  0.0138  0.4584
    6loPI    C3   83  18.269   5.813  10.994  0.0910 -0.0651  0.1847
    6loPI   PO4   84  17.771   5.610  10.620 -0.2642  0.3322 -0.1852
    6loPI   GL1   85  17.895   5.511  10.123  0.0206 -0.0021  0.0567
    6loPI   GL2   86  17.638   5.385   9.915 -0.5124  0.0701  0.2383
    6loPI   C1A   87  17.823   5.875   9.911  0.0391 -0.2943 -0.0248
    6loPI   C2A   88  17.949   5.928   9.549 -0.1321 -0.2522  0.1752
    6loPI   C3A   89  17.970   5.905   9.138  0.2474  0.0952 -0.0898
    6loPI   C4A   90  18.095   6.154   8.765  0.1030  0.0397  0.0832
    6loPI   C5A   91  18.050   6.428   8.414 -0.0787 -0.2067 -0.1024
    6loPI   C6A   92  18.176   6.613   8.084  0.1980 -0.1636 -0.1250
    6loPI   C1B   93  17.666   5.479   9.512  0.0279  0.0443  0.1901
    6loPI   C2B   94  17.638   5.417   9.026 -0.0579 -0.2666 -0.0984
    6loPI   C3B   95  17.532   5.517   8.485 -0.1213 -0.1766  0.0630
    6loPI   C4B   96  17.458   5.608   8.153 -0.0882 -0.0395  0.1758
    7loPI    C1   97   1.044  18.093  10.519  0.2770 -0.0457 -0.3169
    7loPI    C2   98   1.065  17.696  10.555  0.2009 -0.0250 -0.0088
    7loPI    C3   99   1.382  17.921  10.645  0.3325 -0.0284 -0.4416
    7loPI   PO4  100   0.859  18.026  10.296 -0.0505 -0.1890 -0.1274
    7loPI   GL1  101   0.613  17.984   9.872  0.0172  0.3530 -0.2382
    7loPI   GL2  102   0.563  17.730   9.716 -0.0073 -0.1355  0.0132
    7loPI   C1A  103   0.727  18.073   9.394 -0.0672 -0.0819 -0.1797
    7loPI   C2A  104   0.780  17.852   9.023 -0.1693 -0.2319 -0.1451
    7loPI   C3A  105   1.078  17.699   8.652 -0.0418  0.0244  0.2684
    7loPI   C4A  106   1.127  17.700   8.304 -0.1365 -0.1609 -0.2694
    7loPI   C5A  107   0.901  17.873   8.037  0.0693  0.1805 -0.0376
    7loPI   C6A  108   0.694  18.153   7.995 -0.1604  0.0796  0.1946
    7loPI   C1B  109   0.640  17.506   9.407  0.0151  0.0816  0.1729
    7loPI   C2B  110   0.614  17.297   9.041 -0.1209 -0.1101  0.2649
    7loPI   C3B  111   0.869  17.237   8.623  0.3656 -0.0750  0.1094
    7loPI   C4B  112   1.209  17.113   8.411  0.1204 -0.1231  0.0596
    8loPI    C1  113   0.719   3.123  10.715 -0.0213  0.0332 -0.0237
    8loPI    C2  114   0.485   3.068  11.035 -0.0090 -0.0633 -0.0309
    8loPI    C3  115   0.724   3.388  11.015  0.0081 -0.0695  0.0673
    8loPI   PO4  116   0.756   2.881  10.560 -0.2500  0.1071 -0.0070
    8loPI   GL1  117   0.641   2.850  10.089  0.2958  0.1741 -0.0019
    8loPI   GL2  118   0.495   2.829   9.810  0.1391  0.0422 -0.1897
    8loPI   C1A  119   0.789   3.172   9.711  0.1840  0.1523 -0.1397
    8loPI   C2A  120   0.625   3.252   9.283  0.0341 -0.4414 -0.3246
    8loPI   C3A  121   0.687   3.111   8.855 -0.1677 -0.0734  0.2050
    8loPI   C4A  122   0.686   3.088   8.453 -0.2123  0.3635 -0.1962
    8loPI   C5A  123   1.013   2.914   8.229  0.2268  0.0183  0.2439
    8loPI   C6A  124   0.920   2.720   7.828  0.0224  0.0810 -0.0259
    8loPI   C1B  125   0.588   2.712   9.320  0.2903 -0.0605  0.1339
    8loPI   C2B  126   0.821   2.688   9.047  0.1485  0.1419 -0.2040
    8loPI   C3B  127   1.104   2.651   8.694 -0.0597  0.0941  0.0104
    8loPI   C4B  128   1.245   2.490   8.292  0.1139 -0.1579  0.2826
    9loPI    C1  129   0.262  17.544  10.867 -0.1105 -0.1110  0.0664
    9loPI    C2  130   0.278  17.232  11.117  0.0139 -0.1480  0.0133
    9loPI    C3  131   0.109  17.575  11.235  0.0860 -0.1604  0.1532
    9loPI   PO4  132   0.300  17.381  10.625 -0.2396  0.0375 -0.0849
    9loPI   GL1  133   0.306  17.103  10.171  0.1125 -0.1038  0.2081
    9loPI   GL2  134   0.655  17.212  10.022  0.1426  0.2412 -0.2649
    9loPI   C1A  135   0.232  17.091   9.719 -0.1864 -0.0265 -0.1297
    9loPI   C2A  136   0.515  16.996   9.438 -0.2137  0.0365 -0.5498
    9loPI   C3A  137   0.478  16.799   9.037 -0.2262 -0.0814  0.1238
    9loPI   C4A  138   0.414  16.854   8.535 -0.0339  0.0499 -0.1344
    9loPI   C5A  139   0.442  17.175   8.164 -0.0230  0.2254  0.1085
    9loPI   C6A  140   0.637  17.490   8.189  0.1420 -0.1316 -0.0517
    9loPI   C1B  141   0.936  17.070   9.669  0.4031  0.0309  0.0469
    9loPI   C2B  142   0.942  16.886   9.167  0.0597  0.0832 -0.3671
    9loPI   C3B  143   0.993  16.740   8.752  0.1430 -0.0089  0.1659
    9loPI   C4B  144   0.879  16.757   8.314  0.0781  0.3009  0.0082
   10loPI    C1  145   5.063   6.120   9.652  0.0141  0.0175  0.0872
   10loPI    C2  146   5.070   6.413   9.924 -0.0638 -0.0655  0.1791
   10loPI    C3  147   5.353   6.395   9.643 -0.0593  0.0987  0.1721
   10loPI   PO4  148   4.823   6.115   9.459 -0.2097 -0.2527 -0.1529
   10loPI   GL1  149   4.982   6.188   9.079  0.2713 -0.2983 -0.0947
   10loPI   GL2  150   5.330   6.119   9.177 -0.0948 -0.4142 -0.0729
   10loPI   C1A  151   4.595   6.247   8.760  0.1265  0.1613  0.0991
   10loPI   C2A  152   4.397   6.071   8.496  0.2409  0.1510  0.0767
   10loPI   C3A  153   4.456   6.080   8.013 -0.1069 -0.2022  0.1246
   10loPI   C4A  154   4.398   5.622   7.883  0.3946 -0.2819  0.3001
   10loPI   C5A  155   4.224   5.244   7.711 -0.1446 -0.0570 -0.0362
   10loPI   C6A  156   3.897   4.994   7.718  0.0437 -0.0014 -0.1495
   10loPI   C1B  157   5.279   6.102   8.710 -0.0890 -0.1316  0.3743
   10loPI   C2B  158   5.065   6.160   8.415  0.0527 -0.0792 -0.1336
   10loPI   C3B  159   4.957   5.970   8.001 -0.0788  0.1310 -0.0110
   10loPI   C4B  160   4.727   5.831   7.617  0.2666  0.2209 -0.2236
   11loPI    C1  161  13.891   4.297  10.164  0.0667 -0.1313  0.1454
   11loPI    C2  162  13.635   4.536   9.971  0.2689 -0.0452 -0.0210
   11loPI    C3  163  13.605   4.489  10.367 -0.0570 -0.1066 -0.0502
   11loPI   PO4  164  14.065   4.361   9.993 -0.1019 -0.0729  0.0238
   11loPI   GL1  165  14.194   4.356   9.588 -0.3233  0.1199  0.0332
   11loPI   GL2  166  14.453   4.042   9.549  0.3158  0.2949  0.1654
   11loPI   C1A  167  14.029   4.499   9.204  0.1771  0.2191 -0.1190
   11loPI   C2A  168  14.015   4.506   8.793 -0.2983  0.0271  0.1622
   11loPI   C3A  169  13.964   4.474   8.466  0.0571  0.2141  0.3047
   11loPI   C4A  170  13.912   4.602   8.065  0.2033 -0.1014 -0.1351
   11loPI   C5A  171  13.675   4.564   7.603  0.0636 -0.0382 -0.1477
   11loPI   C6A  172  13.860   4.620   7.108 -0.1351  0.1011  0.2369
   11loPI   C1B  173  14.486   3.967   9.045  0.2784 -0.1764 -0.0575
   11loPI   C2B  174  14.368   4.144   8.707 -0.0151 -0.1414 -0.0017
   11loPI   C3B  175  14.395   4.279   8.265  0.0478 -0.1142  0.1601
   11loPI   C4B  176  14.616   4.299   7.934 -0.3691  0.1944 -0.0959
   12loPI    C1  177   4.435   3.956   9.802  0.2308 -0.2834  0.1316
   12loPI    C2  178   4.741   4.079  10.028  0.0994  0.0295  0.1443
   12loPI    C3  179   4.383   4.011  10.195  0.0564  0.0597  0.0649
   12loPI   PO4  180   4.513   3.771   9.633 -0.0489 -0.0362  0.2739
   12loPI   GL1  181   4.682   3.964   9.335 -0.2723  0.0883  0.0628
   12loPI   GL2  182   4.829   3.793   9.190  0.2184 -0.3200 -0.2475
   12loPI   C1A  183   4.457   4.234   9.157 -0.1751  0.4372  0.0567
   12loPI   C2A  184   4.399   4.280   8.822 -0.0728  0.1855  0.2136
   12loPI   C3A  185   4.578   4.482   8.537 -0.0712 -0.0761  0.0483
   12loPI   C4A  186   4.550   4.457   8.086  0.1874 -0.0024 -0.2340
   12loPI   C5A  187   4.283   4.424   7.837 -0.0620  0.1469 -0.1334
   12loPI   C6A  188   4.560   4.367   7.430  0.0703 -0.4201 -0.1098
   12loPI   C1B  189   5.116   3.844   8.808  0.2219  0.0831 -0.0164
   12loPI   C2B  190   5.261   3.728   8.393  0.0746 -0.2105 -0.3673
   12loPI   C3B  191   5.640   3.445   8.241  0.0753 -0.0990 -0.0694
   12loPI   C4B  192   5.873   3.075   8.005  0.0439  0.0096  0.1135
   13loPI    C1  193   4.356  17.045  10.553 -0.1958  0.0559 -0.0825
   13loPI    C2  194   4.689  16.823  10.544 -0.2749 -0.0680  0.0065
   13loPI    C3  195   4.331  16.646  10.571 -0.3364  0.0721  0.1293
   13loPI   PO4  196   4.276  17.278  10.259  0.0164  0.1413 -0.0176
   13loPI   GL1  197   4.315  17.185   9.820  0.1952 -0.0900  0.2584
   13loPI   GL2  198   3.999  17.038   9.866 -0.1568 -0.0931 -0.3714
   13loPI   C1A  199   4.214  17.113   9.410 -0.2191  0.0269  0.0832
   13loPI   C2A  200   4.200  17.332   8.995  0.1435 -0.1122 -0.0794
   13loPI   C3A  201   4.499  17.288   8.691 -0.2445  0.1980 -0.0676
   13loPI   C4A  202   4.753  17.338   8.242 -0.2581  0.0795 -0.2338
   13loPI   C5A  203   5.023  17.447   7.882  0.0793 -0.0424 -0.4375
   13loPI   C6A  204   5.398  17.301   7.737  0.0493 -0.0836  0.0304
   13loPI   C1B  205   3.706  17.357   9.613  0.1095  0.1011 -0.1999
   13loPI   C2B  206   3.501  17.631   9.303  0.1476 -0.1045  0.2350
   13loPI   C3B  207   3.345  17.472   8.967  0.4387 -0.3638 -0.0159
   13loPI   C4B  208   3.247  17.251   8.522  0.2006 -0.1636 -0.3119
   14loPI    C1  209  16.033  13.031  10.144  0.1500 -0.0909  0.1394
   14loPI    C2  210  16.076  12.665  10.299  0.0793 -0.2248 -0.1505
   14loPI    C3  211  15.793  12.734  10.025  0.0535  0.0627 -0.0549
   14loPI   PO4  212  16.347  13.074  10.182  0.0611  0.2287  0.2979
   14loPI   GL1  213  16.654  12.872  10.014 -0.0520 -0.1779  0.0496
   14loPI   GL2  214  16.418  12.666   9.957 -0.0225  0.2470  0.3921
   14loPI   C1A  215  16.594  12.929   9.577 -0.1904  0.4736 -0.1802
   14loPI   C2A  216  16.587  13.004   9.071  0.1188 -0.1548  0.1026
   14loPI   C3A  217  16.945  13.100   8.733  0.0405  0.1993  0.1658
   14loPI   C4A  218  17.107  13.177   8.355 -0.0371  0.3201 -0.0778
   14loPI   C5A  219  17.306  13.447   8.058  0.1001 -0.0239  0.2325
   14loPI   C6A  220  17.180  13.896   8.045 -0.2718  0.2688  0.1347
   14loPI   C1B  221  16.008  12.694   9.580  0.0938 -0.3020  0.0641
   14loPI   C2B  222  16.049  12.840   9.070 -0.1566  0.1172  0.1994
   14loPI   C3B  223  16.229  12.955   8.702 -0.3102  0.1780 -0.0069
   14loPI   C4B  224  16.233  12.707   8.342  0.1355 -0.0494  0.1588
   15loPI    C1  225  15.243  12.139  10.366 -0.1216 -0.3720 -0.1104
   15loPI    C2  226  14.961  12.325  10.581 -0.0167 -0.1993 -0.1207
   15loPI    C3  227  15.319  12.248  10.743  0.0132 -0.1996 -0.1862
   15loPI   PO4  228  15.205  12.193  10.091  0.0336 -0.0480 -0.4915
   15loPI   GL1  229  15.171  11.827   9.834  0.1643 -0.1469  0.3923
   15loPI   GL2  230  14.855  11.786   9.968 -0.2397  0.2318  0.1624
   15loPI   C1A  231  15.357  11.907   9.530 -0.0040  0.2159  0.1501
   15loPI   C2A  232  15.605  11.921   9.135 -0.0525 -0.0679  0.0838
   15loPI   C3A  233  15.785  11.923   8.805  0.1050 -0.2941 -0.1071
   15loPI   C4A  234  15.993  11.906   8.414  0.2844  0.0605  0.1715
   15loPI   C5A  235  16.224  11.866   8.046 -0.1724 -0.0957  0.2321
   15loPI   C6A  236  16.535  11.507   7.960  0.0157 -0.0895  0.0293
   15loPI   C1B  237  14.807  11.801   9.499 -0.0956  0.2910  0.0525
   15loPI   C2B  238  14.706  11.592   9.091  0.1454  0.0120 -0.2909
   15loPI   C3B  239  14.782  11.426   8.700 -0.0858  0.1282 -0.0406
   15loPI   C4B  240  15.278  11.298   8.555 -0.0118 -0.4049 -0.0851
   16loPI    C1  241   5.113   2.702  10.505  0.1121  0.2665 -0.0637
   16loPI    C2  242   5.303   2.421  10.717 -0.1396  0.0280 -0.1481
   16loPI    C3  243   4.917   2.498  10.789 -0.1807  0.0661 -0.4016
   16loPI   PO4  244   5.097   2.678  10.208 -0.2100  0.3043  0.0511
   16loPI   GL1  245   4.933   2.630   9.733  0.0671 -0.2550  0.1779
   16loPI   GL2  246   4.727   2.319   9.646 -0.0192 -0.2208 -0.3214
   16loPI   C1A  247   4.953   2.901   9.334  0.0353  0.0889 -0.1410
   16loPI   C2A  248   4.907   2.823   8.888  0.2427 -0.0589  0.0577
   16loPI   C3A  249   4.716   2.965   8.541  0.0113 -0.0757 -0.1574
   16loPI   C4A  250   4.784   2.987   8.095  0.1681  0.0575  0.1856
   16loPI   C5A  251   4.891   2.659   7.775 -0.1000 -0.0470 -0.2698
   16loPI   C6A  252   4.665   2.723   7.269 -0.2351  0.1819 -0.0159
   16loPI   C1B  253   4.620   2.460   9.307 -0.0248 -0.2841 -0.2042
   16loPI   C2B  254   4.497   2.573   8.944 -0.1579  0.0161  0.2444
   16loPI   C3B  255   4.318   2.902   8.748 -0.2230  0.0318  0.1483
   16loPI   C4B  256   4.308   3.322   8.782  0.2162  0.0772 -0.2283
   17loPI    C1  257  12.548  12.553  10.543 -0.0143  0.0128 -0.0816
   17loPI    C2  258  12.749  12.248  10.707  0.2759  0.0614 -0.3368
   17loPI    C3  259  12.434  12.176  10.471  0.0157 -0.0171  0.0260
   17loPI   PO4  260  12.796  12.768  10.422 -0.0724 -0.1834 -0.1487
   17loPI   GL1  261  12.931  12.857  10.025 -0.0180  0.3616  0.0336
   17loPI   GL2  262  12.768  13.065   9.883  0.0735  0.1350  0.1479
   17loPI   C1A  263  13.039  12.703   9.524  0.2273 -0.0084 -0.2100
   17loPI   C2A  264  13.194  12.770   9.061  0.1770  0.1361  0.3165
   17loPI   C3A  265  13.282  13.115   8.829  0.1590 -0.1341 -0.0144
   17loPI   C4A  266  13.542  12.956   8.447  0.0242 -0.1063 -0.2310
   17loPI   C5A  267  13.928  12.764   8.434 -0.1716 -0.0170  0.2923
   17loPI   C6A  268  14.322  12.876   8.299  0.1854 -0.2702 -0.1472
   17loPI   C1B  269  12.718  13.075   9.387 -0.0883  0.3072 -0.4232
   17loPI   C2B  270  12.755  13.152   9.057 -0.0569  0.0213 -0.1325
   17loPI   C3B  271  12.818  13.025   8.604  0.3241 -0.0750 -0.1099
   17loPI   C4B  272  13.077  13.106   8.282 -0.3655  0.0813 -0.2301
   18loPI    C1  273  17.892  15.033  10.637  0.0545  0.1363 -0.0184
   18loPI    C2  274  17.996  15.321  10.895 -0.1106  0.1620  0.0210
   18loPI    C3  275  17.770  15.014  11.017 -0.0117  0.0624 -0.0429
   18loPI   PO4  276  17.716  15.153  10.417 -0.5290  0.2214 -0.3047
   18loPI   GL1  277  17.375  15.011  10.136  0.0864  0.2801  0.1231
   18loPI   GL2  278  17.534  14.724  10.097  0.1040 -0.1421 -0.1999
   18loPI   C1A  279  17.267  14.802   9.675  0.1258 -0.1212 -0.0190
   18loPI   C2A  280  17.386  14.852   9.222 -0.0251  0.3124 -0.0561
   18loPI   C3A  281  17.615  14.857   8.897  0.0336  0.0008 -0.0367
   18loPI   C4A  282  17.510  15.201   8.494 -0.1461 -0.0134  0.1629
   18loPI   C5A  283  17.885  15.390   8.216 -0.1285 -0.1599 -0.0780
   18loPI   C6A  284  17.875  15.127   7.916 -0.2186 -0.1079 -0.0404
   18loPI   C1B  285  17.759  14.634   9.786  0.0777  0.1089  0.1770
   18loPI   C2B  286  17.719  14.415   9.377 -0.0369  0.3242  0.0047
   18loPI   C3B  287  17.556  14.267   9.067  0.1378 -0.2135  0.0474
   18loPI   C4B  288  17.481  14.078   8.742 -0.1556 -0.0636 -0.0442
   19loPI    C1  289  18.269  11.479  10.521 -0.0663 -0.0530  0.2960
   19loPI    C2  290  18.597  11.267  10.608  0.0591 -0.0206 -0.0795
   19loPI    C3  291  18.234  11.113  10.679  0.1511 -0.0750  0.2956
   19loPI   PO4  292  18.337  11.582  10.287 -0.5188 -0.3132  0.0941
   19loPI   GL1  293  18.238  11.477   9.944  0.0125 -0.1491 -0.2414
   19loPI   GL2  294  18.585  11.423   9.739  0.0030 -0.0176 -0.1081
   19loPI   C1A  295  18.123  11.743   9.604  0.0753 -0.1562  0.2838
   19loPI   C2A  296  18.169  11.929   9.150 -0.2578 -0.1462  0.1130
   19loPI   C3A  297  18.193  11.900   8.737  0.0541 -0.1277 -0.0579
   19loPI   C4A  298  18.136  11.886   8.361  0.1460 -0.1694 -0.0891
   19loPI   C5A  299  17.754  11.764   8.047 -0.3654 -0.1298  0.2630
   19loPI   C6A  300  17.352  11.641   7.736  0.2720  0.1743  0.1432
   19loPI   C1B  301  18.666  11.766   9.494  0.2782 -0.0432 -0.1061
   19loPI   C2B  302  18.668  11.986   9.187 -0.1967  0.4604  0.4208
   19loPI   C3B  303  18.679  11.880   8.799 -0.0104  0.1736  0.1175
   19loPI   C4B  304  18.641  11.853   8.379 -0.1665 -0.0709  0.0952
   20loPI    C1  305   7.237  17.115   9.687  0.0066 -0.0862  0.0503
   20loPI    C2  306   7.373  16.810   9.908  0.0705 -0.0882  0.0085
   20loPI    C3  307   7.631  17.062   9.734  0.0175 -0.0006  0.0562
   20loPI   PO4  308   7.036  16.956   9.544 -0.2503 -0.0210  0.2386
   20loPI   GL1  309   6.804  17.235   9.360  0.1946 -0.3055  0.1778
   20loPI   GL2  310   6.558  17.016   9.194  0.1062 -0.2098  0.0734
   20loPI   C1A  311   6.763  17.441   8.883 -0.1350  0.1493  0.3734
   20loPI   C2A  312   6.700  17.613   8.536 -0.4070  0.0224 -0.1500
   20loPI   C3A  313   6.861  17.850   8.203  0.0116 -0.1784  0.1930
   20loPI   C4A  314   6.904  18.059   7.924  0.1650 -0.0829 -0.2774
   20loPI   C5A  315   6.713  18.479   7.892 -0.2519  0.2664 -0.0327
   20loPI   C6A  316   6.420  18.804   7.922 -0.0108  0.1141 -0.3858
   20loPI   C1B  317   6.441  17.021   8.829  0.3708  0.1880 -0.5184
   20loPI   C2B  318   6.509  17.085   8.452  0.1882  0.0988 -0.2900
   20loPI   C3B  319   6.536  17.239   8.019  0.0018 -0.1581 -0.2488
   20loPI   C4B  320   6.614  16.939   7.645 -0.0111 -0.0341 -0.0226
   21loPI    C1  321   0.870   1.811  10.103 -0.0471 -0.2133 -0.0340
   21loPI    C2  322   1.243   1.693  10.019  0.0784  0.2271 -0.1234
   21loPI    C3  323   1.146   2.081   9.997 -0.2922  0.1638  0.2586
   21loPI   PO4  324   0.759   1.699   9.917  0.4047  0.0231 -0.4259
   21loPI   GL1  325   0.627   1.443   9.738 -0.2967  0.0276 -0.1206
   21loPI   GL2  326   0.359   1.409   9.946 -0.1306 -0.2405  0.1180
   21loPI   C1A  327   0.531   1.550   9.318 -0.1340 -0.0117  0.3094
   21loPI   C2A  328   0.186   1.653   9.000 -0.0233  0.0999 -0.1792
   21loPI   C3A  329  -0.121   1.956   8.853 -0.1747  0.0019  0.1154
   21loPI   C4A  330  -0.265   2.213   8.566 -0.1074  0.0255 -0.1355
   21loPI   C5A  331  -0.433   2.489   8.289 -0.2829  0.0240  0.0465
   21loPI   C6A  332  -0.494   2.919   8.095  0.0815 -0.2022  0.3851
   21loPI   C1B  333   0.153   1.287   9.545  0.0529 -0.1110 -0.0393
   21loPI   C2B  334  -0.024   1.097   9.188 -0.0820  0.2245 -0.2707
   21loPI   C3B  335  -0.312   1.013   8.836  0.1880 -0.2628  0.2919
   21loPI   C4B  336  -0.297   1.115   8.454 -0.1809 -0.1923  0.0516
   22loPI    C1  337  13.529   8.131  10.356  0.3135  0.0958 -0.2588
   22loPI    C2  338  13.327   7.793  10.285 -0.0370  0.2465 -0.0082
   22loPI    C3  339  13.605   7.803  10.572  0.0980  0.1270 -0.1330
   22loPI   PO4  340  13.507   8.243  10.132  0.3143 -0.0281  0.3110
   22loPI   GL1  341  13.535   8.068   9.754 -0.0116  0.0372  0.0588
   22loPI   GL2  342  13.298   7.934   9.759  0.0430 -0.0002 -0.0757
   22loPI   C1A  343  13.708   8.280   9.354  0.2694  0.0935 -0.3503
   22loPI   C2A  344  13.630   8.383   8.892 -0.3699  0.0412  0.1210
   22loPI   C3A  345  13.672   8.191   8.552 -0.2367 -0.1993 -0.2888
   22loPI   C4A  346  13.881   8.384   8.349  0.0842  0.0393  0.0585
   22loPI   C5A  347  13.562   8.590   8.118  0.1280  0.0517  0.0958
   22loPI   C6A  348  13.397   8.562   7.745  0.3300 -0.0701  0.0317
   22loPI   C1B  349  13.550   7.727   9.318 -0.2407  0.3005  0.1405
   22loPI   C2B  350  13.469   7.871   8.835  0.2739 -0.0900 -0.0694
   22loPI   C3B  351  13.362   7.850   8.387  0.2674 -0.0566 -0.0145
   22loPI   C4B  352  13.302   8.122   8.043 -0.1435  0.2130  0.2072
   23loPI    C1  353  18.148  13.486  10.303 -0.1424  0.1379 -0.0258
   23loPI    C2  354  17.863  13.336  10.540 -0.0357 -0.1181 -0.0559
   23loPI    C3  355  18.249  13.266  10.622  0.0040 -0.1455 -0.2621
   23loPI   PO4  356  18.153  13.695  10.227 -0.0384 -0.1059 -0.0542
   23loPI   GL1  357  18.236  13.652   9.799 -0.0594 -0.0040 -0.1930
   23loPI   GL2  358  17.911  13.725   9.730 -0.1615  0.3410  0.1881
   23loPI   C1A  359  18.138  13.360   9.540 -0.0334 -0.0725  0.1201
   23loPI   C2A  360  17.952  13.249   9.141  0.0024  0.2578  0.4038
   23loPI   C3A  361  18.051  13.275   8.719  0.4367  0.2298  0.3003
   23loPI   C4A  362  17.980  13.494   8.388 -0.2358  0.0389 -0.0048
   23loPI   C5A  363  18.280  13.659   8.023  0.0535  0.0835  0.0235
   23loPI   C6A  364  18.300  13.953   7.822 -0.2554  0.2574 -0.0571
   23loPI   C1B  365  18.134  14.048   9.366  0.0319 -0.1635  0.0303
   23loPI   C2B  366  18.287  14.093   8.911 -0.1160  0.0033 -0.2725
   23loPI   C3B  367  18.286  14.134   8.418  0.0161 -0.0412  0.3643
   23loPI   C4B  368  18.018  14.290   8.160 -0.0636 -0.1384 -0.1848
   24loPI    C1  369   8.008   4.168  10.525 -0.2064  0.1560  0.1653
   24loPI    C2  370   8.331   3.943  10.599 -0.0670  0.3130  0.0427
   24loPI    C3  371   7.990   3.771  10.477 -0.0936  0.1248  0.3714
   24loPI   PO4  372   8.141   4.408  10.279 -0.0564  0.1926  0.1206
   24loPI   GL1  373   8.228   4.325   9.843  0.1312 -0.5289  0.1158
   24loPI   GL2  374   8.576   4.136   9.788  0.0777  0.1323  0.2112
   24loPI   C1A  375   8.225   4.243   9.371 -0.1136  0.5923 -0.0564
   24loPI   C2A  376   8.060   4.232   8.965  0.1891  0.1253  0.0913
   24loPI   C3A  377   8.182   3.901   8.570 -0.1059 -0.1473  0.1812
   24loPI   C4A  378   8.142   3.976   8.188 -0.1031  0.3164  0.1729
   24loPI   C5A  379   7.793   3.859   7.881 -0.0132  0.0397 -0.1270
   24loPI   C6A  380   7.940   3.582   7.498 -0.0095 -0.0956  0.0493
   24loPI   C1B  381   8.397   3.783   9.545 -0.1458 -0.2839 -0.3346
   24loPI   C2B  382   8.282   3.814   9.151  0.0026  0.0540 -0.0613
   24loPI   C3B  383   8.044   3.521   8.867  0.2413  0.2733  0.2255
   24loPI   C4B  384   7.973   3.499   8.383  0.0126  0.5449  0.3982
   25loPI    C1  385  17.684   2.709  10.160 -0.1697 -0.1858 -0.1562
   25loPI    C2  386  17.888   2.502  10.436  0.0229 -0.0465 -0.1925
   25loPI    C3  387  17.534   2.666  10.529  0.0282 -0.1061 -0.0654
   25loPI   PO4  388  17.738   2.569   9.943  0.0329  0.3006 -0.1278
   25loPI   GL1  389  18.048   2.526   9.614 -0.0640  0.2028  0.1069
   25loPI   GL2  390  17.963   2.218   9.655 -0.3097 -0.0461  0.2469
   25loPI   C1A  391  18.077   2.585   9.239  0.1266  0.0690 -0.2174
   25loPI   C2A  392  17.991   2.359   8.951 -0.1231 -0.1285  0.0245
   25loPI   C3A  393  17.975   2.232   8.489  0.3627 -0.1742  0.1955
   25loPI   C4A  394  18.171   1.978   8.104  0.1675  0.0555 -0.0793
   25loPI   C5A  395  18.558   2.117   8.010 -0.1432  0.0072  0.0100
   25loPI   C6A  396  18.790   2.369   7.874 -0.0258 -0.0339  0.2590
   25loPI   C1B  397  17.791   2.104   9.316  0.0140  0.1914 -0.0953
   25loPI   C2B  398  17.610   1.987   8.929 -0.2713  0.2533  0.3062
   25loPI   C3B  399  17.454   1.762   8.632  0.0008  0.3085 -0.0509
   25loPI   C4B  400  17.593   1.863   8.156  0.0984  0.1510 -0.1155
   26loPI    C1  401   0.297   3.859  10.461 -0.2199  0.3706  0.0016
   26loPI    C2  402   0.626   4.079  10.405  0.1062 -0.0739  0.1236
   26loPI    C3  403   0.469   4.045  10.771 -0.2057  0.3077  0.0314
   26loPI   PO4  404   0.280   3.745  10.267  0.0508  0.0611 -0.2341
   26loPI   GL1  405   0.320   4.010   9.929  0.2283 -0.1507 -0.2453
   26loPI   GL2  406   0.011   3.907   9.872  0.0181  0.1791 -0.1098
   26loPI   C1A  407   0.510   4.311   9.691  0.2731  0.0246  0.0508
   26loPI   C2A  408   0.377   4.485   9.200 -0.3389 -0.0925  0.0799
   26loPI   C3A  409   0.302   4.475   8.826 -0.3190 -0.0794  0.1452
   26loPI   C4A  410   0.338   4.350   8.422 -0.1352 -0.0088  0.1811
   26loPI   C5A  411   0.679   4.162   8.097 -0.1873 -0.2880  0.2202
   26loPI   C6A  412   0.802   3.749   7.935  0.3654 -0.2359 -0.3653
   26loPI   C1B  413   0.113   4.086   9.447 -0.2510  0.2359  0.0810
   26loPI   C2B  414   0.068   4.026   8.946 -0.0159 -0.1757  0.1282
   26loPI   C3B  415   0.024   3.849   8.479 -0.2537  0.2455  0.1895
   26loPI   C4B  416   0.007   4.056   8.098  0.4243 -0.1208 -0.0932
   27loPI    C1  417   7.777   7.901   9.956  0.0429  0.0811 -0.1080
   27loPI    C2  418   8.019   7.625  10.114 -0.2967 -0.2233 -0.1078
   27loPI    C3  419   7.816   7.873  10.353 -0.0245  0.0033 -0.1067
   27loPI   PO4  420   7.678   7.803   9.786 -0.1823  0.1708 -0.1822
   27loPI   GL1  421   7.431   8.018   9.439 -0.1921 -0.2902  0.1113
   27loPI   GL2  422   7.529   8.280   9.343  0.0397 -0.1890 -0.1322
   27loPI   C1A  423   7.180   7.679   9.232 -0.0857 -0.1329  0.2040
   27loPI   C2A  424   7.432   7.657   8.877  0.0530  0.0191 -0.0205
   27loPI   C3A  425   7.441   7.757   8.460  0.1171  0.0800  0.0745
   27loPI   C4A  426   7.699   7.722   8.075  0.2272  0.0935  0.0988
   27loPI   C5A  427   7.615   7.937   7.716  0.1018  0.2273 -0.1366
   27loPI   C6A  428   7.486   8.164   7.365  0.2000  0.1499 -0.2550
   27loPI   C1B  429   7.159   8.157   9.011 -0.1200 -0.1258  0.1519
   27loPI   C2B  430   7.255   8.213   8.594  0.2359  0.1860  0.2448
   27loPI   C3B  431   7.276   8.209   8.250 -0.2170 -0.0380 -0.0315
   27loPI   C4B  432   7.208   8.205   7.878 -0.0414  0.2335  0.2221
   28loPI    C1  433   5.202   5.316   9.962 -0.0355  0.0191  0.0384
   28loPI    C2  434   5.291   4.927   9.995 -0.3101 -0.0371  0.1414
   28loPI    C3  435   5.534   5.202  10.153 -0.0032 -0.1535 -0.1170
   28loPI   PO4  436   5.220   5.414   9.733  0.2546 -0.0484  0.4389
   28loPI   GL1  437   5.055   5.499   9.413 -0.1812 -0.0742 -0.0963
   28loPI   GL2  438   5.003   5.722   9.302 -0.1360  0.1263  0.0103
   28loPI   C1A  439   5.237   5.289   9.083  0.2703  0.0295 -0.0029
   28loPI   C2A  440   5.444   5.513   8.648  0.0528 -0.0769 -0.0317
   28loPI   C3A  441   5.345   5.798   8.222 -0.1466 -0.0129 -0.1322
   28loPI   C4A  442   5.447   5.914   7.751  0.0190  0.2461 -0.1393
   28loPI   C5A  443   5.682   6.166   7.585  0.0767  0.1478  0.1253
   28loPI   C6A  444   5.922   6.445   7.313 -0.1088 -0.0306  0.0340
   28loPI   C1B  445   4.988   5.703   8.888  0.2941 -0.1368 -0.1386
   28loPI   C2B  446   4.930   5.705   8.417 -0.0147  0.1919  0.1534
   28loPI   C3B  447   4.867   5.464   7.985 -0.0249 -0.2987 -0.4214
   28loPI   C4B  448   4.786   5.348   7.622 -0.0692  0.0798 -0.1397
   29loPI    C1  449  11.561   3.671  10.129 -0.0807 -0.1708 -0.0139
   29loPI    C2  450  11.431   3.962  10.372 -0.0692 -0.1041 -0.0872
   29loPI    C3  451  11.537   3.607  10.523  0.0172 -0.0353  0.0147
   29loPI   PO4  452  11.671   3.718   9.879  0.0878 -0.1743  0.0209
   29loPI   GL1  453  11.833   3.552   9.551  0.3628 -0.2852 -0.2471
   29loPI   GL2  454  12.043   3.736   9.475 -0.0413 -0.1245  0.1965
   29loPI   C1A  455  11.602   3.634   9.184 -0.0861 -0.0041  0.3841
   29loPI   C2A  456  11.466   3.894   8.892  0.0999 -0.2037  0.1201
   29loPI   C3A  457  11.151   3.724   8.566  0.1144  0.1494 -0.0843
   29loPI   C4A  458  10.911   3.494   8.251 -0.1309  0.2049  0.0692
   29loPI   C5A  459  10.660   3.232   8.160 -0.1074  0.2919  0.0246
   29loPI   C6A  460  10.300   3.060   8.405 -0.3501 -0.2536 -0.1183
   29loPI   C1B  461  12.092   3.773   9.072  0.0071  0.3131  0.0135
   29loPI   C2B  462  11.849   3.514   8.748 -0.1160  0.0351 -0.0215
   29loPI   C3B  463  11.568   3.436   8.379  0.0016 -0.0644 -0.0393
   29loPI   C4B  464  11.444   3.564   8.049  0.1398 -0.3298  0.3372
   30loPI    C1  465   1.595  16.730  10.577  0.1975 -0.1768 -0.0717
   30loPI    C2  466   1.355  16.416  10.518 -0.1186  0.0096  0.1863
   30loPI    C3  467   1.663  16.388  10.771 -0.0294 -0.1479  0.0623
   30loPI   PO4  468   1.542  16.878  10.338  0.2180  0.0366 -0.0261
   30loPI   GL1  469   1.698  16.716   9.970  0.0907  0.1884 -0.1464
   30loPI   GL2  470   1.292  16.748   9.867 -0.1460  0.3900  0.1850
   30loPI   C1A  471   1.945  16.893   9.596  0.2170  0.1978  0.3124
   30loPI   C2A  472   2.241  16.975   9.225  0.0617 -0.1914 -0.2420
   30loPI   C3A  473   2.468  16.972   8.837 -0.1471  0.1799 -0.1055
   30loPI   C4A  474   2.809  17.026   8.522  0.3077  0.1476  0.2692
   30loPI   C5A  475   2.989  17.014   8.142 -0.0515 -0.2426  0.2685
   30loPI   C6A  476   3.109  16.648   7.911  0.0002  0.1385 -0.0404
   30loPI   C1B  477   0.972  16.573   9.622  0.3449  0.1395  0.2798
   30loPI   C2B  478   0.675  16.461   9.362  0.3768 -0.0873 -0.0392
   30loPI   C3B  479   0.751  16.268   8.990 -0.2195 -0.2808  0.0317
   30loPI   C4B  480   0.750  16.246   8.510 -0.2320  0.0439  0.1910
   31loPI    C1  481  17.969   8.698   9.943  0.3671  0.3391  0.3839
   31loPI    C2  482  17.847   8.510  10.274  0.0744  0.0764  0.1321
   31loPI    C3  483  18.138   8.352  10.050  0.0398  0.0802  0.0841
   31loPI   PO4  484  17.766   8.779   9.765 -0.1370  0.2789  0.3636
   31loPI   GL1  485  17.962   9.038   9.436  0.0550 -0.1849  0.0589
   31loPI   GL2  486  17.723   9.346   9.452 -0.0780  0.1275  0.2272
   31loPI   C1A  487  17.845   8.918   9.009 -0.2382  0.0683  0.0674
   31loPI   C2A  488  17.662   9.168   8.818  0.0148 -0.0029 -0.1618
   31loPI   C3A  489  17.412   9.137   8.404 -0.1603 -0.0014 -0.2804
   31loPI   C4A  490  17.145   9.465   8.305  0.1762  0.1099  0.2801
   31loPI   C5A  491  16.866   9.762   8.092 -0.0032  0.2237 -0.3690
   31loPI   C6A  492  16.577  10.132   7.968  0.0000  0.0180 -0.1582
   31loPI   C1B  493  17.359   9.569   9.348 -0.0401  0.0221  0.1330
   31loPI   C2B  494  17.242   9.984   9.097 -0.1937 -0.1428  0.1996
   31loPI   C3B  495  16.889  10.291   8.885 -0.1559  0.1509 -0.0455
   31loPI   C4B  496  16.803  10.191   8.452 -0.1992  0.2543 -0.2597
   32loPI    C1  497   6.310  16.158  10.041 -0.0492 -0.0041 -0.1508
   32loPI    C2  498   6.495  15.975  10.345 -0.2753  0.0213  0.0044
   32loPI    C3  499   6.705  16.199  10.088 -0.0948  0.0701  0.1917
   32loPI   PO4  500   6.098  15.913   9.944  0.0052  0.0754 -0.0789
   32loPI   GL1  501   5.852  15.940   9.601  0.3178  0.0072 -0.2042
   32loPI   GL2  502   5.971  16.256   9.633  0.1675 -0.4583 -0.4127
   32loPI   C1A  503   5.548  16.066   9.322  0.1718  0.0136 -0.0674
   32loPI   C2A  504   5.457  16.037   8.877  0.1178 -0.2156 -0.2316
   32loPI   C3A  505   5.309  15.981   8.458 -0.3898 -0.3543 -0.1429
   32loPI   C4A  506   5.260  16.056   8.126  0.2132  0.2338 -0.0695
   32loPI   C5A  507   5.299  16.500   7.907 -0.2755 -0.2265  0.0672
   32loPI   C6A  508   5.605  16.779   7.705 -0.2607 -0.1490 -0.4727
   32loPI   C1B  509   5.911  16.433   9.290 -0.1303 -0.2056 -0.0714
   32loPI   C2B  510   5.694  16.515   9.040  0.1016  0.1829  0.1234
   32loPI   C3B  511   5.625  16.751   8.667 -0.0754 -0.1915  0.0279
   32loPI   C4B  512   5.679  16.837   8.282 -0.1463 -0.2408  0.1605
   33loPI    C1  513  16.117  13.752  10.773 -0.1406  0.0636 -0.1454
   33loPI    C2  514  16.300  13.960  11.062 -0.0803 -0.0514 -0.1005
   33loPI    C3  515  15.941  13.797  11.130 -0.0225 -0.1620 -0.0567
   33loPI   PO4  516  16.275  13.912  10.567  0.3118  0.0726  0.0200
   33loPI   GL1  517  16.412  13.638  10.085 -0.2910  0.0647 -0.2405
   33loPI   GL2  518  16.168  13.894   9.907  0.0743 -0.1591  0.1130
   33loPI   C1A  519  16.700  13.798   9.787  0.1852  0.1070 -0.2666
   33loPI   C2A  520  16.881  13.994   9.499  0.0566  0.2261 -0.1332
   33loPI   C3A  521  17.112  14.418   9.240  0.2115 -0.1099 -0.2869
   33loPI   C4A  522  17.132  14.588   8.902 -0.0284 -0.0612 -0.0784
   33loPI   C5A  523  17.417  14.560   8.590  0.2425 -0.5040 -0.1525
   33loPI   C6A  524  17.529  14.207   8.231  0.3188  0.2322  0.2072
   33loPI   C1B  525  16.382  13.971   9.430 -0.0832  0.1114  0.0752
   33loPI   C2B  526  16.428  13.881   9.019 -0.1731 -0.0489 -0.0437
   33loPI   C3B  527  16.555  13.905   8.614  0.3622 -0.1239 -0.0885
   33loPI   C4B  528  16.455  13.770   8.180  0.0532 -0.2171 -0.0728
   34loPI    C1  529   1.205  11.986  10.039  0.0227  0.0416  0.1299
   34loPI    C2  530   0.815  11.929  10.105 -0.0067  0.1201  0.0279
   34loPI    C3  531   0.978  12.287  10.172  0.0366  0.1026  0.0166
   34loPI   PO4  532   1.372  11.882   9.747  0.1874 -0.2755  0.0682
   34loPI   GL1  533   1.400  12.031   9.419  0.1861 -0.2691  0.1336
   34loPI   GL2  534   1.136  11.851   9.246 -0.2634  0.0300 -0.2257
   34loPI   C1A  535   1.675  12.052   9.044 -0.0126 -0.0606 -0.0249
   34loPI   C2A  536   1.865  12.132   8.714 -0.0333  0.3094  0.1850
   34loPI   C3A  537   2.076  12.305   8.429 -0.6835 -0.1967 -0.2536
   34loPI   C4A  538   2.349  12.136   8.118  0.1822  0.1325 -0.0382
   34loPI   C5A  539   2.682  12.006   7.739  0.1081  0.1860  0.2316
   34loPI   C6A  540   2.908  12.209   7.468 -0.1510 -0.0826 -0.0204
   34loPI   C1B  541   1.136  12.126   9.003  0.1367 -0.0380 -0.2728
   34loPI   C2B  542   1.155  12.408   8.626 -0.0096 -0.0672 -0.2028
   34loPI   C3B  543   1.158  12.711   8.322 -0.2672 -0.2441  0.0201
   34loPI   C4B  544   1.341  12.743   7.892 -0.1004  0.2662 -0.0247
   35loPI    C1  545   6.083  17.526  10.221  0.0961 -0.1208  0.0974
   35loPI    C2  546   6.282  17.379  10.535  0.0768  0.1012  0.2156
   35loPI    C3  547   5.913  17.248  10.453  0.0817  0.0427  0.2854
   35loPI   PO4  548   6.130  17.647  10.062 -0.1577  0.1671 -0.1022
   35loPI   GL1  549   6.401  17.649   9.837 -0.3090 -0.1376 -0.0213
   35loPI   GL2  550   6.587  17.804   9.607  0.1900 -0.3253  0.2069
   35loPI   C1A  551   6.106  17.922   9.523 -0.1050 -0.1433  0.3617
   35loPI   C2A  552   6.038  18.179   9.225 -0.0317 -0.0038 -0.3087
   35loPI   C3A  553   5.901  18.357   8.886 -0.1730  0.0805 -0.0912
   35loPI   C4A  554   6.043  18.522   8.578 -0.2455 -0.0997 -0.0419
   35loPI   C5A  555   6.088  18.550   8.178  0.0439 -0.1779 -0.4828
   35loPI   C6A  556   6.308  18.267   7.977 -0.1317  0.2192 -0.1636
   35loPI   C1B  557   6.561  18.135   9.264  0.1481 -0.1003 -0.1541
   35loPI   C2B  558   6.406  18.274   8.857 -0.1394  0.1777 -0.3336
   35loPI   C3B  559   6.361  18.130   8.471  0.3048 -0.1295 -0.1214
   35loPI   C4B  560   6.256  17.748   8.276  0.2007  0.0117 -0.2518
   36loPI    C1  561  15.511  13.864  10.406 -0.0604  0.0272 -0.0836
   36loPI    C2  562  15.570  13.631  10.725 -0.1458  0.1797  0.0448
   36loPI    C3  563  15.294  13.531  10.453  0.1876 -0.1512 -0.1810
   36loPI   PO4  564  15.807  13.868  10.314 -0.3755 -0.2762 -0.2344
   36loPI   GL1  565  15.924  13.497  10.007 -0.0484  0.3296 -0.0197
   36loPI   GL2  566  15.495  13.366  10.011 -0.0892  0.2638  0.2338
   36loPI   C1A  567  16.161  13.369   9.685  0.1519 -0.5817  0.2566
   36loPI   C2A  568  16.207  13.282   9.312 -0.3179 -0.1425  0.0123
   36loPI   C3A  569  16.165  13.360   8.957  0.0250 -0.3327 -0.0233
   36loPI   C4A  570  16.028  13.384   8.576 -0.1555  0.0206  0.1471
   36loPI   C5A  571  15.828  13.631   8.193 -0.0663 -0.2720  0.3815
   36loPI   C6A  572  15.758  13.846   7.826  0.1415  0.2562 -0.0667
   36loPI   C1B  573  15.695  13.135   9.743 -0.4220 -0.2347 -0.2740
   36loPI   C2B  574  15.763  13.142   9.250  0.2531  0.0912  0.0191
   36loPI   C3B  575  15.659  13.225   8.893 -0.1514 -0.1766 -0.3198
   36loPI   C4B  576  15.249  13.262   8.721 -0.0187  0.0743 -0.0630
   37loPI    C1  577  12.102  10.886  10.854 -0.0820  0.2068  0.0372
   37loPI    C2  578  11.819  10.830  11.131 -0.1322  0.0140 -0.0519
   37loPI    C3  579  12.180  10.665  11.178 -0.1450 -0.0303 -0.1069
   37loPI   PO4  580  12.024  10.765  10.653 -0.0845 -0.0156  0.0472
   37loPI   GL1  581  11.957  10.747  10.200  0.0920  0.0530 -0.0538
   37loPI   GL2  582  11.733  10.919  10.198 -0.1385  0.1224 -0.0162
   37loPI   C1A  583  11.978  10.620   9.679 -0.0833  0.2227 -0.0165
   37loPI   C2A  584  12.048  10.448   9.317 -0.1676 -0.0215 -0.2744
   37loPI   C3A  585  12.231  10.319   8.937 -0.0102  0.1498  0.3298
   37loPI   C4A  586  12.048  10.107   8.611  0.0103  0.2927 -0.1964
   37loPI   C5A  587  12.213   9.972   8.249 -0.0329 -0.0749  0.3862
   37loPI   C6A  588  12.010   9.861   7.979  0.0930 -0.4042  0.3527
   37loPI   C1B  589  11.656  11.012   9.734  0.0205  0.0445 -0.0235
   37loPI   C2B  590  11.602  10.791   9.306  0.0943 -0.0015  0.1261
   37loPI   C3B  591  11.540  10.849   8.890 -0.0039  0.0848 -0.1436
   37loPI   C4B  592  11.567  10.736   8.462  0.0834 -0.3393  0.0123
   38loPI    C1  593   6.876   0.082  10.277  0.0382  0.0238 -0.1877
   38loPI    C2  594   6.656   0.417  10.276 -0.0659 -0.0432 -0.0161
   38loPI    C3  595   6.789   0.265  10.622  0.0904 -0.1083 -0.1038
   38loPI   PO4  596   7.001   0.081  10.036 -0.4194 -0.0102  0.0942
   38loPI   GL1  597   7.128   0.002   9.626  0.3149 -0.2338  0.3517
   38loPI   GL2  598   7.206  -0.432   9.564  0.1515 -0.2337 -0.2327
   38loPI   C1A  599   7.087   0.140   9.163 -0.0680 -0.1646 -0.1026
   38loPI   C2A  600   7.058   0.378   8.850  0.2094 -0.4959  0.0592
   38loPI   C3A  601   7.027   0.606   8.426  0.0521 -0.2912  0.2160
   38loPI   C4A  602   7.034   0.958   8.042 -0.3159  0.0706  0.0715
   38loPI   C5A  603   6.947   1.506   7.919  0.1463 -0.1494  0.1829
   38loPI   C6A  604   7.247   1.794   7.685 -0.3207 -0.2553 -0.6005
   38loPI   C1B  605   6.949  -0.332   9.210  0.2113 -0.2101  0.1517
   38loPI   C2B  606   6.826  -0.198   8.847  0.0421  0.1565 -0.0955
   38loPI   C3B  607   7.088   0.061   8.494 -0.0648 -0.2173 -0.0131
   38loPI   C4B  608   7.354   0.257   8.298 -0.0979 -0.0597 -0.1559
   39loPI    C1  609   7.806  14.801  10.208 -0.2958 -0.1966 -0.1315
   39loPI    C2  610   7.455  14.989  10.170 -0.2179 -0.0222 -0.0006
   39loPI    C3  611   7.666  15.024  10.508 -0.1380 -0.2370 -0.0261
   39loPI   PO4  612   7.990  14.887   9.999 -0.0912  0.1920 -0.4380
   39loPI   GL1  613   7.749  14.841   9.663 -0.0832  0.3089  0.3042
   39loPI   GL2  614   7.430  14.924   9.703 -0.1813 -0.0939  0.0024
   39loPI   C1A  615   7.953  14.995   9.215  0.0372  0.3504 -0.0408
   39loPI   C2A  616   8.043  15.255   8.911  0.1025 -0.1709  0.0877
   39loPI   C3A  617   7.973  15.312   8.443 -0.1678 -0.2140  0.1415
   39loPI   C4A  618   7.889  15.316   8.128  0.2807  0.1317  0.0312
   39loPI   C5A  619   8.085  15.022   7.893 -0.0664 -0.0746  0.0423
   39loPI   C6A  620   8.383  14.669   7.692 -0.1304 -0.0902 -0.1782
   39loPI   C1B  621   7.437  14.927   9.229  0.0407 -0.2425 -0.2716
   39loPI   C2B  622   7.631  15.008   8.851  0.0091  0.0558  0.1592
   39loPI   C3B  623   7.840  14.826   8.500 -0.1674 -0.1964 -0.1695
   39loPI   C4B  624   8.144  14.687   8.272 -0.3873  0.0169  0.1258
   40loPI    C1  625   2.719  15.874  10.588  0.0491 -0.2049  0.2251
   40loPI    C2  626   2.405  16.062  10.748 -0.0032 -0.2240  0.1457
   40loPI    C3  627   2.357  15.706  10.572 -0.0083 -0.0544 -0.2049
   40loPI   PO4  628   2.817  16.069  10.392  0.1201 -0.0620 -0.1502
   40loPI   GL1  629   2.961  16.218   9.983 -0.3801 -0.2152  0.2335
   40loPI   GL2  630   3.201  16.062  10.061  0.1034 -0.0774  0.0841
   40loPI   C1A  631   2.683  16.384   9.752 -0.1865 -0.0141  0.1756
   40loPI   C2A  632   2.469  16.459   9.281  0.0177 -0.2735 -0.3074
   40loPI   C3A  633   2.326  16.509   8.853  0.2230 -0.1725 -0.3429
   40loPI   C4A  634   2.257  16.708   8.513  0.0555 -0.0966  0.0102
   40loPI   C5A  635   1.995  16.951   8.165  0.0773 -0.0514 -0.0986
   40loPI   C6A  636   1.857  17.129   7.773  0.0211 -0.0326 -0.2323
   40loPI   C1B  637   3.353  16.072   9.674  0.0672  0.1838 -0.1082
   40loPI   C2B  638   3.431  16.227   9.225  0.1343 -0.0017  0.2673
   40loPI   C3B  639   3.422  16.439   8.827 -0.1569  0.1707  0.0325
   40loPI   C4B  640   3.283  16.657   8.448 -0.1797  0.0546  0.1353
   41loPI    C1  641  12.883   1.018   9.760  0.0679 -0.0522 -0.0965
   41loPI    C2  642  12.571   1.266   9.725 -0.0010 -0.1420 -0.1214
   41loPI    C3  643  12.674   1.123  10.084  0.0922 -0.0095 -0.0945
   41loPI   PO4  644  12.786   0.825   9.636  0.0924  0.2321 -0.0581
   41loPI   GL1  645  12.713   0.900   9.227 -0.0821 -0.3585  0.1165
   41loPI   GL2  646  12.928   1.176   9.279 -0.2096 -0.6012 -0.3254
   41loPI   C1A  647  12.558   0.771   8.850  0.0613 -0.0161  0.1555
   41loPI   C2A  648  12.627   0.366   8.638 -0.0319 -0.0990 -0.1511
   41loPI   C3A  649  12.603  -0.025   8.427 -0.0852  0.0365 -0.0511
   41loPI   C4A  650  12.702  -0.158   7.976  0.2147 -0.3614 -0.2256
   41loPI   C5A  651  12.901   0.119   7.563  0.2289 -0.0809 -0.0982
   41loPI   C6A  652  13.070   0.175   7.149 -0.1384 -0.0997 -0.0037
   41loPI   C1B  653  13.033   1.149   8.895 -0.0598  0.1659  0.0227
   41loPI   C2B  654  12.706   1.130   8.515  0.0896 -0.1318 -0.4474
   41loPI   C3B  655  12.535   1.479   8.228 -0.1145 -0.2015  0.1683
   41loPI   C4B  656  12.541   1.935   8.025  0.3161  0.1165 -0.4001
   42loPI    C1  657  16.737  11.915  10.683  0.0097  0.0567  0.0621
   42loPI    C2  658  16.992  11.634  10.557 -0.1535 -0.0025 -0.1415
   42loPI    C3  659  16.697  11.538  10.809 -0.1835 -0.0058 -0.1775
   42loPI   PO4  660  16.721  12.095  10.479  0.2579 -0.2856 -0.2480
   42loPI   GL1  661  16.881  12.233  10.096  0.2235  0.1077 -0.0860
   42loPI   GL2  662  16.848  11.878  10.064  0.0735  0.0228  0.0805
   42loPI   C1A  663  16.952  12.521   9.696 -0.1028  0.0619  0.1597
   42loPI   C2A  664  17.145  12.887   9.518 -0.2117  0.0131 -0.0035
   42loPI   C3A  665  17.108  13.229   9.167  0.1285  0.0271 -0.2414
   42loPI   C4A  666  17.303  13.465   8.809  0.2800 -0.3905  0.1120
   42loPI   C5A  667  17.039  13.760   8.535 -0.0080 -0.2299 -0.2387
   42loPI   C6A  668  17.078  14.192   8.464 -0.0706 -0.4665  0.0050
   42loPI   C1B  669  16.739  12.023   9.589 -0.3250  0.1282 -0.1294
   42loPI   C2B  670  16.829  12.226   9.265  0.2731  0.2109 -0.0412
   42loPI   C3B  671  16.901  12.596   9.075 -0.0528 -0.0688 -0.1668
   42loPI   C4B  672  16.620  12.631   8.706 -0.1572 -0.0999 -0.1229
   43loPI    C1  673  11.159   8.416  10.100  0.0970 -0.0639  0.0559
   43loPI    C2  674  10.852   8.412  10.356 -0.0921 -0.0648 -0.1672
   43loPI    C3  675  11.150   8.674  10.406 -0.0359 -0.1853  0.1559
   43loPI   PO4  676  11.334   8.212  10.075 -0.1457  0.1716 -0.3293
   43loPI   GL1  677  11.696   8.243   9.795 -0.0534 -0.0757  0.0392
   43loPI   GL2  678  11.973   8.178   9.807  0.1328  0.0342 -0.0284
   43loPI   C1A  679  11.739   8.331   9.370 -0.3067  0.1707 -0.1160
   43loPI   C2A  680  11.921   8.264   8.961 -0.0741 -0.2072  0.2440
   43loPI   C3A  681  12.009   8.498   8.613 -0.6274  0.2615 -0.1928
   43loPI   C4A  682  12.185   8.723   8.342  0.2881  0.2752 -0.2118
   43loPI   C5A  683  12.228   9.027   8.180  0.0592 -0.4031 -0.2185
   43loPI   C6A  684  12.351   9.473   8.016  0.0520 -0.3615  0.0779
   43loPI   C1B  685  12.125   7.947   9.393  0.3199 -0.0627  0.2490
   43loPI   C2B  686  11.903   7.791   9.079  0.1298 -0.0163 -0.1150
   43loPI   C3B  687  11.892   7.902   8.645 -0.2523 -0.1436 -0.0216
   43loPI   C4B  688  12.059   8.050   8.342 -0.2549 -0.0938 -0.2854
   44loPI    C1  689   3.129   8.722   9.957  0.1187  0.0732 -0.1000
   44loPI    C2  690   3.473   8.899   9.856  0.1342  0.1906  0.1521
   44loPI    C3  691   3.392   8.823  10.240 -0.0145 -0.0607  0.0732
   44loPI   PO4  692   3.087   8.385   9.896 -0.1247  0.0295 -0.2598
   44loPI   GL1  693   3.161   7.976   9.521 -0.0777  0.0596 -0.3508
   44loPI   GL2  694   2.937   8.170   9.416 -0.1507  0.0143  0.0850
   44loPI   C1A  695   3.296   8.049   9.046  0.3382 -0.2323 -0.1196
   44loPI   C2A  696   3.193   8.127   8.528 -0.1353 -0.2726  0.3712
   44loPI   C3A  697   3.226   8.231   8.059 -0.0311  0.0872 -0.1222
   44loPI   C4A  698   3.372   8.665   7.896 -0.0398 -0.0859  0.0114
   44loPI   C5A  699   3.365   9.056   7.722 -0.0651 -0.1093  0.2462
   44loPI   C6A  700   3.462   9.496   7.936  0.2010  0.2088 -0.3014
   44loPI   C1B  701   2.961   8.423   9.078 -0.1230  0.3118  0.1583
   44loPI   C2B  702   2.875   8.567   8.554 -0.0200 -0.1440 -0.2430
   44loPI   C3B  703   2.853   8.630   8.158  0.3465 -0.2152 -0.1961
   44loPI   C4B  704   2.827   8.787   7.816 -0.1254 -0.0138 -0.3610
   45loPI    C1  705   0.007  16.348  10.682 -0.0935 -0.2471  0.1760
   45loPI    C2  706   0.340  16.475  10.864  0.0136  0.1528 -0.2776
   45loPI    C3  707   0.293  16.087  10.781  0.2690  0.0639 -0.0232
   45loPI   PO4  708  -0.081  16.462  10.503 -0.0946  0.0617  0.1183
   45loPI   GL1  709  -0.037  16.671  10.190 -0.1101  0.0586  0.1112
   45loPI   GL2  710   0.172  16.559   9.997 -0.0805  0.0072 -0.2476
   45loPI   C1A  711  -0.295  16.603   9.846 -0.1597  0.4485 -0.1696
   45loPI   C2A  712  -0.319  16.355   9.428 -0.3398  0.1709 -0.1329
   45loPI   C3A  713  -0.389  16.122   9.074  0.2603  0.0255  0.1007
   45loPI   C4A  714  -0.381  16.028   8.548  0.3315  0.3035  0.2587
   45loPI   C5A  715  -0.054  16.049   8.264 -0.1929  0.0443 -0.3354
   45loPI   C6A  716   0.023  16.123   7.902  0.0470  0.1454 -0.1628
   45loPI   C1B  717   0.177  16.614   9.655 -0.0611  0.1376  0.2173
   45loPI   C2B  718   0.100  16.505   9.289 -0.1073 -0.0104 -0.0375
   45loPI   C3B  719   0.116  16.485   8.864 -0.1329  0.1393 -0.2411
   45loPI   C4B  720  -0.213  16.548   8.453  0.1522  0.2558 -0.1675
   46loPI    C1  721   2.707  16.506  10.782  0.1386  0.0215  0.0460
   46loPI    C2  722   2.972  16.224  10.883 -0.0624 -0.2482 -0.1643
   46loPI    C3  723   2.648  16.283  11.110  0.1424  0.0418  0.0604
   46loPI   PO4  724   2.612  16.469  10.569 -0.1641 -0.0877 -0.1609
   46loPI   GL1  725   2.585  16.518  10.218 -0.2698 -0.1130  0.1230
   46loPI   GL2  726   2.578  16.824  10.066  0.0898 -0.1265 -0.0334
   46loPI   C1A  727   2.188  16.482   9.927 -0.2463 -0.0057 -0.4254
   46loPI   C2A  728   2.080  16.271   9.511 -0.0659  0.1337 -0.0685
   46loPI   C3A  729   1.969  16.468   9.190  0.3089 -0.4031  0.1633
   46loPI   C4A  730   1.831  16.458   8.775  0.1719 -0.2300 -0.1536
   46loPI   C5A  731   1.832  16.464   8.289  0.1249  0.0184  0.1926
   46loPI   C6A  732   2.314  16.341   8.183  0.0501 -0.2189 -0.2236
   46loPI   C1B  733   2.525  16.814   9.619 -0.1504 -0.0544  0.1374
   46loPI   C2B  734   2.755  16.911   9.253  0.2161 -0.2103  0.1288
   46loPI   C3B  735   2.913  17.209   8.935  0.0158 -0.3484  0.1529
   46loPI   C4B  736   2.624  17.489   8.793 -0.3910 -0.2756  0.0701
   47loPI    C1  737  13.049   2.946   9.836  0.1199 -0.3128  0.0237
   47loPI    C2  738  12.666   3.034   9.913  0.1540 -0.1198 -0.0196
   47loPI    C3  739  12.777   2.654   9.855  0.0177 -0.2053  0.2612
   47loPI   PO4  740  13.125   3.264   9.792  0.2787 -0.2025  0.1563
   47loPI   GL1  741  13.416   3.465   9.631  0.0737  0.3194  0.2206
   47loPI   GL2  742  13.159   3.542   9.400  0.1034 -0.1286  0.0824
   47loPI   C1A  743  13.560   3.375   9.204 -0.0185  0.1370  0.1049
   47loPI   C2A  744  13.726   3.452   8.814  0.1428  0.1887 -0.3934
   47loPI   C3A  745  13.829   3.487   8.395  0.0232  0.1494  0.0751
   47loPI   C4A  746  13.548   3.376   8.018  0.0125 -0.0652 -0.2489
   47loPI   C5A  747  13.294   3.547   7.668 -0.2454 -0.0287  0.2364
   47loPI   C6A  748  13.045   3.780   7.437  0.2366 -0.0873 -0.0604
   47loPI   C1B  749  13.217   3.406   8.903 -0.4467 -0.0963 -0.0559
   47loPI   C2B  750  13.072   3.385   8.442 -0.1420  0.2920 -0.1008
   47loPI   C3B  751  12.755   3.594   8.130 -0.2145  0.1364 -0.3447
   47loPI   C4B  752  12.408   3.477   8.031 -0.0128  0.0689 -0.0901
   48loPI    C1  753  17.064   5.274  10.322  0.0843 -0.2160 -0.0269
   48loPI    C2  754  17.192   5.582  10.543 -0.1006 -0.0666 -0.1257
   48loPI    C3  755  17.148   5.221  10.710  0.1397 -0.0462 -0.0152
   48loPI   PO4  756  17.154   5.295  10.116 -0.1667  0.3407  0.3063
   48loPI   GL1  757  17.180   5.302   9.699  0.1201  0.0689  0.2097
   48loPI   GL2  758  17.018   5.634   9.664  0.2269 -0.0797 -0.0146
   48loPI   C1A  759  17.369   5.048   9.431 -0.0024 -0.0049  0.2679
   48loPI   C2A  760  17.285   4.932   8.986 -0.0007  0.2036  0.0034
   48loPI   C3A  761  17.288   5.025   8.554  0.0488 -0.1154  0.3361
   48loPI   C4A  762  17.564   5.124   8.190 -0.3233 -0.5652  0.0104
   48loPI   C5A  763  17.485   5.203   7.825  0.0771 -0.1045  0.1048
   48loPI   C6A  764  17.628   5.354   7.431  0.0286 -0.2850 -0.0863
   48loPI   C1B  765  17.086   5.452   9.231 -0.0200 -0.0322 -0.2477
   48loPI   C2B  766  17.144   5.477   8.807 -0.2084  0.1872  0.3254
   48loPI   C3B  767  17.041   5.471   8.349  0.0778 -0.1860  0.0632
   48loPI   C4B  768  17.005   5.399   8.012  0.2379 -0.1996 -0.1830
   49loPI    C1  769   1.894   5.613  10.076 -0.1268  0.1816 -0.0824
   49loPI    C2  770   1.992   5.602  10.464  0.0699  0.3214 -0.1264
   49loPI    C3  771   1.614   5.677  10.354 -0.0501 -0.0166  0.0429
   49loPI   PO4  772   2.195   5.605   9.972  0.1187 -0.0646 -0.0185
   49loPI   GL1  773   2.223   5.359   9.655  0.1972 -0.0210 -0.2007
   49loPI   GL2  774   2.427   5.215   9.487  0.4661 -0.1676 -0.1491
   49loPI   C1A  775   2.130   5.447   9.180 -0.1511  0.1292 -0.0673
   49loPI   C2A  776   2.137   5.213   8.723 -0.3637  0.1255  0.0151
   49loPI   C3A  777   2.030   4.923   8.345 -0.4083  0.2620 -0.0343
   49loPI   C4A  778   1.976   4.671   8.039  0.3196 -0.3740 -0.1960
   49loPI   C5A  779   2.088   4.441   7.672  0.2776 -0.1987  0.3413
   49loPI   C6A  780   2.319   4.020   7.624 -0.1978  0.2081  0.3031
   49loPI   C1B  781   2.438   5.075   9.065 -0.2870 -0.0966  0.0714
   49loPI   C2B  782   2.429   4.791   8.685  0.3240  0.0466  0.0547
   49loPI   C3B  783   2.221   4.378   8.530  0.2066  0.0367 -0.3904
   49loPI   C4B  784   2.358   4.257   8.058  0.1087  0.1182 -0.1757
   50loPI    C1  785   5.927  14.949   9.931 -0.1720 -0.0853  0.1680
   50loPI    C2  786   5.979  15.224  10.217 -0.1624  0.1045 -0.0142
   50loPI    C3  787   5.850  14.858  10.313 -0.0356  0.1262  0.2480
   50loPI   PO4  788   5.746  15.078   9.791  0.0902  0.1226  0.1279
   50loPI   GL1  789   5.708  15.213   9.418  0.1719 -0.0209  0.1430
   50loPI   GL2  790   5.846  15.436   9.467 -0.2559 -0.1460 -0.0303
   50loPI   C1A  791   5.691  15.625   9.041  0.2638 -0.0242  0.1210
   50loPI   C2A  792   5.617  15.603   8.628  0.3546 -0.0575 -0.3272
   50loPI   C3A  793   5.746  15.840   8.244  0.2006  0.2829  0.2882
   50loPI   C4A  794   5.803  15.952   7.820 -0.2986  0.0632 -0.1580
   50loPI   C5A  795   6.131  16.031   7.615 -0.0691 -0.0585 -0.2984
   50loPI   C6A  796   6.410  15.973   7.211  0.1761 -0.3350 -0.0379
   50loPI   C1B  797   5.957  15.220   8.990 -0.1925 -0.0840 -0.2172
   50loPI   C2B  798   5.934  15.208   8.488 -0.1425  0.0803 -0.0097
   50loPI   C3B  799   5.938  15.355   8.089 -0.1752 -0.1316  0.2017
   50loPI   C4B  800   5.699  15.479   7.793  0.0121  0.1527 -0.3489
   51loPI    C1  801   9.606   0.293   9.479  0.0347  0.3342 -0.1198
   51loPI    C2  802   9.650   0.072   9.810  0.1631  0.1483 -0.2582
   51loPI    C3  803   9.701   0.469   9.825 -0.0376  0.1673 -0.0139
   51loPI   PO4  804   9.467   0.174   9.290  0.1628 -0.0934 -0.0669
   51loPI   GL1  805   9.438   0.049   8.876  0.1169 -0.0563  0.0762
   51loPI   GL2  806   9.732  -0.084   8.911  0.0106  0.1689 -0.0914
   51loPI   C1A  807   9.407  -0.019   8.399 -0.4046  0.0649 -0.0884
   51loPI   C2A  808   9.343   0.112   7.940 -0.0652 -0.3727  0.0074
   51loPI   C3A  809   9.542   0.338   7.573 -0.2135  0.0839  0.0707
   51loPI   C4A  810   9.985   0.548   7.469  0.3701 -0.3019  0.0600
   51loPI   C5A  811  10.346   0.838   7.350 -0.0236  0.2242  0.2433
   51loPI   C6A  812  10.756   1.090   7.282  0.0877  0.1873 -0.1324
   51loPI   C1B  813   9.730  -0.324   8.596  0.0870  0.0137 -0.2442
   51loPI   C2B  814   9.575  -0.463   8.201 -0.0371 -0.0124  0.2977
   51loPI   C3B  815   9.411  -0.377   7.759 -0.0558 -0.0555  0.0986
   51loPI   C4B  816   9.595  -0.413   7.423 -0.1841  0.5238  0.0054
   52loPI    C1  817   4.250   2.397  10.349  0.0260 -0.0049 -0.0935
   52loPI    C2  818   4.519   2.659  10.487  0.0190 -0.0191 -0.0529
   52loPI    C3  819   4.425   2.336  10.703  0.0297 -0.0567 -0.1042
   52loPI   PO4  820   4.095   2.576  10.241  0.1379  0.2906 -0.0326
   52loPI   GL1  821   4.024   2.596   9.791  0.0648  0.2998  0.1334
   52loPI   GL2  822   3.780   2.486   9.737  0.1728 -0.0587  0.3137
   52loPI   C1A  823   4.171   2.688   9.354  0.0029 -0.0215 -0.1068
   52loPI   C2A  824   3.983   2.620   9.001  0.1492  0.2842  0.1957
   52loPI   C3A  825   3.965   2.699   8.519  0.2587 -0.0403 -0.0388
   52loPI   C4A  826   3.855   2.802   8.143  0.1542 -0.2685 -0.2353
   52loPI   C5A  827   4.018   2.808   7.789 -0.1801  0.1150  0.0345
   52loPI   C6A  828   4.434   2.934   7.661  0.0331 -0.1533 -0.0342
   52loPI   C1B  829   3.816   2.234   9.363  0.2135  0.0399  0.0885
   52loPI   C2B  830   3.658   2.265   8.996 -0.2644  0.2076 -0.0643
   52loPI   C3B  831   3.641   2.296   8.542 -0.1928 -0.0059  0.0994
   52loPI   C4B  832   3.487   2.183   8.146  0.2857  0.1095  0.0572
   53loPI    C1  833  18.017   0.091  10.270  0.1479  0.1585 -0.2320
   53loPI    C2  834  18.096  -0.091  10.617 -0.0170  0.3387 -0.0975
   53loPI    C3  835  18.299  -0.192  10.288 -0.2435 -0.2336 -0.0735
   53loPI   PO4  836  17.770  -0.003  10.212 -0.0122 -0.0048  0.1068
   53loPI   GL1  837  17.509  -0.395  10.074  0.1190  0.0326  0.3105
   53loPI   GL2  838  17.253  -0.331   9.951 -0.0152 -0.3117 -0.0996
   53loPI   C1A  839  17.555  -0.580   9.600  0.0888  0.0931  0.0440
   53loPI   C2A  840  17.656  -0.621   9.211  0.1913  0.0412 -0.0865
   53loPI   C3A  841  17.546  -0.875   8.854  0.0159 -0.1538  0.0314
   53loPI   C4A  842  17.448  -1.037   8.364 -0.0380 -0.0181 -0.0049
   53loPI   C5A  843  17.276  -1.518   8.172 -0.1399  0.0421 -0.1835
   53loPI   C6A  844  16.806  -1.651   8.082  0.1099  0.2421 -0.1669
   53loPI   C1B  845  17.144  -0.412   9.507 -0.2031 -0.0941  0.2335
   53loPI   C2B  846  17.181  -0.549   9.014 -0.0776  0.0100 -0.0968
   53loPI   C3B  847  17.174  -0.587   8.647  0.2626  0.1752 -0.1142
   53loPI   C4B  848  17.149  -0.551   8.164 -0.1374  0.0413  0.0233
   54loPI    C1  849  11.719   5.014   9.964 -0.1342 -0.0471  0.1055
   54loPI    C2  850  11.964   5.137  10.255 -0.1549  0.1957  0.0227
   54loPI    C3  851  11.577   5.239  10.263 -0.2230 -0.0617  0.0745
   54loPI   PO4  852  11.904   5.102   9.727 -0.1443  0.2680 -0.1342
   54loPI   GL1  853  11.912   5.100   9.294  0.1785  0.2997 -0.0359
   54loPI   GL2  854  11.526   5.132   9.417  0.3695 -0.0051  0.2819
   54loPI   C1A  855  11.996   4.878   8.919 -0.3102 -0.0287  0.1781
   54loPI   C2A  856  11.928   5.011   8.566 -0.1190  0.3621 -0.0071
   54loPI   C3A  857  12.096   5.210   8.191 -0.0258 -0.1734  0.0340
   54loPI   C4A  858  11.842   5.264   7.817 -0.0020 -0.1888  0.1340
   54loPI   C5A  859  11.944   5.513   7.531  0.0774 -0.1679 -0.3646
   54loPI   C6A  860  11.654   5.712   7.358 -0.0068  0.5148 -0.0700
   54loPI   C1B  861  11.308   5.069   9.026  0.3632 -0.0640 -0.2266
   54loPI   C2B  862  11.297   5.060   8.593 -0.4273 -0.0385  0.4132
   54loPI   C3B  863  11.082   5.095   8.245  0.2989  0.1703 -0.0681
   54loPI   C4B  864  11.059   5.204   7.823 -0.0277 -0.2976 -0.1663
   55loPI    C1  865  13.474   5.690  10.130 -0.1861  0.0080 -0.0492
   55loPI    C2  866  13.664   5.449  10.385 -0.1620  0.0240 -0.0519
   55loPI    C3  867  13.691   5.845  10.428 -0.3128  0.0257  0.0344
   55loPI   PO4  868  13.507   5.535   9.880 -0.1540  0.0922  0.1343
   55loPI   GL1  869  13.806   5.499   9.566 -0.1609 -0.0120  0.0833
   55loPI   GL2  870  13.727   5.194   9.500  0.1029 -0.0397 -0.1916
   55loPI   C1A  871  14.062   5.611   9.236 -0.1429 -0.3150 -0.0175
   55loPI   C2A  872  14.082   5.833   8.766 -0.3228  0.0646  0.1751
   55loPI   C3A  873  14.031   5.906   8.313 -0.1407 -0.2714 -0.0296
   55loPI   C4A  874  14.048   5.785   7.859 -0.1094  0.2174 -0.0248
   55loPI   C5A  875  14.031   6.025   7.516 -0.0392 -0.2329 -0.2206
   55loPI   C6A  876  14.174   6.019   7.050  0.1792 -0.0173 -0.1152
   55loPI   C1B  877  13.732   4.898   9.101 -0.0221  0.0442 -0.0896
   55loPI   C2B  878  13.572   4.974   8.722  0.0431  0.0206 -0.0440
   55loPI   C3B  879  13.554   5.057   8.338  0.0564 -0.1402 -0.0004
   55loPI   C4B  880  13.492   4.935   7.952  0.0563  0.1617 -0.3151
   56loPI    C1  881   5.113   8.929   9.826 -0.2586 -0.0332 -0.0705
   56loPI    C2  882   4.978   9.301   9.885 -0.1356 -0.0254  0.1772
   56loPI    C3  883   5.369   9.236   9.833 -0.1749 -0.1035 -0.0341
   56loPI   PO4  884   4.824   8.861   9.570  0.1868 -0.1990  0.1416
   56loPI   GL1  885   4.725   8.503   9.456 -0.1138 -0.1709  0.1998
   56loPI   GL2  886   4.378   8.380   9.281 -0.0957  0.2144 -0.0265
   56loPI   C1A  887   5.000   8.609   9.083  0.1023  0.0920 -0.1435
   56loPI   C2A  888   5.285   8.575   8.742  0.3452  0.0622 -0.0925
   56loPI   C3A  889   5.236   8.679   8.340 -0.3608  0.3060 -0.0367
   56loPI   C4A  890   5.394   8.753   7.896  0.0149  0.0774  0.2244
   56loPI   C5A  891   5.330   8.616   7.512  0.2360 -0.1508 -0.0012
   56loPI   C6A  892   5.584   8.500   7.120 -0.0681 -0.1007  0.1301
   56loPI   C1B  893   4.123   8.526   8.986 -0.1007  0.1031 -0.0026
   56loPI   C2B  894   4.076   8.614   8.535  0.0092  0.1419 -0.1687
   56loPI   C3B  895   3.877   8.757   8.203 -0.2670 -0.0549  0.1189
   56loPI   C4B  896   3.678   9.058   8.169 -0.2163 -0.2630 -0.1505
   57loPI    C1  897   9.491  13.665  10.148  0.0306  0.0497 -0.1165
   57loPI    C2  898   9.397  13.947  10.416 -0.0395  0.0941 -0.1876
   57loPI    C3  899   9.750  13.761  10.438 -0.1940 -0.1696  0.1633
   57loPI   PO4  900   9.269  13.563  10.083 -0.2614 -0.1467 -0.1762
   57loPI   GL1  901   9.200  13.337   9.677  0.2497 -0.0073  0.0966
   57loPI   GL2  902   9.014  13.650   9.700 -0.3139 -0.0553 -0.0342
   57loPI   C1A  903   9.325  13.579   9.293 -0.1291  0.2677  0.2768
   57loPI   C2A  904   9.539  13.804   9.070 -0.2367 -0.0398  0.1987
   57loPI   C3A  905   9.552  13.676   8.652  0.3212 -0.0702  0.0680
   57loPI   C4A  906   9.760  13.650   8.252  0.1227 -0.2302 -0.0459
   57loPI   C5A  907   9.803  13.708   7.813  0.1738 -0.2795  0.2351
   57loPI   C6A  908  10.072  14.055   7.477 -0.0352 -0.0871  0.2619
   57loPI   C1B  909   8.740  13.636   9.227  0.0342  0.3870 -0.3656
   57loPI   C2B  910   8.642  13.372   8.964  0.3121  0.1325 -0.4859
   57loPI   C3B  911   8.593  13.385   8.604 -0.2436 -0.1842  0.1411
   57loPI   C4B  912   8.330  13.410   8.158 -0.0631  0.2249 -0.0541
   58loPI    C1  913   8.402   0.984   9.986  0.1711 -0.0808  0.0026
   58loPI    C2  914   8.730   0.761  10.038  0.0810 -0.1949  0.0894
   58loPI    C3  915   8.657   1.069  10.283  0.0313 -0.2809  0.1834
   58loPI   PO4  916   8.385   0.998   9.781 -0.0697 -0.3920 -0.1107
   58loPI   GL1  917   8.226   0.838   9.470 -0.0780  0.0976  0.4262
   58loPI   GL2  918   8.362   0.506   9.552  0.2955  0.0732 -0.0615
   58loPI   C1A  919   7.888   0.986   9.185 -0.1092 -0.0343 -0.2546
   58loPI   C2A  920   7.799   1.002   8.776 -0.0137 -0.0039  0.0081
   58loPI   C3A  921   7.864   1.099   8.240 -0.0439  0.0364  0.1905
   58loPI   C4A  922   7.857   0.938   7.812  0.1301 -0.2711 -0.0473
   58loPI   C5A  923   7.693   0.504   7.643  0.3203 -0.0786  0.0494
   58loPI   C6A  924   7.889   0.157   7.384  0.0795 -0.3170  0.2342
   58loPI   C1B  925   8.475   0.634   9.110 -0.0995  0.2603 -0.2316
   58loPI   C2B  926   8.393   0.839   8.716 -0.0860  0.1594  0.1144
   58loPI   C3B  927   8.537   1.016   8.404  0.0007 -0.0953  0.1487
   58loPI   C4B  928   8.458   1.277   8.099  0.1420 -0.0717 -0.0848
   59loPI    C1  929   3.156   3.103  10.137 -0.2465  0.1320  0.0162
   59loPI    C2  930   2.967   2.816   9.932 -0.3256  0.1838  0.0166
   59loPI    C3  931   2.891   2.866  10.322 -0.0564 -0.0197  0.0978
   59loPI   PO4  932   3.440   3.250   9.909  0.2858 -0.2191 -0.0579
   59loPI   GL1  933   3.641   3.401   9.525 -0.3865  0.0078  0.1430
   59loPI   GL2  934   3.511   3.216   9.296 -0.1092 -0.2863  0.1981
   59loPI   C1A  935   3.888   3.551   9.087 -0.1431 -0.3638  0.1953
   59loPI   C2A  936   3.953   3.681   8.722 -0.0975 -0.2634  0.3696
   59loPI   C3A  937   4.027   3.770   8.253  0.5413 -0.0469  0.0080
   59loPI   C4A  938   3.744   3.696   7.820  0.1447  0.1577  0.1765
   59loPI   C5A  939   3.617   3.486   7.422 -0.0947 -0.0318 -0.2003
   59loPI   C6A  940   3.507   3.103   7.262 -0.0514 -0.1105 -0.0038
   59loPI   C1B  941   3.183   3.170   8.915  0.2320 -0.0323  0.1461
   59loPI   C2B  942   3.009   3.052   8.510  0.1143 -0.0305  0.3022
   59loPI   C3B  943   2.872   2.945   8.143  0.0688 -0.0225 -0.0309
   59loPI   C4B  944   2.741   2.788   7.734 -0.0344 -0.2184  0.1599
   60loPI    C1  945   2.127   8.694  10.449  0.0824 -0.0009  0.0701
   60loPI    C2  946   2.432   8.731  10.706 -0.0059  0.1085  0.1601
   60loPI    C3  947   2.164   9.026  10.669 -0.0187  0.0750 -0.0263
   60loPI   PO4  948   2.223   8.567  10.146 -0.2641  0.0158  0.0705
   60loPI   GL1  949   2.155   8.466   9.662  0.1254 -0.0258 -0.0917
   60loPI   GL2  950   1.973   8.299   9.448  0.0005 -0.0170 -0.1305
   60loPI   C1A  951   2.109   8.694   9.239  0.2025 -0.1772  0.0691
   60loPI   C2A  952   2.030   8.735   8.764 -0.0732 -0.0030  0.3933
   60loPI   C3A  953   1.927   8.780   8.387  0.1295 -0.1716  0.3635
   60loPI   C4A  954   1.815   8.656   7.970  0.0055  0.0121 -0.0234
   60loPI   C5A  955   1.467   8.445   7.799  0.1868 -0.0769 -0.1036
   60loPI   C6A  956   1.211   8.593   7.432 -0.0777 -0.0725  0.4588
   60loPI   C1B  957   2.153   8.242   8.956 -0.1701  0.4057  0.0467
   60loPI   C2B  958   2.201   8.254   8.519  0.0823  0.1778  0.2898
   60loPI   C3B  959   2.191   8.299   8.074  0.4514  0.0685  0.3498
   60loPI   C4B  960   2.148   8.515   7.653  0.3300 -0.2510 -0.1396
   61loPI    C1  961   3.392   4.232  10.019 -0.0961 -0.1038  0.1687
   61loPI    C2  962   3.404   4.588  10.201 -0.2378 -0.0455  0.0663
   61loPI    C3  963   3.448   4.252  10.414  0.1015  0.0387  0.1355
   61loPI   PO4  964   3.621   4.222   9.883  0.1152 -0.1188 -0.0588
   61loPI   GL1  965   3.694   3.983   9.453 -0.1342 -0.1822  0.2193
   61loPI   GL2  966   4.037   4.036   9.436 -0.1611  0.0267 -0.2333
   61loPI   C1A  967   3.338   4.053   9.081  0.0094 -0.1858 -0.3912
   61loPI   C2A  968   3.119   4.127   8.663 -0.2405 -0.6107 -0.2633
   61loPI   C3A  969   2.916   4.228   8.210  0.0359 -0.0416  0.3991
   61loPI   C4A  970   2.740   4.418   7.763 -0.2982  0.2070  0.4833
   61loPI   C5A  971   2.821   4.279   7.290 -0.1580 -0.0298 -0.0701
   61loPI   C6A  972   2.815   4.450   6.916  0.0018  0.2219  0.0064
   61loPI   C1B  973   3.899   4.172   8.989  0.6058  0.0490  0.1417
   61loPI   C2B  974   3.684   4.110   8.606 -0.1577  0.0376  0.1534
   61loPI   C3B  975   3.479   4.180   8.231 -0.1498  0.1593  0.0423
   61loPI   C4B  976   3.192   4.244   7.807 -0.3846  0.2021 -0.2995
   62loPI    C1  977   2.341  11.480  10.198 -0.0360  0.1959 -0.2322
   62loPI    C2  978   2.162  11.657  10.509 -0.1411  0.0652 -0.2173
   62loPI    C3  979   2.560  11.619  10.503 -0.1653 -0.2860  0.0915
   62loPI   PO4  980   2.211  11.547  10.037 -0.0088 -0.0661 -0.2529
   62loPI   GL1  981   2.129  11.860   9.760  0.1840  0.3447  0.1265
   62loPI   GL2  982   2.379  11.900   9.678 -0.0304  0.2042  0.1135
   62loPI   C1A  983   1.890  11.709   9.401 -0.3706  0.3006 -0.2626
   62loPI   C2A  984   1.993  11.629   8.951 -0.0008  0.1288 -0.2628
   62loPI   C3A  985   2.149  11.758   8.572 -0.0304 -0.2926  0.1852
   62loPI   C4A  986   1.952  11.834   8.259  0.0345  0.1166  0.2238
   62loPI   C5A  987   1.693  11.527   8.137  0.2288 -0.1463 -0.2391
   62loPI   C6A  988   1.196  11.484   8.141  0.0879 -0.2579  0.0823
   62loPI   C1B  989   2.234  12.089   9.277 -0.1511  0.2996  0.0262
   62loPI   C2B  990   2.043  12.475   9.118  0.0417 -0.0379  0.4254
   62loPI   C3B  991   2.196  12.613   8.772  0.2838 -0.0411  0.2148
   62loPI   C4B  992   2.532  12.533   8.444  0.0360 -0.1620 -0.2171
   63loPI    C1  993  17.124  15.531  10.489 -0.1816  0.1845 -0.1475
   63loPI    C2  994  17.081  15.133  10.482 -0.2349  0.1907 -0.1705
   63loPI    C3  995  16.938  15.345  10.790 -0.0068  0.1687 -0.0473
   63loPI   PO4  996  17.448  15.529  10.309  0.0089 -0.1128 -0.1734
   63loPI   GL1  997  17.668  15.349   9.914 -0.1245  0.1412 -0.2104
   63loPI   GL2  998  18.013  15.394   9.997  0.2005  0.1215 -0.0817
   63loPI   C1A  999  17.657  15.241   9.505 -0.0759  0.2821  0.1892
   63loPI   C2A 1000  17.728  15.374   9.118  0.1102  0.0790  0.0383
   63loPI   C3A 1001  17.780  15.535   8.725 -0.0720 -0.2007  0.3901
   63loPI   C4A 1002  17.615  15.868   8.430  0.0277  0.0163  0.1471
   63loPI   C5A 1003  17.363  16.164   8.264 -0.0771  0.2386  0.4972
   63loPI   C6A 1004  16.998  16.323   8.234 -0.0929 -0.1432  0.0032
   63loPI   C1B 1005  17.943  15.620   9.588 -0.1134 -0.2594  0.0162
   63loPI   C2B 1006  18.003  15.964   9.331  0.1823  0.0909 -0.3306
   63loPI   C3B 1007  18.196  15.697   8.873 -0.0020 -0.0065 -0.1249
   63loPI   C4B 1008  18.234  15.562   8.495  0.1198  0.2091 -0.0703
   64loPI    C1 1009  16.079  14.933  10.682 -0.0577 -0.1964 -0.2077
   64loPI    C2 1010  15.746  14.822  10.873  0.0051 -0.0119  0.0130
   64loPI    C3 1011  16.102  14.781  11.051  0.0778  0.0243 -0.1228
   64loPI   PO4 1012  16.078  14.745  10.457  0.3321  0.1710 -0.3149
   64loPI   GL1 1013  16.165  14.862  10.030 -0.1228 -0.2111 -0.2180
   64loPI   GL2 1014  15.946  15.143   9.847  0.2125  0.1491  0.0487
   64loPI   C1A 1015  16.454  14.935   9.869 -0.6067  0.1214 -0.2631
   64loPI   C2A 1016  16.743  14.962   9.648  0.0595 -0.3092  0.1547
   64loPI   C3A 1017  16.853  14.871   9.213  0.2258 -0.0333 -0.3319
   64loPI   C4A 1018  16.685  14.815   8.809 -0.0060 -0.0715 -0.0372
   64loPI   C5A 1019  16.706  14.516   8.579 -0.1304  0.0925 -0.1121
   64loPI   C6A 1020  16.606  14.238   8.265  0.3307 -0.0723  0.2735
   64loPI   C1B 1021  15.899  14.789   9.525 -0.4241 -0.2323 -0.2724
   64loPI   C2B 1022  15.937  14.790   9.071 -0.0040  0.1850 -0.0305
   64loPI   C3B 1023  15.826  14.772   8.555 -0.2346 -0.0004  0.0828
   64loPI   C4B 1024  15.725  14.511   8.209 -0.3028 -0.1606  0.5057
   65loPI    C1 1025   9.361   7.216   9.661  0.3370  0.2177 -0.1372
   65loPI    C2 1026   9.529   7.220  10.024 -0.0939  0.1584  0.0691
   65loPI    C3 1027   9.176   7.039   9.969 -0.1015  0.2911 -0.3503
   65loPI   PO4 1028   9.288   7.342   9.598 -0.0490  0.0169 -0.2558
   65loPI   GL1 1029   9.007   7.374   9.158 -0.2778 -0.0318 -0.0934
   65loPI   GL2 1030   8.807   7.383   8.958  0.1145  0.0220  0.0210
   65loPI   C1A 1031   9.367   7.445   8.846  0.2544 -0.0624 -0.1721
   65loPI   C2A 1032   9.487   7.929   8.709 -0.2387  0.1305  0.4412
   65loPI   C3A 1033   9.452   7.945   8.341 -0.1275  0.3123 -0.0997
   65loPI   C4A 1034   9.336   8.010   7.908 -0.2079  0.0289 -0.1302
   65loPI   C5A 1035   9.127   8.219   7.646 -0.0092  0.1973  0.0599
   65loPI   C6A 1036   8.868   8.267   7.313 -0.3534 -0.3353 -0.0163
   65loPI   C1B 1037   8.912   7.595   8.598 -0.0187 -0.0365 -0.2822
   65loPI   C2B 1038   9.129   7.624   8.173 -0.0783 -0.1661 -0.1681
   65loPI   C3B 1039   9.371   7.460   7.750  0.2621  0.6834 -0.2409
   65loPI   C4B 1040   9.581   7.117   7.507  0.0998  0.0109 -0.0089
   66loPI    C1 1041   7.812   3.441  10.142  0.1623  0.2859  0.1579
   66loPI    C2 1042   7.519   3.600  10.363 -0.3000  0.0293 -0.2502
   66loPI    C3 1043   7.713   3.276  10.492 -0.1011  0.2745  0.0808
   66loPI   PO4 1044   7.670   3.625   9.883  0.0657  0.1737 -0.1737
   66loPI   GL1 1045   7.707   3.607   9.420  0.3324  0.2274  0.4128
   66loPI   GL2 1046   7.910   3.809   9.499  0.4285 -0.0325 -0.2092
   66loPI   C1A 1047   8.124   3.354   9.317  0.2683 -0.1194  0.1105
   66loPI   C2A 1048   8.334   3.139   8.937 -0.1794 -0.2485 -0.1723
   66loPI   C3A 1049   8.471   3.106   8.479  0.5326 -0.1211  0.0908
   66loPI   C4A 1050   8.439   2.759   8.091 -0.2780 -0.4581 -0.4921
   66loPI   C5A 1051   8.252   2.467   7.856 -0.2435  0.0672 -0.0921
   66loPI   C6A 1052   8.318   2.135   7.628 -0.2674  0.0078  0.2489
   66loPI   C1B 1053   7.753   3.855   8.979 -0.3582  0.1334  0.0542
   66loPI   C2B 1054   7.672   3.940   8.525  0.1484  0.0164 -0.0117
   66loPI   C3B 1055   7.621   4.381   8.133 -0.2298  0.0535  0.2206
   66loPI   C4B 1056   7.520   4.452   7.812 -0.2055 -0.2223  0.1520
   67loPI    C1 1057   7.636   7.313   9.741  0.0451  0.0116 -0.1073
   67loPI    C2 1058   7.616   7.537   9.411  0.0593  0.1980  0.0170
   67loPI    C3 1059   7.304   7.521   9.661  0.0761  0.1166  0.0329
   67loPI   PO4 1060   7.741   7.060   9.573  0.0110  0.1897  0.0410
   67loPI   GL1 1061   8.065   6.955   9.286  0.2726  0.0600  0.2052
   67loPI   GL2 1062   8.466   6.983   9.194  0.1963  0.1938  0.1109
   67loPI   C1A 1063   8.094   6.984   8.893  0.1808 -0.0773 -0.0647
   67loPI   C2A 1064   8.233   6.919   8.407  0.0779 -0.1070 -0.2020
   67loPI   C3A 1065   8.102   6.860   7.909  0.0965 -0.1414 -0.0742
   67loPI   C4A 1066   8.031   6.465   7.629  0.1114 -0.5925 -0.0234
   67loPI   C5A 1067   8.112   5.972   7.610  0.2473  0.2305  0.1228
   67loPI   C6A 1068   8.297   5.478   7.590  0.1482 -0.1511  0.1547
   67loPI   C1B 1069   8.572   6.842   8.773 -0.2710 -0.0207 -0.2401
   67loPI   C2B 1070   8.786   7.078   8.584  0.0757  0.2684 -0.2105
   67loPI   C3B 1071   9.094   7.160   8.376  0.0943 -0.1281 -0.0116
   67loPI   C4B 1072   9.342   7.029   8.002 -0.1183  0.2140 -0.0775
   68loPI    C1 1073   4.641   0.072  10.856 -0.0839 -0.3432  0.1635
   68loPI    C2 1074   4.428   0.309  11.098  0.1960  0.1618 -0.0700
   68loPI    C3 1075   4.734   0.097  11.244  0.1481  0.1964  0.0820
   68loPI   PO4 1076   4.470   0.243  10.623  0.1415  0.1230  0.0018
   68loPI   GL1 1077   4.491   0.082  10.222 -0.1094  0.2460  0.2754
   68loPI   GL2 1078   4.437   0.469  10.169  0.2133  0.0100  0.1970
   68loPI   C1A 1079   4.558   0.172   9.806 -0.0300 -0.0271 -0.1247
   68loPI   C2A 1080   4.760   0.458   9.382 -0.1568  0.2269  0.0163
   68loPI   C3A 1081   4.882   0.555   8.989 -0.0416 -0.3627  0.1163
   68loPI   C4A 1082   4.650   0.661   8.648  0.0884  0.0376 -0.1197
   68loPI   C5A 1083   4.520   0.345   8.381 -0.0182 -0.2099 -0.1790
   68loPI   C6A 1084   4.603  -0.124   8.352  0.1316 -0.2099 -0.2699
   68loPI   C1B 1085   4.937   0.578  10.011 -0.1211 -0.1764  0.0740
   68loPI   C2B 1086   5.109   0.791   9.629  0.5077 -0.0151 -0.0353
   68loPI   C3B 1087   5.288   0.756   9.175  0.1006 -0.0085 -0.0619
   68loPI   C4B 1088   5.661   0.662   9.103 -0.2115 -0.1913 -0.0149
   69loPI    C1 1089  13.061  18.266  10.109  0.0481  0.1429  0.0546
   69loPI    C2 1090  12.852  18.521  10.336  0.2036  0.1875  0.1503
   69loPI    C3 1091  12.734  18.140  10.301  0.0184  0.2502  0.0756
   69loPI   PO4 1092  13.077  18.301   9.838  0.0309 -0.0667  0.0789
   69loPI   GL1 1093  13.071  18.152   9.393 -0.3070  0.1660 -0.2758
   69loPI   GL2 1094  13.099  17.863   9.364 -0.0560 -0.3270  0.0807
   69loPI   C1A 1095  12.892  18.404   9.110 -0.4704 -0.3022 -0.2841
   69loPI   C2A 1096  12.709  18.370   8.762  0.0340 -0.1015 -0.0292
   69loPI   C3A 1097  12.614  18.237   8.326 -0.0078 -0.1983 -0.1592
   69loPI   C4A 1098  12.832  18.006   7.996  0.0189  0.1982  0.0647
   69loPI   C5A 1099  13.066  17.909   7.628  0.4122 -0.3003  0.1666
   69loPI   C6A 1100  13.325  17.892   7.288 -0.1743  0.2368 -0.0211
   69loPI   C1B 1101  13.202  17.955   8.947  0.1114  0.1622  0.0147
   69loPI   C2B 1102  13.191  18.135   8.592  0.1238 -0.3406 -0.0785
   69loPI   C3B 1103  13.371  18.208   8.046  0.0186 -0.2158 -0.2446
   69loPI   C4B 1104  13.487  18.250   7.638  0.1901  0.1570 -0.1680
   70loPI    C1 1105   2.881  18.564  10.641 -0.0910  0.0971  0.0133
   70loPI    C2 1106   2.488  18.498  10.667 -0.0560 -0.1223  0.0029
   70loPI    C3 1107   2.681  18.676  10.969 -0.1509 -0.0760  0.0368
   70loPI   PO4 1108   2.881  18.641  10.341  0.1216 -0.0721  0.0038
   70loPI   GL1 1109   2.918  18.501  10.108  0.0975  0.0005  0.0394
   70loPI   GL2 1110   2.718  18.309   9.919  0.0207  0.0279  0.0761
   70loPI   C1A 1111   3.099  18.676   9.726  0.2113  0.2497  0.2026
   70loPI   C2A 1112   3.301  18.571   9.406  0.0543 -0.2112  0.0503
   70loPI   C3A 1113   3.234  18.602   8.970 -0.2266  0.1507  0.1042
   70loPI   C4A 1114   3.118  18.408   8.618  0.1879  0.0246 -0.1023
   70loPI   C5A 1115   3.167  18.083   8.373  0.0751 -0.1390  0.3162
   70loPI   C6A 1116   3.565  18.056   8.145 -0.1695  0.0150 -0.2657
   70loPI   C1B 1117   2.545  18.486   9.567 -0.1408  0.0237 -0.1689
   70loPI   C2B 1118   2.826  18.566   9.230 -0.3521  0.1530  0.1487
   70loPI   C3B 1119   2.725  18.556   8.815  0.2427 -0.0070 -0.2130
   70loPI   C4B 1120   2.842  18.722   8.408 -0.2759 -0.1133  0.0495
   71loPI    C1 1121   5.693   4.582   9.848  0.2984  0.0891  0.0245
   71loPI    C2 1122   5.770   4.747  10.204  0.1804 -0.0299  0.1061
   71loPI    C3 1123   5.467   4.489  10.164  0.0998  0.0958 -0.1138
   71loPI   PO4 1124   5.911   4.600   9.674  0.0738  0.0523 -0.0434
   71loPI   GL1 1125   6.038   4.428   9.261 -0.3085 -0.3672 -0.2660
   71loPI   GL2 1126   6.425   4.296   9.272  0.1608  0.1875  0.1817
   71loPI   C1A 1127   6.127   4.454   8.829  0.0754  0.0600 -0.3003
   71loPI   C2A 1128   6.120   4.219   8.393  0.0103  0.3658  0.1444
   71loPI   C3A 1129   6.170   4.032   7.889 -0.2349 -0.0691 -0.0729
   71loPI   C4A 1130   6.505   3.973   7.697  0.4227  0.3305 -0.1567
   71loPI   C5A 1131   6.707   3.611   7.529 -0.0519  0.0392 -0.2417
   71loPI   C6A 1132   6.465   3.400   7.204  0.0267  0.0680  0.2205
   71loPI   C1B 1133   6.685   4.582   8.931 -0.1823  0.2596 -0.3758
   71loPI   C2B 1134   6.699   4.456   8.600  0.2327 -0.1467  0.2105
   71loPI   C3B 1135   6.670   4.802   8.306  0.0531  0.3133  0.2949
   71loPI   C4B 1136   6.408   5.132   8.322 -0.0706  0.0059  0.3480
   72loPI    C1 1137  13.424  10.013  10.592  0.1939 -0.2436 -0.2475
   72loPI    C2 1138  13.760   9.980  10.807  0.0958  0.0070 -0.0504
   72loPI    C3 1139  13.485  10.252  10.907 -0.1486 -0.1673 -0.2357
   72loPI   PO4 1140  13.519   9.801  10.403 -0.2663  0.1961 -0.1163
   72loPI   GL1 1141  13.672   9.690  10.032 -0.1779  0.1518  0.3956
   72loPI   GL2 1142  13.947  10.062   9.966  0.1941 -0.1096  0.2056
   72loPI   C1A 1143  13.482   9.808   9.606  0.2205 -0.2325 -0.1474
   72loPI   C2A 1144  13.327  10.136   9.295 -0.1321  0.0141 -0.1628
   72loPI   C3A 1145  13.328  10.478   9.048 -0.1782 -0.3959 -0.1687
   72loPI   C4A 1146  13.105  10.739   8.876  0.0367 -0.0395  0.4059
   72loPI   C5A 1147  12.796  10.595   8.600  0.4913  0.0473  0.2345
   72loPI   C6A 1148  12.478  10.310   8.412 -0.0003  0.1970 -0.3045
   72loPI   C1B 1149  13.946   9.798   9.582 -0.2388 -0.1272  0.1404
   72loPI   C2B 1150  14.106   9.759   9.045  0.1364  0.1629  0.0800
   72loPI   C3B 1151  14.193   9.772   8.678  0.2215  0.1419  0.3037
   72loPI   C4B 1152  14.236   9.728   8.241  0.1458 -0.0622 -0.1052
   73loPI    C1 1153   6.617   5.822  10.234 -0.1384  0.2915  0.0650
   73loPI    C2 1154   6.228   5.730  10.218 -0.0579 -0.0456 -0.0214
   73loPI    C3 1155   6.477   5.511  10.442  0.1107  0.0678 -0.0957
   73loPI   PO4 1156   6.669   5.907   9.875 -0.3005  0.1019  0.1634
   73loPI   GL1 1157   6.806   6.095   9.514  0.1473 -0.2389  0.2876
   73loPI   GL2 1158   6.519   6.297   9.542  0.1301  0.1241 -0.1763
   73loPI   C1A 1159   6.848   6.007   9.145  0.0530 -0.2055  0.0303
   73loPI   C2A 1160   6.705   5.928   8.707  0.2430 -0.0877  0.1006
   73loPI   C3A 1161   6.766   5.731   8.352  0.2498 -0.0863 -0.0073
   73loPI   C4A 1162   6.642   5.434   8.032 -0.0874 -0.3284  0.1991
   73loPI   C5A 1163   6.818   5.086   7.754 -0.2475  0.0779  0.4090
   73loPI   C6A 1164   6.591   4.802   7.486  0.0229 -0.0793 -0.1723
   73loPI   C1B 1165   6.459   6.428   9.117 -0.0882 -0.0587 -0.0772
   73loPI   C2B 1166   6.636   6.433   8.828 -0.1424  0.0117  0.1910
   73loPI   C3B 1167   6.712   6.301   8.356 -0.1631 -0.0209 -0.3015
   73loPI   C4B 1168   6.807   6.096   7.924 -0.0221 -0.2782 -0.0888
   74loPI    C1 1169   9.745  10.399  10.009  0.1291 -0.4095 -0.1927
   74loPI    C2 1170   9.583  10.036   9.972 -0.2349 -0.2468 -0.2413
   74loPI    C3 1171   9.528  10.246  10.308 -0.1573 -0.1724 -0.2745
   74loPI   PO4 1172   9.912  10.340   9.718  0.0019 -0.0609 -0.1918
   74loPI   GL1 1173   9.920  10.384   9.274 -0.0444  0.1252 -0.2989
   74loPI   GL2 1174   9.699  10.626   9.210 -0.2328 -0.1778 -0.2126
   74loPI   C1A 1175  10.194  10.562   9.047 -0.3221  0.1415 -0.1044
   74loPI   C2A 1176  10.136  10.541   8.539  0.0001 -0.2710  0.0183
   74loPI   C3A 1177  10.138  10.473   8.084  0.0433  0.0465  0.3465
   74loPI   C4A 1178  10.351  10.209   7.897 -0.0349 -0.0830  0.0549
   74loPI   C5A 1179  10.656   9.808   8.053  0.0245 -0.0358 -0.0195
   74loPI   C6A 1180  11.045   9.426   7.929 -0.1498 -0.1987  0.0305
   74loPI   C1B 1181   9.789  10.756   8.741  0.1972  0.0186  0.4113
   74loPI   C2B 1182   9.739  10.751   8.289 -0.0937  0.2019  0.1078
   74loPI   C3B 1183   9.570  10.956   8.043 -0.0225 -0.1880 -0.0182
   74loPI   C4B 1184   9.585  11.070   7.523 -0.0822 -0.2924  0.0335
   75loPI    C1 1185   7.885   9.182  10.070  0.1808  0.0351 -0.1921
   75loPI    C2 1186   7.894   9.570  10.166  0.0402 -0.0459  0.1640
   75loPI    C3 1187   8.183   9.326  10.294 -0.0147 -0.1088  0.1688
   75loPI   PO4 1188   7.863   9.156   9.811  0.2823  0.0312  0.0996
   75loPI   GL1 1189   8.034   9.036   9.489 -0.0446 -0.1661  0.0315
   75loPI   GL2 1190   8.319   8.925   9.426 -0.3694 -0.1775 -0.0033
   75loPI   C1A 1191   7.927   9.036   9.027 -0.4806  0.1960 -0.1050
   75loPI   C2A 1192   7.664   9.156   8.744  0.0007 -0.0300 -0.1498
   75loPI   C3A 1193   7.442   9.141   8.371  0.2140  0.1420 -0.1339
   75loPI   C4A 1194   7.385   9.100   7.923 -0.2746 -0.2121  0.0552
   75loPI   C5A 1195   7.458   9.127   7.553 -0.1891  0.0342 -0.3160
   75loPI   C6A 1196   7.532   8.955   7.224  0.0841 -0.0489  0.0401
   75loPI   C1B 1197   8.522   8.966   9.072 -0.0676 -0.2587 -0.0678
   75loPI   C2B 1198   8.504   8.935   8.611  0.0026 -0.0817  0.0620
   75loPI   C3B 1199   8.622   8.910   8.190  0.0270  0.0033 -0.1991
   75loPI   C4B 1200   8.662   9.246   7.863  0.1102 -0.2096  0.1554
   76loPI    C1 1201   7.420   0.817  10.225 -0.0586 -0.1753  0.0052
   76loPI    C2 1202   7.555   0.471  10.076  0.0319 -0.0365 -0.2422
   76loPI    C3 1203   7.788   0.691  10.316 -0.0046 -0.1184 -0.1308
   76loPI   PO4 1204   7.331   1.031   9.966  0.0602 -0.2042  0.0778
   76loPI   GL1 1205   7.012   0.824   9.628 -0.1279 -0.0759 -0.0122
   76loPI   GL2 1206   7.041   0.535   9.901 -0.2008 -0.0057 -0.0366
   76loPI   C1A 1207   7.002   0.732   9.197  0.0321 -0.2166  0.1134
   76loPI   C2A 1208   7.195   0.895   8.754 -0.0647 -0.0993 -0.1517
   76loPI   C3A 1209   7.370   1.075   8.383  0.0834 -0.0417 -0.1141
   76loPI   C4A 1210   7.422   1.339   8.031  0.1800  0.1074  0.1253
   76loPI   C5A 1211   7.724   1.503   7.719 -0.4057 -0.1061 -0.1635
   76loPI   C6A 1212   8.089   1.369   7.761  0.0640 -0.2678 -0.3559
   76loPI   C1B 1213   6.615   0.571   9.633  0.3721 -0.1989 -0.3406
   76loPI   C2B 1214   6.442   0.839   9.328  0.0256 -0.2525  0.0244
   76loPI   C3B 1215   5.970   0.875   9.465  0.4042  0.1263  0.2990
   76loPI   C4B 1216   5.605   0.700   9.612 -0.1770  0.0967 -0.1217
   77loPI    C1 1217  16.338  16.156  10.289 -0.0785 -0.0265  0.0689
   77loPI    C2 1218  16.237  15.838  10.068 -0.1077  0.1239 -0.1370
   77loPI    C3 1219  15.956  16.040  10.269 -0.0626 -0.0934  0.1498
   77loPI   PO4 1220  16.453  16.283  10.194 -0.1706  0.2477 -0.0583
   77loPI   GL1 1221  16.593  16.283   9.823  0.0145  0.3558  0.2654
   77loPI   GL2 1222  16.700  15.922   9.895  0.0731 -0.1352  0.0165
   77loPI   C1A 1223  16.605  16.315   9.365  0.2148 -0.1944 -0.0013
   77loPI   C2A 1224  16.468  16.648   9.052 -0.2560 -0.1373  0.3259
   77loPI   C3A 1225  16.353  16.933   8.705  0.2262  0.0640 -0.1206
   77loPI   C4A 1226  16.319  17.209   8.306  0.0224  0.0557 -0.1882
   77loPI   C5A 1227  16.266  17.283   7.868  0.1805 -0.0301  0.3926
   77loPI   C6A 1228  16.080  16.978   7.604  0.1765  0.1695  0.1553
   77loPI   C1B 1229  16.450  15.869   9.472 -0.0552 -0.2458 -0.0372
   77loPI   C2B 1230  16.438  15.763   9.095  0.1777 -0.3088 -0.1386
   77loPI   C3B 1231  16.482  15.817   8.707  0.0578  0.1860 -0.1909
   77loPI   C4B 1232  16.742  15.916   8.419 -0.1566  0.0933 -0.1448
   78loPI    C1 1233  13.808  17.604  10.476  0.1411  0.0984 -0.0809
   78loPI    C2 1234  13.821  17.250  10.291  0.1230  0.0813 -0.0501
   78loPI    C3 1235  13.491  17.360  10.490  0.0984  0.1504 -0.1285
   78loPI   PO4 1236  13.950  17.737  10.337  0.0484 -0.2798 -0.0029
   78loPI   GL1 1237  13.960  17.653   9.920 -0.1253  0.2288  0.0077
   78loPI   GL2 1238  14.213  17.461   9.737  0.3703  0.0462 -0.0681
   78loPI   C1A 1239  14.033  17.826   9.469 -0.2200  0.0276  0.2278
   78loPI   C2A 1240  14.081  17.800   9.043 -0.2790  0.2656 -0.0996
   78loPI   C3A 1241  14.130  17.738   8.660  0.0631 -0.2922  0.1809
   78loPI   C4A 1242  14.250  17.806   8.205 -0.0871  0.0254  0.0843
   78loPI   C5A 1243  14.282  17.843   7.805 -0.2704 -0.1222 -0.0873
   78loPI   C6A 1244  14.058  17.669   7.386 -0.1502  0.0739  0.0046
   78loPI   C1B 1245  14.382  17.458   9.243 -0.0010  0.0238  0.1046
   78loPI   C2B 1246  14.645  17.569   8.902  0.3008 -0.3059  0.0701
   78loPI   C3B 1247  14.656  17.596   8.401 -0.0335  0.2136 -0.1218
   78loPI   C4B 1248  14.793  17.635   7.988 -0.2759  0.0391 -0.3267
   79loPI    C1 1249  17.132   0.820  10.139  0.1409 -0.1696  0.0767
   79loPI    C2 1250  16.859   0.815  10.432  0.2460  0.4600  0.2005
   79loPI    C3 1251  17.235   0.699  10.506  0.1577  0.1531  0.1816
   79loPI   PO4 1252  17.132   1.098  10.068  0.1882 -0.0698  0.1132
   79loPI   GL1 1253  16.960   1.433   9.796  0.0166 -0.2639 -0.1310
   79loPI   GL2 1254  16.749   1.744   9.673  0.2208 -0.0622  0.1573
   79loPI   C1A 1255  17.042   1.367   9.284  0.2730 -0.1081 -0.1273
   79loPI   C2A 1256  17.056   1.385   8.846 -0.1931 -0.2127 -0.0372
   79loPI   C3A 1257  17.104   1.431   8.401 -0.2071 -0.1171 -0.3845
   79loPI   C4A 1258  17.189   1.519   8.081 -0.3755 -0.0478  0.1812
   79loPI   C5A 1259  17.509   1.495   7.847 -0.0586  0.3754 -0.1339
   79loPI   C6A 1260  17.644   1.107   7.842  0.0866  0.1366  0.0212
   79loPI   C1B 1261  16.683   1.845   9.324  0.2903 -0.0014  0.1994
   79loPI   C2B 1262  16.616   1.919   8.833  0.1655 -0.0021 -0.1211
   79loPI   C3B 1263  16.591   1.899   8.372  0.0019  0.0379 -0.1716
   79loPI   C4B 1264  16.606   1.710   7.883  0.1662  0.3251 -0.2986
   80loPI    C1 1265   4.784   5.053  10.063 -0.0876 -0.0967  0.0867
   80loPI    C2 1266   4.679   5.414  10.197  0.1907 -0.0494  0.1829
   80loPI    C3 1267   4.540   5.086  10.378  0.1663  0.0113  0.2750
   80loPI   PO4 1268   4.752   5.109   9.776 -0.0221 -0.0031 -0.1406
   80loPI   GL1 1269   4.909   5.030   9.371 -0.0608  0.1461  0.2245
   80loPI   GL2 1270   4.761   4.682   9.315 -0.6016  0.2628  0.0698
   80loPI   C1A 1271   4.728   5.276   9.026 -0.0041 -0.3753 -0.1717
   80loPI   C2A 1272   4.901   5.245   8.642  0.0307 -0.2422 -0.0671
   80loPI   C3A 1273   5.251   5.246   8.331  0.1464 -0.2491 -0.0481
   80loPI   C4A 1274   5.441   5.341   7.951 -0.2212  0.0954  0.1319
   80loPI   C5A 1275   5.259   5.480   7.598  0.0197  0.0334 -0.2209
   80loPI   C6A 1276   4.984   5.600   7.238  0.0821  0.1766 -0.0164
   80loPI   C1B 1277   4.661   4.828   8.986 -0.2954 -0.5390 -0.0234
   80loPI   C2B 1278   4.484   4.956   8.629 -0.0444 -0.0171 -0.0405
   80loPI   C3B 1279   4.663   5.020   8.137 -0.0447  0.0298 -0.0136
   80loPI   C4B 1280   4.625   4.807   7.664 -0.0698  0.0403  0.1539
   81loPI    C1 1281   0.579   2.317  10.309 -0.1252 -0.2447 -0.2056
   81loPI    C2 1282   0.877   2.103  10.468  0.0705  0.1232 -0.0648
   81loPI    C3 1283   0.498   2.014  10.557  0.1383 -0.2868 -0.1682
   81loPI   PO4 1284   0.681   2.316   9.966 -0.2551  0.2076 -0.0596
   81loPI   GL1 1285   0.591   2.111   9.554  0.1368 -0.1415 -0.0383
   81loPI   GL2 1286   0.813   1.898   9.493  0.1427 -0.5603  0.2657
   81loPI   C1A 1287   0.462   2.060   9.111  0.0242 -0.0226 -0.0966
   81loPI   C2A 1288   0.318   2.120   8.718 -0.3617 -0.1859  0.1933
   81loPI   C3A 1289   0.190   2.432   8.465 -0.0150  0.2241  0.0559
   81loPI   C4A 1290   0.038   2.725   8.159  0.1714  0.0153  0.1962
   81loPI   C5A 1291   0.064   2.943   7.867 -0.0793  0.2320 -0.0205
   81loPI   C6A 1292   0.281   3.236   7.590  0.0901  0.0962  0.2641
   81loPI   C1B 1293   0.886   1.844   9.046 -0.1440 -0.1195 -0.0274
   81loPI   C2B 1294   0.669   1.639   8.576 -0.0382 -0.2618  0.2489
   81loPI   C3B 1295   0.607   1.628   8.183  0.1777  0.1161 -0.0107
   81loPI   C4B 1296   0.530   1.436   7.852  0.0653 -0.1236  0.3500
   82loPI    C1 1297  11.347  11.218  10.360  0.0431 -0.3126  0.1199
   82loPI    C2 1298  11.146  11.387  10.661  0.1422  0.3823 -0.1843
   82loPI    C3 1299  10.951  11.172  10.386 -0.0214  0.1722  0.0909
   82loPI   PO4 1300  11.489  11.405  10.171  0.1094 -0.0456  0.0271
   82loPI   GL1 1301  11.402  11.526   9.755 -0.2054 -0.2962 -0.0120
   82loPI   GL2 1302  11.673  11.510   9.682  0.5450 -0.0522 -0.0636
   82loPI   C1A 1303  11.382  11.863   9.439 -0.0464  0.3273  0.0472
   82loPI   C2A 1304  11.402  11.791   9.043  0.2588 -0.0278  0.0867
   82loPI   C3A 1305  11.535  11.719   8.665  0.1942  0.3540 -0.1406
   82loPI   C4A 1306  11.472  11.845   8.302  0.0251  0.3285  0.1082
   82loPI   C5A 1307  11.353  12.041   7.909 -0.0506  0.3065  0.0565
   82loPI   C6A 1308  11.114  12.055   7.574 -0.2109 -0.1117 -0.1589
   82loPI   C1B 1309  11.465  11.287   9.267 -0.0032 -0.1255 -0.0560
   82loPI   C2B 1310  11.237  11.326   8.857 -0.0920 -0.0468 -0.2523
   82loPI   C3B 1311  11.390  11.254   8.475 -0.0727  0.0818 -0.3180
   82loPI   C4B 1312  11.269  11.329   8.052 -0.0532 -0.1044 -0.1762
   83loPI    C1 1313  11.279  13.496  10.695  0.0492  0.1075 -0.1004
   83loPI    C2 1314  11.090  13.602  11.031  0.0864  0.0394 -0.0577
   83loPI    C3 1315  10.996  13.259  10.849 -0.0024  0.1232 -0.1710
   83loPI   PO4 1316  11.338  13.715  10.542  0.1043  0.2693  0.1593
   83loPI   GL1 1317  11.654  13.576  10.131  0.0551 -0.3119 -0.3035
   83loPI   GL2 1318  11.384  13.823  10.052  0.0549 -0.1228  0.3592
   83loPI   C1A 1319  11.897  13.523   9.680 -0.1956 -0.1495 -0.0587
   83loPI   C2A 1320  12.117  13.560   9.289  0.3766  0.0984 -0.1724
   83loPI   C3A 1321  12.451  13.516   8.992  0.1239  0.0229  0.1671
   83loPI   C4A 1322  12.527  13.467   8.625 -0.0681  0.6138  0.2692
   83loPI   C5A 1323  12.326  13.401   8.256 -0.2331 -0.1549  0.2183
   83loPI   C6A 1324  12.129  13.500   7.815  0.0900  0.1610  0.2463
   83loPI   C1B 1325  11.361  13.646   9.628  0.0927  0.0443  0.0833
   83loPI   C2B 1326  11.297  13.440   9.216 -0.0744  0.2184  0.3769
   83loPI   C3B 1327  11.180  13.711   8.884 -0.0590  0.3272  0.1520
   83loPI   C4B 1328  11.214  13.839   8.485 -0.0800 -0.1252  0.1980
   84loPI    C1 1329  11.499   2.718   9.996  0.0008  0.1553  0.2226
   84loPI    C2 1330  11.391   2.349  10.106 -0.0279  0.0622 -0.1057
   84loPI    C3 1331  11.491   2.620  10.384 -0.6162  0.0025  0.1804
   84loPI   PO4 1332  11.576   2.810   9.781 -0.0518  0.0818 -0.0203
   84loPI   GL1 1333  11.886   3.096   9.428  0.0666 -0.0055 -0.0195
   84loPI   GL2 1334  12.064   3.136   9.273  0.2682 -0.3523  0.3314
   84loPI   C1A 1335  11.612   3.094   9.119  0.0511 -0.1054  0.0852
   84loPI   C2A 1336  11.671   2.994   8.708 -0.1756 -0.3279  0.3711
   84loPI   C3A 1337  11.671   2.916   8.211  0.0460  0.0528 -0.1574
   84loPI   C4A 1338  11.579   3.053   7.772  0.0899 -0.0390 -0.0925
   84loPI   C5A 1339  11.579   3.243   7.358 -0.0810  0.1820  0.3457
   84loPI   C6A 1340  11.656   3.421   6.876  0.1142 -0.2268  0.0024
   84loPI   C1B 1341  12.196   3.242   8.880  0.1164 -0.4567 -0.0356
   84loPI   C2B 1342  12.104   3.190   8.407 -0.1477 -0.3636  0.1370
   84loPI   C3B 1343  11.919   3.388   8.070  0.2923  0.1679  0.1280
   84loPI   C4B 1344  11.837   3.670   7.640 -0.1818 -0.0422  0.2176
   85loPI    C1 1345  14.251  11.787  10.560 -0.1524 -0.0759  0.1680
   85loPI    C2 1346  14.522  12.020  10.739  0.0048  0.0981 -0.2799
   85loPI    C3 1347  14.546  11.622  10.773 -0.0314  0.1280  0.1609
   85loPI   PO4 1348  14.123  11.940  10.403  0.4032 -0.2776  0.1542
   85loPI   GL1 1349  14.137  12.315  10.066 -0.3109  0.0455 -0.2150
   85loPI   GL2 1350  14.434  12.514   9.854 -0.3812  0.0703 -0.2558
   85loPI   C1A 1351  13.960  12.277   9.656  0.1259 -0.2768  0.2598
   85loPI   C2A 1352  14.001  12.157   9.197 -0.2885  0.0142 -0.3118
   85loPI   C3A 1353  14.024  12.280   8.739 -0.3524 -0.1231  0.0483
   85loPI   C4A 1354  13.997  12.314   8.328  0.1288  0.0795 -0.0424
   85loPI   C5A 1355  14.070  12.456   7.863 -0.0128  0.1145  0.0909
   85loPI   C6A 1356  13.716  12.627   7.677 -0.1556  0.1331 -0.0636
   85loPI   C1B 1357  14.489  12.518   9.407 -0.1532  0.0636  0.0185
   85loPI   C2B 1358  14.698  12.537   9.079  0.0240 -0.1959  0.1428
   85loPI   C3B 1359  14.889  12.518   8.745  0.1231  0.0520 -0.1743
   85loPI   C4B 1360  14.985  12.264   8.358  0.4177 -0.0163  0.1172
   86loPI    C1 1361   6.906  14.901  10.105  0.1378 -0.0569 -0.0318
   86loPI    C2 1362   6.507  14.886  10.131  0.1366  0.0504  0.0197
   86loPI    C3 1363   6.726  14.953  10.459  0.2019 -0.0921  0.0061
   86loPI   PO4 1364   6.997  14.700   9.945 -0.0938 -0.2305 -0.2524
   86loPI   GL1 1365   6.981  14.515   9.542  0.2946  0.1015  0.0537
   86loPI   GL2 1366   6.696  14.752   9.472 -0.0517 -0.0073 -0.0561
   86loPI   C1A 1367   7.079  14.614   9.155  0.3132 -0.1121  0.1383
   86loPI   C2A 1368   6.948  14.681   8.774 -0.1568 -0.0174  0.0133
   86loPI   C3A 1369   6.981  14.572   8.388 -0.0930  0.5091  0.1549
   86loPI   C4A 1370   6.891  14.573   7.942 -0.2517 -0.0122 -0.0432
   86loPI   C5A 1371   7.056  14.867   7.768 -0.1388 -0.2041 -0.0189
   86loPI   C6A 1372   7.007  15.176   7.390 -0.1166  0.0168  0.1542
   86loPI   C1B 1373   6.689  15.003   9.148  0.3436  0.0039  0.1919
   86loPI   C2B 1374   6.612  15.013   8.659  0.2107 -0.1945 -0.0543
   86loPI   C3B 1375   6.421  15.305   8.243  0.1927  0.0670 -0.1554
   86loPI   C4B 1376   6.407  15.262   7.802 -0.0064  0.1727 -0.1950
   87loPI    C1 1377  13.686  12.790  10.676  0.0656 -0.0358  0.1198
   87loPI    C2 1378  13.754  12.503  10.405 -0.2217 -0.0604  0.0712
   87loPI    C3 1379  13.865  12.450  10.786 -0.1241 -0.1668  0.0282
   87loPI   PO4 1380  13.842  13.008  10.499  0.2196  0.1577  0.1592
   87loPI   GL1 1381  13.750  13.096  10.109 -0.2821 -0.1029  0.0299
   87loPI   GL2 1382  13.980  13.309   9.886 -0.0953 -0.2185 -0.3312
   87loPI   C1A 1383  13.706  12.965   9.677  0.1149  0.2116 -0.0072
   87loPI   C2A 1384  14.014  12.817   9.439 -0.2863  0.0792  0.3041
   87loPI   C3A 1385  14.215  12.587   9.039 -0.3326  0.0380 -0.0096
   87loPI   C4A 1386  14.412  12.566   8.661  0.1238  0.0368  0.3840
   87loPI   C5A 1387  14.488  12.192   8.489  0.0517 -0.4536 -0.0386
   87loPI   C6A 1388  14.602  11.843   8.527 -0.2572 -0.1695  0.2145
   87loPI   C1B 1389  13.979  13.326   9.459  0.2600 -0.3305 -0.1486
   87loPI   C2B 1390  13.960  13.459   9.074  0.1018  0.0541  0.2534
   87loPI   C3B 1391  14.045  13.302   8.650 -0.2253 -0.3324  0.0065
   87loPI   C4B 1392  13.864  13.267   8.205 -0.0408 -0.0617 -0.0667
   88loPI    C1 1393  13.198  14.447  10.298  0.1598 -0.0169  0.0833
   88loPI    C2 1394  12.798  14.466  10.289  0.1353 -0.2699  0.4282
   88loPI    C3 1395  13.001  14.659  10.574  0.2859  0.1263  0.0647
   88loPI   PO4 1396  13.302  14.445  10.096 -0.1278 -0.0330 -0.1532
   88loPI   GL1 1397  13.168  14.714   9.737 -0.1324  0.1698 -0.2470
   88loPI   GL2 1398  12.901  14.649   9.866 -0.0571  0.0301  0.1084
   88loPI   C1A 1399  13.184  14.592   9.329 -0.5189  0.1314  0.0129
   88loPI   C2A 1400  13.284  14.719   8.952  0.0543 -0.2582 -0.0142
   88loPI   C3A 1401  13.419  14.616   8.556 -0.2218  0.0574 -0.1955
   88loPI   C4A 1402  13.343  14.406   8.253  0.0551  0.2925 -0.0057
   88loPI   C5A 1403  13.111  14.007   8.312  0.1663  0.1264  0.1351
   88loPI   C6A 1404  12.810  13.634   8.201  0.1494 -0.2050 -0.1181
   88loPI   C1B 1405  12.696  14.809   9.553 -0.0356 -0.0323 -0.1748
   88loPI   C2B 1406  12.461  14.592   9.185  0.2858  0.0521  0.0009
   88loPI   C3B 1407  12.399  14.459   8.731 -0.0549  0.4448  0.1497
   88loPI   C4B 1408  12.531  14.434   8.359 -0.1941  0.2263 -0.1042
   89loPI    C1 1409   1.764   0.485  10.027  0.0412 -0.1867  0.0269
   89loPI    C2 1410   1.566   0.475  10.374  0.2256  0.3628  0.1582
   89loPI    C3 1411   1.955   0.567  10.368  0.2884  0.0970 -0.1744
   89loPI   PO4 1412   1.530   0.645   9.831 -0.1100 -0.0295  0.0965
   89loPI   GL1 1413   1.635   0.797   9.463 -0.1719  0.2233  0.1001
   89loPI   GL2 1414   1.673   1.139   9.409  0.0922  0.2240  0.2853
   89loPI   C1A 1415   1.568   0.723   9.081  0.0162 -0.0266 -0.0938
   89loPI   C2A 1416   1.363   0.574   8.624 -0.1770  0.0647  0.2833
   89loPI   C3A 1417   1.140   0.206   8.512  0.0552 -0.1054  0.1005
   89loPI   C4A 1418   1.119  -0.090   8.233 -0.2096 -0.2773  0.0048
   89loPI   C5A 1419   1.065  -0.515   8.305  0.0842  0.2166 -0.0992
   89loPI   C6A 1420   0.835  -0.664   8.608 -0.0734  0.2749 -0.0360
   89loPI   C1B 1421   1.671   1.240   9.084  0.3343  0.0559  0.2044
   89loPI   C2B 1422   1.994   1.114   8.821 -0.0848  0.2209 -0.0550
   89loPI   C3B 1423   2.243   1.058   8.477  0.0036 -0.0498  0.2795
   89loPI   C4B 1424   2.291   1.104   8.086  0.0664  0.1337  0.1939
   90loPI    C1 1425   2.103  10.787  10.352  0.0630  0.0708 -0.1634
   90loPI    C2 1426   2.234  10.688   9.987  0.2241 -0.0577 -0.0719
   90loPI    C3 1427   2.318  10.454  10.300 -0.1042 -0.0668  0.0124
   90loPI   PO4 1428   2.019  11.105  10.259  0.1465  0.0858  0.0807
   90loPI   GL1 1429   1.973  11.146   9.810 -0.3202  0.2169  0.0561
   90loPI   GL2 1430   2.145  11.346   9.567  0.1470  0.0856 -0.0637
   90loPI   C1A 1431   2.208  10.892   9.478  0.1607 -0.1817  0.1555
   90loPI   C2A 1432   2.473  10.554   9.103  0.0645 -0.1253 -0.1674
   90loPI   C3A 1433   2.460  10.603   8.691 -0.0001 -0.2427  0.1475
   90loPI   C4A 1434   2.443  10.735   8.219 -0.0796  0.0211  0.1865
   90loPI   C5A 1435   2.576  10.560   7.757 -0.1757 -0.0109 -0.3305
   90loPI   C6A 1436   2.692  10.609   7.282  0.0216  0.0844 -0.2271
   90loPI   C1B 1437   2.435  11.493   9.240  0.1580 -0.0800 -0.2449
   90loPI   C2B 1438   2.711  11.543   8.876  0.1364 -0.0493  0.1585
   90loPI   C3B 1439   2.612  11.471   8.507  0.0681  0.1541 -0.1200
   90loPI   C4B 1440   2.477  11.674   8.166  0.0776  0.1017 -0.0094
   91loPI    C1 1441   5.003  18.231  10.228 -0.2105  0.1243 -0.2013
   91loPI    C2 1442   4.766  18.056   9.957 -0.2366 -0.0649 -0.0591
   91loPI    C3 1443   4.780  17.915  10.330  0.0654 -0.0259 -0.0530
   91loPI   PO4 1444   4.958  18.488  10.247 -0.3482  0.2042 -0.2545
   91loPI   GL1 1445   5.066  18.698   9.986 -0.5946  0.2310 -0.1088
   91loPI   GL2 1446   5.170  18.389   9.725 -0.3270  0.0420  0.2125
   91loPI   C1A 1447   4.983  18.811   9.591  0.0154 -0.4159 -0.2795
   91loPI   C2A 1448   4.844  18.809   9.143 -0.1812  0.0790  0.0553
   91loPI   C3A 1449   4.619  18.787   8.853  0.2039 -0.3177 -0.1787
   91loPI   C4A 1450   4.202  18.843   8.716 -0.0079  0.1052 -0.1706
   91loPI   C5A 1451   3.904  18.959   8.395  0.2420 -0.1494  0.1633
   91loPI   C6A 1452   3.610  19.222   8.351 -0.0887 -0.3887 -0.0416
   91loPI   C1B 1453   5.163  18.460   9.272  0.0663 -0.3275 -0.3721
   91loPI   C2B 1454   5.397  18.527   8.965  0.1286  0.3615  0.0869
   91loPI   C3B 1455   5.562  18.550   8.565  0.7047 -0.2926 -0.0641
   91loPI   C4B 1456   5.553  18.448   8.214 -0.2484 -0.0823 -0.1264
   92loPI    C1 1457   8.694   9.486  10.172 -0.0377 -0.0566 -0.1198
   92loPI    C2 1458   8.993   9.224  10.125  0.0241 -0.0707  0.3121
   92loPI    C3 1459   8.673   9.126  10.345 -0.2402 -0.0047 -0.0336
   92loPI   PO4 1460   8.779   9.655   9.867  0.1840 -0.1245 -0.1528
   92loPI   GL1 1461   9.135   9.688   9.584  0.0751  0.0649  0.1072
   92loPI   GL2 1462   9.484   9.773   9.545 -0.0332 -0.0526 -0.1366
   92loPI   C1A 1463   9.028   9.974   9.165  0.1326 -0.1834  0.1410
   92loPI   C2A 1464   9.322  10.201   8.991 -0.2889 -0.0803 -0.0133
   92loPI   C3A 1465   9.420  10.368   8.620 -0.0366 -0.2895  0.2045
   92loPI   C4A 1466   9.363  10.391   8.225 -0.2865 -0.1457 -0.3533
   92loPI   C5A 1467   9.085  10.352   7.965 -0.0242 -0.1191 -0.0102
   92loPI   C6A 1468   9.174  10.212   7.633 -0.0238 -0.3863  0.0516
   92loPI   C1B 1469   9.491   9.656   9.139 -0.2171 -0.1518 -0.0841
   92loPI   C2B 1470   9.616   9.588   8.758  0.1992 -0.1404  0.1312
   92loPI   C3B 1471   9.672   9.625   8.391  0.0242 -0.0688  0.3640
   92loPI   C4B 1472   9.519   9.426   8.049 -0.1409 -0.0921 -0.0208
   93loPI    C1 1473   4.309   5.275   9.647  0.0713 -0.0473 -0.0603
   93loPI    C2 1474   4.374   4.968   9.399 -0.2327  0.0932 -0.3227
   93loPI    C3 1475   4.062   4.960   9.649 -0.0887  0.0759 -0.1410
   93loPI   PO4 1476   4.306   5.472   9.452  0.0549  0.1309 -0.0483
   93loPI   GL1 1477   4.211   5.331   9.109 -0.2179  0.4170 -0.2712
   93loPI   GL2 1478   3.915   5.222   9.272 -0.2539 -0.3731 -0.1647
   93loPI   C1A 1479   3.958   5.131   8.759 -0.4928  0.2914  0.0086
   93loPI   C2A 1480   3.766   4.864   8.389  0.1673  0.3098 -0.1587
   93loPI   C3A 1481   3.793   4.632   8.040  0.0491 -0.3322 -0.1997
   93loPI   C4A 1482   3.680   4.454   7.692 -0.0418 -0.2510 -0.1342
   93loPI   C5A 1483   3.584   4.062   7.487 -0.0774  0.0055 -0.1745
   93loPI   C6A 1484   3.742   3.866   7.163  0.0782  0.0226 -0.2134
   93loPI   C1B 1485   3.567   5.144   9.006 -0.1941 -0.3524 -0.1432
   93loPI   C2B 1486   3.315   5.097   8.617  0.1767  0.0460 -0.1150
   93loPI   C3B 1487   3.019   5.055   8.253  0.1141 -0.1460 -0.1334
   93loPI   C4B 1488   2.728   5.137   7.801  0.1205 -0.2562 -0.2027
   94loPI    C1 1489  15.657  11.144  10.177 -0.0511 -0.0647  0.2021
   94loPI    C2 1490  15.956  10.894  10.266 -0.0202 -0.1121 -0.0283
   94loPI    C3 1491  15.974  11.276  10.382  0.1635 -0.0974 -0.1008
   94loPI   PO4 1492  15.372  10.926  10.158 -0.3080  0.0860 -0.1786
   94loPI   GL1 1493  15.031  10.717   9.933 -0.1395 -0.1119 -0.1388
   94loPI   GL2 1494  14.686  10.549   9.903 -0.2415 -0.2287  0.1534
   94loPI   C1A 1495  15.084  10.414   9.630 -0.0200  0.3901  0.0060
   94loPI   C2A 1496  15.146  10.465   9.194 -0.0630  0.2296 -0.0041
   94loPI   C3A 1497  15.096  10.179   8.782 -0.1472 -0.0115 -0.2975
   94loPI   C4A 1498  15.197   9.718   8.463 -0.3418 -0.0129  0.0420
   94loPI   C5A 1499  15.257   9.349   8.275 -0.3068  0.1359 -0.0149
   94loPI   C6A 1500  15.149   8.969   8.068  0.0577  0.0146  0.0781
   94loPI   C1B 1501  14.673  10.671   9.427 -0.0533 -0.2464 -0.1072
   94loPI   C2B 1502  14.591  10.603   9.096 -0.1306  0.0746 -0.2342
   94loPI   C3B 1503  14.702  10.558   8.759  0.2363  0.0306 -0.1656
   94loPI   C4B 1504  14.913  10.311   8.348  0.2841 -0.0036 -0.0556
   95loPI    C1 1505  10.000   8.840   9.888  0.1485  0.1281  0.0799
   95loPI    C2 1506   9.747   8.729  10.177 -0.1009  0.0355 -0.1698
   95loPI    C3 1507   9.880   8.459   9.913 -0.1071  0.1763 -0.3184
   95loPI   PO4 1508   9.813   9.057   9.793  0.0772 -0.0856 -0.0780
   95loPI   GL1 1509   9.669   9.211   9.407 -0.0200 -0.3515  0.1762
   95loPI   GL2 1510   9.373   9.203   9.510 -0.2586  0.1078  0.2369
   95loPI   C1A 1511   9.871   8.811   9.100 -0.0863 -0.2377 -0.0786
   95loPI   C2A 1512   9.940   8.689   8.699 -0.0307 -0.0875  0.3315
   95loPI   C3A 1513  10.127   8.730   8.280 -0.1468 -0.0045  0.0796
   95loPI   C4A 1514  10.457   8.988   8.041 -0.1277 -0.1305  0.3106
   95loPI   C5A 1515  10.427   9.379   7.803 -0.0993 -0.1380  0.4371
   95loPI   C6A 1516  10.176   9.766   7.741 -0.4724 -0.0511 -0.0395
   95loPI   C1B 1517   9.481   9.133   8.986 -0.2584 -0.0186  0.2642
   95loPI   C2B 1518   9.571   8.994   8.605 -0.1933  0.1863  0.2700
   95loPI   C3B 1519   9.606   8.885   8.108 -0.1006  0.0184 -0.1649
   95loPI   C4B 1520   9.992   8.755   7.753 -0.0336  0.1043 -0.0536
   96loPI    C1 1521   7.978  10.596  10.184  0.1807 -0.0123  0.1359
   96loPI    C2 1522   7.932  10.201  10.149  0.2392  0.0082 -0.2066
   96loPI    C3 1523   8.174  10.350  10.431 -0.0834 -0.1811  0.1808
   96loPI   PO4 1524   7.922  10.582   9.827 -0.4434  0.1167  0.0535
   96loPI   GL1 1525   8.087  10.327   9.354  0.1981  0.0134 -0.2151
   96loPI   GL2 1526   8.415  10.363   9.451 -0.1396 -0.3345  0.5436
   96loPI   C1A 1527   7.938  10.379   8.962  0.1064 -0.1352 -0.1399
   96loPI   C2A 1528   7.935  10.547   8.622 -0.3049  0.1339 -0.0716
   96loPI   C3A 1529   7.941  10.387   8.283  0.2619 -0.1662 -0.2532
   96loPI   C4A 1530   7.869  10.336   7.847 -0.2289 -0.0202  0.2004
   96loPI   C5A 1531   7.636  10.594   7.542 -0.3700  0.0791 -0.0319
   96loPI   C6A 1532   7.531  10.994   7.313 -0.1825  0.2952 -0.1074
   96loPI   C1B 1533   8.460  10.162   8.961 -0.0809  0.2561 -0.3970
   96loPI   C2B 1534   8.136  10.054   8.665  0.1711 -0.1358 -0.2176
   96loPI   C3B 1535   8.031   9.821   8.335  0.0828 -0.2148 -0.1014
   96loPI   C4B 1536   8.120   9.624   7.960  0.2078  0.1210 -0.0870
   97loPI    C1 1537   6.396   8.243   9.568 -0.1084  0.0225  0.0396
   97loPI    C2 1538   6.026   8.164   9.439 -0.0769 -0.0959  0.0202
   97loPI    C3 1539   6.084   8.287   9.815 -0.1615  0.1790 -0.0540
   97loPI   PO4 1540   6.560   8.380   9.332 -0.1544 -0.0772  0.0359
   97loPI   GL1 1541   6.453   8.597   9.113  0.0295 -0.0027 -0.1983
   97loPI   GL2 1542   6.140   8.457   9.038 -0.0361 -0.0287  0.0189
   97loPI   C1A 1543   6.471   8.713   8.651 -0.1504 -0.0809  0.0944
   97loPI   C2A 1544   6.595   8.822   8.227 -0.0276  0.0937  0.0623
   97loPI   C3A 1545   6.480   8.851   7.757  0.1743 -0.3020 -0.5134
   97loPI   C4A 1546   6.232   8.758   7.446 -0.3812  0.1551 -0.0082
   97loPI   C5A 1547   5.898   8.531   7.459  0.3037  0.2358 -0.2542
   97loPI   C6A 1548   5.748   8.375   7.826  0.2702  0.0399 -0.1049
   97loPI   C1B 1549   6.076   8.385   8.604  0.1328 -0.0814 -0.1389
   97loPI   C2B 1550   6.160   8.159   8.212 -0.3640  0.0063 -0.1543
   97loPI   C3B 1551   6.246   7.826   7.857 -0.0518 -0.1723  0.2403
   97loPI   C4B 1552   6.472   7.650   7.547 -0.4246  0.1279  0.2498
   98loPI    C1 1553   1.335  10.068  10.111 -0.0878 -0.0426 -0.1173
   98loPI    C2 1554   1.637   9.809  10.155  0.0758  0.1620 -0.0189
   98loPI    C3 1555   1.422   9.923  10.473 -0.0205  0.1189 -0.0678
   98loPI   PO4 1556   1.484  10.263   9.952 -0.2086  0.3495 -0.0798
   98loPI   GL1 1557   1.764  10.436   9.588  0.0750 -0.1773 -0.0549
   98loPI   GL2 1558   1.739  10.040   9.589 -0.0777  0.0801  0.0089
   98loPI   C1A 1559   1.966  10.578   9.112 -0.1886 -0.0308  0.4101
   98loPI   C2A 1560   1.908  10.813   8.777  0.0762 -0.1098  0.0498
   98loPI   C3A 1561   1.866  10.854   8.217  0.0106  0.2763  0.0120
   98loPI   C4A 1562   1.892  10.903   7.718 -0.3121 -0.1363  0.2290
   98loPI   C5A 1563   1.722  10.985   7.388  0.0879  0.1737  0.2451
   98loPI   C6A 1564   1.623  11.200   7.060  0.0292 -0.0451 -0.1882
   98loPI   C1B 1565   1.980  10.080   9.204 -0.0996  0.0608 -0.0609
   98loPI   C2B 1566   2.165  10.186   8.919  0.1045  0.1919 -0.1663
   98loPI   C3B 1567   2.330  10.073   8.573  0.2874  0.1312 -0.0978
   98loPI   C4B 1568   2.649  10.242   8.359  0.4653 -0.1179 -0.0430
   99loPI    C1 1569   7.974  16.074   9.634 -0.0688 -0.1972 -0.1630
   99loPI    C2 1570   8.252  15.953   9.894  0.0591  0.0848 -0.1640
   99loPI    C3 1571   7.865  15.892   9.973  0.0905  0.2654  0.1469
   99loPI   PO4 1572   7.949  16.195   9.437  0.1397 -0.2411  0.3756
   99loPI   GL1 1573   7.737  16.100   9.104  0.0304  0.1155  0.0023
   99loPI   GL2 1574   7.695  16.491   9.063  0.0517  0.0652 -0.2209
   99loPI   C1A 1575   7.614  16.132   8.769 -0.4276  0.0792 -0.5921
   99loPI   C2A 1576   7.459  16.200   8.309  0.1052 -0.0354  0.3063
   99loPI   C3A 1577   7.306  16.340   7.957 -0.1430  0.0121 -0.0676
   99loPI   C4A 1578   7.390  16.528   7.555 -0.0406  0.0904 -0.2944
   99loPI   C5A 1579   7.565  16.612   7.239  0.3857 -0.0703 -0.0454
   99loPI   C6A 1580   7.395  16.475   6.853  0.1256  0.0193  0.3253
   99loPI   C1B 1581   7.587  16.591   8.636  0.0011  0.1608  0.1065
   99loPI   C2B 1582   7.551  16.838   8.304 -0.0840  0.1089 -0.0284
   99loPI   C3B 1583   7.480  16.935   7.843  0.2673  0.0025  0.2121
   99loPI   C4B 1584   7.461  17.085   7.429 -0.2074 -0.0304 -0.0690
  100loPI    C1 1585   0.825  13.779  10.986  0.0552  0.1087 -0.3418
  100loPI    C2 1586   1.221  13.833  11.004  0.0058  0.3516  0.2100
  100loPI    C3 1587   0.976  14.079  11.203 -0.4042 -0.0306  0.1939
  100loPI   PO4 1588   0.842  13.772  10.617 -0.1720 -0.4563  0.2713
  100loPI   GL1 1589   0.838  13.553  10.138  0.2150 -0.0902  0.0661
  100loPI   GL2 1590   1.139  13.751  10.071  0.2902  0.0553  0.0610
  100loPI   C1A 1591   0.772  13.446   9.734 -0.1638 -0.1844 -0.3556
  100loPI   C2A 1592   0.774  13.543   9.272  0.0255 -0.1035 -0.2638
  100loPI   C3A 1593   1.068  13.465   8.954  0.0071  0.2429  0.2059
  100loPI   C4A 1594   0.990  13.499   8.452  0.1885 -0.4425 -0.2422
  100loPI   C5A 1595   0.763  13.844   8.205 -0.2978 -0.1368  0.2164
  100loPI   C6A 1596   0.993  14.119   7.991  0.2126 -0.3624 -0.0375
  100loPI   C1B 1597   0.912  13.964   9.798  0.3797  0.4327  0.2218
  100loPI   C2B 1598   0.865  14.136   9.449 -0.0961  0.2793  0.3484
  100loPI   C3B 1599   0.855  13.992   9.046 -0.0538  0.0173 -0.3248
  100loPI   C4B 1600   0.882  13.930   8.639 -0.0946 -0.0604 -0.0578
  101loPI    C1 1601   5.240   4.544   9.640 -0.1843  0.1267 -0.1622
  101loPI    C2 1602   4.988   4.553   9.952 -0.0667  0.3928 -0.0724
  101loPI    C3 1603   4.911   4.316   9.639 -0.2561  0.2251  0.0989
  101loPI   PO4 1604   5.261   4.713   9.518 -0.0240  0.1422  0.1538
  101loPI   GL1 1605   5.521   4.931   9.206 -0.0749  0.0827  0.0256
  101loPI   GL2 1606   5.774   4.813   9.226 -0.0093 -0.2915  0.4242
  101loPI   C1A 1607   5.212   4.828   8.860  0.1471 -0.0585  0.2396
  101loPI   C2A 1608   5.019   4.703   8.530  0.0879 -0.2950  0.2595
  101loPI   C3A 1609   4.985   4.646   8.176 -0.2801  0.0739 -0.3215
  101loPI   C4A 1610   4.930   4.389   7.834  0.2496 -0.3317  0.1276
  101loPI   C5A 1611   5.013   4.112   7.520  0.1449 -0.0998  0.1036
  101loPI   C6A 1612   5.031   4.053   7.091  0.2814  0.0807 -0.0891
  101loPI   C1B 1613   5.727   4.806   8.727 -0.1153  0.3630  0.1879
  101loPI   C2B 1614   5.509   4.831   8.304 -0.3533 -0.0644  0.2857
  101loPI   C3B 1615   5.419   4.752   7.948  0.1182  0.1694  0.2531
  101loPI   C4B 1616   5.108   4.946   7.706  0.0409  0.0144 -0.2740
  102loPI    C1 1617  16.218   8.189   9.943  0.1247 -0.1158 -0.1079
  102loPI    C2 1618  16.089   7.811   9.943  0.1387 -0.1217  0.1171
  102loPI    C3 1619  16.451   7.899  10.089  0.2210 -0.0486 -0.1268
  102loPI   PO4 1620  16.205   8.284   9.716 -0.0852 -0.1107 -0.4168
  102loPI   GL1 1621  16.089   8.299   9.404 -0.0323 -0.0772 -0.0241
  102loPI   GL2 1622  15.987   8.663   9.428 -0.1952 -0.0509  0.1909
  102loPI   C1A 1623  16.021   8.413   8.996  0.2038 -0.2480 -0.2514
  102loPI   C2A 1624  16.010   8.485   8.533  0.1135  0.3825 -0.1239
  102loPI   C3A 1625  16.078   8.432   8.047 -0.1438 -0.0726  0.0466
  102loPI   C4A 1626  16.241   8.675   7.607  0.0736 -0.3262  0.0110
  102loPI   C5A 1627  16.456   9.023   7.423  0.1503  0.2214  0.0663
  102loPI   C6A 1628  16.540   9.038   6.980 -0.1426  0.0215  0.1493
  102loPI   C1B 1629  15.655   8.678   9.294 -0.3339 -0.0164 -0.3804
  102loPI   C2B 1630  15.212   8.764   9.127  0.0901  0.0550 -0.1641
  102loPI   C3B 1631  14.949   8.982   9.191  0.1400  0.1948  0.0103
  102loPI   C4B 1632  14.698   9.255   9.373 -0.0182 -0.2015 -0.0953
  103loPI    C1 1633   4.677  10.093   9.743 -0.0304  0.0173 -0.1675
  103loPI    C2 1634   4.706   9.708   9.847  0.1158  0.1101  0.1465
  103loPI    C3 1635   4.835   9.993  10.096 -0.0279  0.3658 -0.0662
  103loPI   PO4 1636   4.734  10.043   9.464  0.0716  0.1396  0.1790
  103loPI   GL1 1637   4.673  10.279   9.074  0.0445  0.2133  0.1274
  103loPI   GL2 1638   4.310  10.344   9.046  0.2176 -0.0454  0.0378
  103loPI   C1A 1639   4.978  10.110   8.807 -0.2441 -0.1789 -0.1281
  103loPI   C2A 1640   5.080  10.107   8.321 -0.1482  0.2485 -0.3171
  103loPI   C3A 1641   5.190  10.219   7.877 -0.2758  0.1396 -0.2744
  103loPI   C4A 1642   5.237  10.297   7.508 -0.3338  0.3480  0.0209
  103loPI   C5A 1643   5.561  10.331   7.243 -0.0684  0.1795 -0.2407
  103loPI   C6A 1644   5.508  10.282   6.840  0.1117 -0.0555  0.2540
  103loPI   C1B 1645   4.353  10.732   8.788 -0.3625 -0.2837 -0.0347
  103loPI   C2B 1646   4.155  10.885   8.354  0.1785 -0.0047 -0.2080
  103loPI   C3B 1647   3.953  10.896   7.946  0.0308 -0.0235  0.0729
  103loPI   C4B 1648   3.890  10.704   7.557  0.0224  0.2340  0.2262
  104loPI    C1 1649   4.970   7.983  10.060  0.0482 -0.1022 -0.1044
  104loPI    C2 1650   5.313   7.797  10.149 -0.1265 -0.3095  0.1511
  104loPI    C3 1651   5.178   8.092  10.384 -0.0001 -0.0566 -0.0885
  104loPI   PO4 1652   4.960   8.065   9.750 -0.0125  0.1128  0.0885
  104loPI   GL1 1653   4.982   8.096   9.337  0.1200 -0.2423  0.0345
  104loPI   GL2 1654   5.272   8.167   9.103 -0.0491  0.2183  0.1165
  104loPI   C1A 1655   4.755   8.183   8.984 -0.2034 -0.0194 -0.1480
  104loPI   C2A 1656   4.852   8.379   8.646  0.1650  0.0058  0.1919
  104loPI   C3A 1657   4.738   8.628   8.363 -0.5059  0.2203 -0.0352
  104loPI   C4A 1658   4.371   8.770   8.131  0.0353 -0.2999 -0.2635
  104loPI   C5A 1659   4.106   9.060   7.864 -0.0097 -0.3723  0.1017
  104loPI   C6A 1660   3.998   9.364   7.551 -0.0027 -0.3603  0.1192
  104loPI   C1B 1661   5.595   8.216   8.712  0.2969 -0.1497 -0.3036
  104loPI   C2B 1662   5.562   8.245   8.302 -0.1394  0.0391  0.0374
  104loPI   C3B 1663   5.561   7.918   8.002  0.1277  0.0396 -0.0103
  104loPI   C4B 1664   5.390   7.488   7.929 -0.1163 -0.1568 -0.4943
  105loPI    C1 1665  14.491   0.222  10.034 -0.0339 -0.3667  0.0161
  105loPI    C2 1666  14.748   0.176  10.336 -0.0684  0.0822  0.1209
  105loPI    C3 1667  14.370   0.050  10.374  0.0455 -0.2796  0.0887
  105loPI   PO4 1668  14.702   0.319   9.880 -0.1835 -0.4695 -0.3137
  105loPI   GL1 1669  14.752   0.220   9.547 -0.2071 -0.3262 -0.2591
  105loPI   GL2 1670  14.378  -0.001   9.563  0.1297 -0.0643 -0.0343
  105loPI   C1A 1671  14.882   0.478   9.207 -0.1948  0.3101  0.0777
  105loPI   C2A 1672  14.887   0.671   8.821  0.1388 -0.2967  0.2225
  105loPI   C3A 1673  14.945   0.944   8.399 -0.0293 -0.2600  0.0049
  105loPI   C4A 1674  15.081   0.989   7.956 -0.1381  0.3522 -0.0013
  105loPI   C5A 1675  15.305   0.979   7.586  0.2332 -0.2508  0.2964
  105loPI   C6A 1676  15.636   0.748   7.430  0.0215  0.0638  0.0354
  105loPI   C1B 1677  14.503   0.139   9.120 -0.2337 -0.1273 -0.3068
  105loPI   C2B 1678  14.667   0.249   8.649  0.1192 -0.2545  0.0197
  105loPI   C3B 1679  14.679   0.431   8.328  0.3003 -0.0337  0.1976
  105loPI   C4B 1680  14.998   0.424   7.951 -0.0796  0.2550 -0.2528
  106loPI    C1 1681  10.625  16.038   9.990  0.0301 -0.2304  0.0576
  106loPI    C2 1682  10.719  16.247   9.662 -0.1483 -0.1882  0.0323
  106loPI    C3 1683  10.817  16.388  10.023  0.0523 -0.2367 -0.0020
  106loPI   PO4 1684  10.545  15.818   9.895 -0.2865  0.0954  0.1496
  106loPI   GL1 1685  10.774  15.660   9.592 -0.0660 -0.2029 -0.0974
  106loPI   GL2 1686  11.068  15.540   9.728 -0.1037 -0.0952  0.0451
  106loPI   C1A 1687  10.664  15.929   9.215 -0.3035 -0.1159 -0.0337
  106loPI   C2A 1688  10.297  15.941   8.879  0.3737  0.0447 -0.1522
  106loPI   C3A 1689  10.080  16.051   8.466  0.0984 -0.0167 -0.0775
  106loPI   C4A 1690   9.891  15.753   8.066  0.0448 -0.2016 -0.0505
  106loPI   C5A 1691   9.678  15.510   7.752 -0.1390  0.1531 -0.0106
  106loPI   C6A 1692   9.484  15.281   7.460  0.0749 -0.0109 -0.0215
  106loPI   C1B 1693  11.359  15.469   9.356  0.1621 -0.1589 -0.2071
  106loPI   C2B 1694  11.435  15.532   8.886  0.1361 -0.1954 -0.0340
  106loPI   C3B 1695  11.384  15.862   8.543 -0.2127 -0.2162 -0.2026
  106loPI   C4B 1696  11.413  16.087   8.144 -0.3545  0.4523  0.0200
  107loPI    C1 1697   9.585  17.771   9.486 -0.1037 -0.2053 -0.0109
  107loPI    C2 1698   9.767  17.863   9.142 -0.1715  0.2002  0.0574
  107loPI    C3 1699   9.797  17.494   9.291  0.1920  0.1302 -0.1783
  107loPI   PO4 1700   9.399  17.988   9.431 -0.2623 -0.2371  0.1430
  107loPI   GL1 1701   9.502  18.248   9.094  0.1997  0.3075  0.2159
  107loPI   GL2 1702   9.167  18.338   9.077 -0.1087 -0.0050 -0.2654
  107loPI   C1A 1703   9.508  18.008   8.773 -0.1298 -0.2052 -0.0385
  107loPI   C2A 1704   9.664  17.665   8.591 -0.1204  0.1263 -0.0719
  107loPI   C3A 1705   9.812  17.334   8.219  0.1041 -0.3359 -0.1997
  107loPI   C4A 1706   9.873  16.953   7.890  0.2775  0.0176  0.4709
  107loPI   C5A 1707   9.842  16.687   7.452 -0.0139  0.2117 -0.0207
  107loPI   C6A 1708  10.044  16.480   7.113  0.0661 -0.3444  0.0632
  107loPI   C1B 1709   9.157  18.419   8.600  0.2293  0.0930  0.2142
  107loPI   C2B 1710   9.106  18.506   8.124  0.1676 -0.2074  0.1689
  107loPI   C3B 1711   8.919  18.412   7.689  0.1425 -0.1117 -0.2352
  107loPI   C4B 1712   8.696  18.449   7.258 -0.1074 -0.2305 -0.0558
  108loPI    C1 1713  12.741  17.187   9.701 -0.1097 -0.1177 -0.1040
  108loPI    C2 1714  12.606  17.112  10.070  0.2397 -0.1537  0.0209
  108loPI    C3 1715  12.999  17.141  10.004  0.1747 -0.0200 -0.3269
  108loPI   PO4 1716  12.595  17.032   9.555  0.0324  0.2906 -0.1982
  108loPI   GL1 1717  12.480  16.835   9.224 -0.0032  0.0235 -0.0811
  108loPI   GL2 1718  12.721  17.018   9.035 -0.1069 -0.1343  0.1318
  108loPI   C1A 1719  12.289  16.538   8.886  0.0508 -0.3274  0.0097
  108loPI   C2A 1720  12.240  16.194   8.586 -0.1933  0.1050  0.1766
  108loPI   C3A 1721  11.989  16.275   8.185 -0.0389  0.2787 -0.1859
  108loPI   C4A 1722  12.041  16.497   7.887  0.0546 -0.0362 -0.1928
  108loPI   C5A 1723  12.206  16.138   7.636 -0.1675  0.1160 -0.0383
  108loPI   C6A 1724  12.338  15.659   7.551 -0.1195  0.0950 -0.2007
  108loPI   C1B 1725  13.022  16.916   8.781  0.3632  0.0596  0.2722
  108loPI   C2B 1726  13.087  16.606   8.459  0.1125  0.1984 -0.0651
  108loPI   C3B 1727  12.957  16.461   7.989 -0.0061 -0.0120 -0.1260
  108loPI   C4B 1728  12.790  16.112   7.914 -0.0496 -0.3293  0.0048
  109loPI    C1 1729  10.052  10.809  10.180 -0.1518  0.1559  0.1675
  109loPI    C2 1730  10.289  10.653  10.461 -0.1261 -0.1243 -0.0060
  109loPI    C3 1731   9.986  10.892  10.565  0.1996  0.2008  0.2210
  109loPI   PO4 1732  10.216  10.691   9.965 -0.2457 -0.2681 -0.1946
  109loPI   GL1 1733  10.388  10.616   9.636  0.1361  0.0042 -0.2004
  109loPI   GL2 1734  10.383  10.369   9.494 -0.2447 -0.0365  0.3376
  109loPI   C1A 1735  10.552  10.848   9.264  0.1436 -0.0409 -0.1932
  109loPI   C2A 1736  10.635  10.752   8.799  0.0020 -0.5009  0.0760
  109loPI   C3A 1737  10.651  10.554   8.347 -0.0589  0.1740  0.0526
  109loPI   C4A 1738  10.825  10.148   8.338 -0.1040  0.0443  0.0561
  109loPI   C5A 1739  11.225   9.802   8.236 -0.0385 -0.1982  0.0347
  109loPI   C6A 1740  11.517   9.760   7.895  0.3190 -0.1372  0.0056
  109loPI   C1B 1741  10.638  10.378   9.158 -0.3719  0.1606 -0.1376
  109loPI   C2B 1742  11.055  10.321   8.843 -0.0893  0.1098  0.0769
  109loPI   C3B 1743  11.486  10.231   8.534 -0.0420 -0.1589  0.0075
  109loPI   C4B 1744  11.698  10.046   8.328 -0.0304  0.2193 -0.0714
  110loPI    C1 1745  16.327   5.324  10.273  0.1532 -0.0508 -0.1404
  110loPI    C2 1746  15.976   5.138  10.318  0.0110  0.2211 -0.1068
  110loPI    C3 1747  16.304   4.990  10.492 -0.1656  0.1934  0.2110
  110loPI   PO4 1748  16.238   5.605  10.059 -0.2158  0.1081  0.2700
  110loPI   GL1 1749  15.922   5.538   9.713  0.0779 -0.4805 -0.1488
  110loPI   GL2 1750  16.119   5.786   9.615 -0.2929  0.1652  0.2096
  110loPI   C1A 1751  15.940   5.416   9.295  0.0269 -0.0204 -0.2001
  110loPI   C2A 1752  15.954   5.302   8.827  0.0422  0.4214  0.3547
  110loPI   C3A 1753  16.018   5.488   8.434 -0.2572 -0.3149 -0.1216
  110loPI   C4A 1754  15.978   5.673   8.075 -0.1450 -0.0035  0.0829
  110loPI   C5A 1755  15.626   5.671   7.830 -0.3646 -0.3480 -0.1707
  110loPI   C6A 1756  15.188   5.576   7.694 -0.4388  0.0124  0.1775
  110loPI   C1B 1757  16.366   5.879   9.179  0.1304  0.4238  0.0693
  110loPI   C2B 1758  16.410   5.839   8.787 -0.3092  0.1247 -0.3342
  110loPI   C3B 1759  16.317   5.941   8.373  0.1710 -0.3965  0.0102
  110loPI   C4B 1760  16.355   6.077   8.009  0.3135  0.0588  0.2819
  111loPI    C1 1761  14.597   9.027  10.473 -0.0073 -0.0046 -0.0771
  111loPI    C2 1762  14.842   8.742  10.610  0.0289  0.1009  0.0800
  111loPI    C3 1763  14.568   8.654  10.332  0.0972 -0.0670  0.0649
  111loPI   PO4 1764  14.903   9.246  10.439 -0.0257 -0.2449  0.0073
  111loPI   GL1 1765  15.201   9.356  10.100  0.0221  0.1485 -0.4051
  111loPI   GL2 1766  15.198   9.614  10.014 -0.0030 -0.1083 -0.2094
  111loPI   C1A 1767  15.182   9.204   9.678 -0.0836  0.0740 -0.0098
  111loPI   C2A 1768  15.274   9.458   9.285  0.0573  0.0081  0.0359
  111loPI   C3A 1769  15.179   9.480   8.870  0.0324 -0.1548  0.0564
  111loPI   C4A 1770  14.867   9.362   8.530  0.0795  0.2036 -0.1938
  111loPI   C5A 1771  14.763   9.129   8.309  0.4405  0.2828 -0.0212
  111loPI   C6A 1772  14.444   9.234   8.122  0.0420  0.0047  0.2540
  111loPI   C1B 1773  15.077   9.758   9.630  0.2903  0.3182 -0.0248
  111loPI   C2B 1774  15.236   9.993   9.240  0.1331 -0.2448 -0.1346
  111loPI   C3B 1775  15.611  10.129   8.940 -0.1908  0.1497  0.2091
  111loPI   C4B 1776  15.989  10.156   9.100 -0.0222  0.0645 -0.1607
  112loPI    C1 1777   3.335  16.047  10.532 -0.0700  0.1450  0.0537
  112loPI    C2 1778   3.466  16.026  10.909 -0.0384 -0.1750  0.0276
  112loPI    C3 1779   3.247  15.728  10.756  0.0039 -0.0776 -0.2282
  112loPI   PO4 1780   3.612  16.022  10.374 -0.1715 -0.4276  0.1429
  112loPI   GL1 1781   3.739  15.912   9.997  0.0958 -0.0480  0.0613
  112loPI   GL2 1782   3.729  15.777   9.706 -0.0801  0.0543  0.2197
  112loPI   C1A 1783   3.858  16.275   9.764  0.0182  0.1548 -0.1887
  112loPI   C2A 1784   3.889  16.301   9.293  0.0346  0.0275 -0.2995
  112loPI   C3A 1785   3.907  16.305   8.903 -0.3006  0.1045  0.1555
  112loPI   C4A 1786   4.091  16.435   8.573 -0.1045  0.0106 -0.1713
  112loPI   C5A 1787   4.107  16.433   8.227  0.1394 -0.3819 -0.0293
  112loPI   C6A 1788   4.336  16.683   8.057  0.1366 -0.3536 -0.0687
  112loPI   C1B 1789   3.819  15.812   9.259 -0.0695 -0.3021 -0.1294
  112loPI   C2B 1790   3.693  15.899   8.862  0.0491  0.0313  0.2623
  112loPI   C3B 1791   3.641  16.066   8.462 -0.0320 -0.0146  0.2380
  112loPI   C4B 1792   3.641  16.297   8.195  0.1396 -0.2145  0.0272
  113loPI    C1 1793   2.312   1.700   9.999 -0.0488 -0.0950 -0.1365
  113loPI    C2 1794   2.164   1.361  10.152 -0.0918 -0.0244 -0.0206
  113loPI    C3 1795   2.260   1.665  10.394 -0.1883  0.0992 -0.1364
  113loPI   PO4 1796   2.463   1.678   9.872 -0.0425  0.0119 -0.1802
  113loPI   GL1 1797   2.671   1.874   9.563 -0.2931  0.4658  0.2550
  113loPI   GL2 1798   2.678   1.553   9.407  0.2000 -0.0243 -0.0775
  113loPI   C1A 1799   2.665   1.963   9.114  0.1260  0.0939 -0.2933
  113loPI   C2A 1800   2.619   1.853   8.638  0.1352 -0.2865 -0.2076
  113loPI   C3A 1801   2.518   1.638   8.312  0.1239  0.3042  0.0013
  113loPI   C4A 1802   2.136   1.533   8.331 -0.1591  0.0124  0.0186
  113loPI   C5A 1803   1.796   1.278   8.126  0.4933 -0.0929 -0.0376
  113loPI   C6A 1804   1.638   0.854   8.221  0.2543  0.2516 -0.0853
  113loPI   C1B 1805   2.722   1.204   9.236  0.0637 -0.3415  0.3346
  113loPI   C2B 1806   3.017   1.068   8.873 -0.0254  0.0344  0.2568
  113loPI   C3B 1807   3.147   0.857   8.380 -0.0341 -0.1951 -0.5199
  113loPI   C4B 1808   3.264   0.618   8.072 -0.1858  0.0975  0.2588
  114loPI    C1 1809  10.543   7.489  10.235  0.0133  0.1252 -0.0942
  114loPI    C2 1810  10.729   7.355  10.563 -0.0492  0.3483  0.0347
  114loPI    C3 1811  10.340   7.445  10.577 -0.1961 -0.1924 -0.2535
  114loPI   PO4 1812  10.707   7.566  10.035  0.2952  0.1228 -0.0963
  114loPI   GL1 1813  10.840   7.894   9.701 -0.0376 -0.1782 -0.0639
  114loPI   GL2 1814  11.117   7.991   9.670 -0.3159  0.1739  0.2592
  114loPI   C1A 1815  10.805   8.035   9.302 -0.1377  0.1713 -0.0687
  114loPI   C2A 1816  10.930   8.114   8.842  0.0943  0.1723  0.1457
  114loPI   C3A 1817  11.033   8.249   8.487 -0.1719 -0.1910 -0.0692
  114loPI   C4A 1818  10.805   8.131   8.114 -0.0364 -0.1894  0.0391
  114loPI   C5A 1819  11.078   7.771   7.856 -0.3769 -0.1282 -0.2839
  114loPI   C6A 1820  11.181   7.897   7.446  0.3900 -0.1102  0.0640
  114loPI   C1B 1821  11.287   8.177   9.239  0.0168  0.1422  0.0996
  114loPI   C2B 1822  11.359   8.439   9.094  0.1630  0.1903 -0.0278
  114loPI   C3B 1823  11.593   8.679   8.861  0.2626 -0.0219 -0.1372
  114loPI   C4B 1824  11.762   8.968   8.547 -0.1658  0.2540  0.0799
  115loPI    C1 1825  14.078  14.779  10.180 -0.3023  0.0422  0.1454
  115loPI    C2 1826  14.156  14.961  10.527 -0.2875 -0.0571  0.1945
  115loPI    C3 1827  14.336  14.615  10.438  0.0938  0.2156 -0.1298
  115loPI   PO4 1828  14.069  14.921  10.049 -0.2083 -0.1469  0.0247
  115loPI   GL1 1829  14.011  14.912   9.667  0.2015  0.1231  0.1148
  115loPI   GL2 1830  13.637  14.974   9.560 -0.2611 -0.0747  0.0912
  115loPI   C1A 1831  14.106  14.784   9.258 -0.0082 -0.0377 -0.3582
  115loPI   C2A 1832  14.278  14.734   8.826 -0.1560 -0.1675  0.1153
  115loPI   C3A 1833  14.370  14.749   8.349  0.0914  0.0406 -0.0548
  115loPI   C4A 1834  14.624  14.986   8.021 -0.2477 -0.1297  0.0713
  115loPI   C5A 1835  14.802  15.252   7.729 -0.2250 -0.5776 -0.2033
  115loPI   C6A 1836  14.948  15.582   7.766  0.3101 -0.3530  0.0812
  115loPI   C1B 1837  13.509  15.061   9.233 -0.1505 -0.0282 -0.0919
  115loPI   C2B 1838  13.689  15.019   8.938  0.1494  0.0311 -0.0107
  115loPI   C3B 1839  13.382  15.107   8.479  0.0429 -0.1484  0.1261
  115loPI   C4B 1840  13.325  15.121   7.948  0.0657  0.0889  0.0570
  116loPI    C1 1841  10.367   3.785   9.916  0.0288 -0.1096  0.0727
  116loPI    C2 1842  10.636   3.898  10.190  0.0538  0.3319 -0.1245
  116loPI    C3 1843  10.686   4.001   9.807 -0.0960 -0.0893 -0.2631
  116loPI   PO4 1844  10.167   3.892   9.912 -0.1354  0.1453  0.1129
  116loPI   GL1 1845  10.027   4.160   9.682 -0.3226 -0.1927 -0.1538
  116loPI   GL2 1846  10.199   4.484   9.506  0.1991 -0.1195 -0.1831
  116loPI   C1A 1847   9.770   4.291   9.367 -0.0104 -0.0848 -0.1521
  116loPI   C2A 1848   9.593   4.302   8.980 -0.1547  0.1858 -0.2810
  116loPI   C3A 1849   9.385   4.381   8.773  0.2524 -0.0614  0.1135
  116loPI   C4A 1850   9.385   4.262   8.462 -0.4026  0.0778 -0.1562
  116loPI   C5A 1851   9.521   3.945   8.112  0.0970 -0.2230 -0.1007
  116loPI   C6A 1852   9.358   3.824   7.751 -0.3531 -0.3474  0.3212
  116loPI   C1B 1853  10.246   4.285   9.141  0.0212 -0.0544  0.1306
  116loPI   C2B 1854  10.163   3.954   8.843  0.2799 -0.1864 -0.5500
  116loPI   C3B 1855  10.122   3.509   9.009  0.2121  0.1966  0.0676
  116loPI   C4B 1856  10.221   3.085   8.952 -0.1486  0.1344 -0.3079
  117loPI    C1 1857  10.631  15.120  10.376  0.0233 -0.0052  0.1224
  117loPI    C2 1858  10.242  15.073  10.456 -0.0032  0.0533  0.0299
  117loPI    C3 1859  10.508  14.809  10.596 -0.0933 -0.0752 -0.0395
  117loPI   PO4 1860  10.624  15.221   9.991 -0.0885 -0.1155  0.1127
  117loPI   GL1 1861  10.696  14.823   9.674 -0.0810  0.0539 -0.2029
  117loPI   GL2 1862  10.688  15.106   9.515  0.0641  0.2248 -0.0353
  117loPI   C1A 1863  11.040  14.724   9.307  0.1057  0.0764  0.1207
  117loPI   C2A 1864  11.258  14.654   8.984 -0.2537  0.1917 -0.0781
  117loPI   C3A 1865  11.668  14.548   8.732 -0.1646 -0.1783 -0.0059
  117loPI   C4A 1866  11.933  14.463   8.455 -0.2765 -0.0196  0.0936
  117loPI   C5A 1867  12.022  14.151   8.246  0.6050  0.1228 -0.2537
  117loPI   C6A 1868  12.285  13.969   8.052 -0.1210  0.2968 -0.0860
  117loPI   C1B 1869  10.895  15.216   9.215  0.1989  0.2694  0.1695
  117loPI   C2B 1870  10.976  15.320   8.795 -0.2334 -0.2143  0.0642
  117loPI   C3B 1871  11.068  15.448   8.354  0.0176  0.0482 -0.1447
  117loPI   C4B 1872  10.989  15.660   8.005 -0.0287 -0.1073  0.1002
  118loPI    C1 1873  15.860  18.218  10.189  0.0528  0.0599 -0.1716
  118loPI    C2 1874  15.720  18.587  10.258 -0.0367 -0.0053  0.0016
  118loPI    C3 1875  15.530  18.269  10.409 -0.0063 -0.1283 -0.2153
  118loPI   PO4 1876  15.818  18.197   9.893 -0.1702 -0.2434  0.2321
  118loPI   GL1 1877  15.783  18.347   9.465 -0.1572  0.2045 -0.2838
  118loPI   GL2 1878  15.590  18.042   9.483 -0.0281  0.0257 -0.1345
  118loPI   C1A 1879  15.798  18.453   9.049 -0.0847 -0.0369 -0.1463
  118loPI   C2A 1880  15.853  18.650   8.574 -0.1389  0.0062  0.0058
  118loPI   C3A 1881  15.835  18.755   8.121 -0.0240  0.0891  0.2608
  118loPI   C4A 1882  16.273  18.868   7.859  0.2488 -0.0234 -0.1240
  118loPI   C5A 1883  16.615  18.696   7.773  0.1428 -0.0767 -0.2834
  118loPI   C6A 1884  16.685  18.270   7.929 -0.0413  0.1645 -0.0620
  118loPI   C1B 1885  15.702  17.940   9.028  0.2381 -0.0640  0.1841
  118loPI   C2B 1886  15.775  17.806   8.737 -0.2457  0.0681 -0.0337
  118loPI   C3B 1887  15.610  17.849   8.448  0.1895 -0.2588  0.1519
  118loPI   C4B 1888  15.606  17.886   8.135  0.1949  0.2561 -0.0345
  119loPI    C1 1889   2.674   0.782  10.160 -0.1168  0.0760 -0.1210
  119loPI    C2 1890   2.295   0.900  10.205 -0.0430  0.1289  0.4280
  119loPI    C3 1891   2.452   0.630  10.455  0.0948 -0.3907 -0.1936
  119loPI   PO4 1892   2.726   0.711   9.901  0.0943  0.0660 -0.1787
  119loPI   GL1 1893   2.674   0.579   9.569  0.3673  0.1714 -0.1852
  119loPI   GL2 1894   2.820   0.290   9.604 -0.1937  0.4191 -0.0234
  119loPI   C1A 1895   2.802   0.600   9.089  0.0097  0.0680 -0.1804
  119loPI   C2A 1896   2.914   0.311   8.797 -0.0416 -0.0552 -0.3021
  119loPI   C3A 1897   3.191   0.258   8.536 -0.5152  0.1710  0.0955
  119loPI   C4A 1898   3.552   0.004   8.667 -0.1380  0.0384 -0.1219
  119loPI   C5A 1899   3.596  -0.455   8.617  0.1273 -0.2026  0.0043
  119loPI   C6A 1900   3.922  -0.664   8.742 -0.2031  0.0703 -0.1954
  119loPI   C1B 1901   2.562   0.138   9.289 -0.0364 -0.1704  0.2126
  119loPI   C2B 1902   2.394   0.240   8.805 -0.0679  0.1563 -0.0140
  119loPI   C3B 1903   2.300   0.450   8.396  0.0720  0.1446  0.0280
  119loPI   C4B 1904   2.013   0.695   8.062 -0.1398 -0.2950  0.0943
  120loPI    C1 1905   1.865   3.628   9.988  0.0641 -0.0680  0.1768
  120loPI    C2 1906   1.963   3.741  10.359 -0.1780 -0.1674  0.2729
  120loPI    C3 1907   1.687   3.946  10.154  0.1771  0.0757  0.0264
  120loPI   PO4 1908   1.772   3.351   9.954 -0.0110 -0.1209  0.3600
  120loPI   GL1 1909   1.558   2.986   9.666  0.1933 -0.0798 -0.2325
  120loPI   GL2 1910   1.219   3.092   9.833  0.2014  0.1178 -0.0925
  120loPI   C1A 1911   1.741   2.979   9.298  0.0029 -0.1893 -0.1094
  120loPI   C2A 1912   2.002   3.036   8.891 -0.3104 -0.1390 -0.2269
  120loPI   C3A 1913   2.200   3.290   8.591 -0.0367  0.2299  0.0197
  120loPI   C4A 1914   2.467   3.314   8.196  0.1172 -0.0635 -0.2881
  120loPI   C5A 1915   2.843   3.485   8.038  0.2901  0.4265 -0.0872
  120loPI   C6A 1916   3.210   3.767   7.928 -0.0584 -0.1024  0.2355
  120loPI   C1B 1917   1.118   3.013   9.307 -0.0337 -0.1746  0.1621
  120loPI   C2B 1918   1.391   3.021   8.976 -0.0069 -0.0911 -0.0299
  120loPI   C3B 1919   1.453   3.016   8.469  0.3620 -0.0828  0.2900
  120loPI   C4B 1920   1.595   2.793   8.058 -0.0021  0.0015  0.2494
  121loPI    C1 1921   7.922  13.058  10.063 -0.2487  0.1828  0.0133
  121loPI    C2 1922   8.080  13.421  10.116  0.0909  0.0391  0.0135
  121loPI    C3 1923   8.143  13.134  10.387  0.1279 -0.1222 -0.1640
  121loPI   PO4 1924   7.838  13.076   9.822 -0.1412 -0.0703 -0.0298
  121loPI   GL1 1925   7.854  12.885   9.431 -0.0997  0.3025 -0.3328
  121loPI   GL2 1926   7.759  13.100   9.334 -0.0811  0.0760 -0.0111
  121loPI   C1A 1927   8.131  12.724   9.071 -0.2719 -0.0101  0.3199
  121loPI   C2A 1928   8.248  12.557   8.731  0.0266 -0.3008 -0.0140
  121loPI   C3A 1929   8.405  12.630   8.312  0.1569  0.0621  0.0058
  121loPI   C4A 1930   8.635  12.763   8.011 -0.1756  0.0177  0.1214
  121loPI   C5A 1931   8.875  12.568   7.655 -0.2588  0.3687 -0.0749
  121loPI   C6A 1932   9.031  12.451   7.281 -0.2450 -0.0512  0.2490
  121loPI   C1B 1933   7.700  13.114   8.860  0.4346 -0.2169  0.2594
  121loPI   C2B 1934   7.528  13.219   8.455 -0.2108 -0.2805  0.1614
  121loPI   C3B 1935   7.508  13.302   7.987 -0.2841 -0.0867  0.2033
  121loPI   C4B 1936   7.683  13.382   7.603 -0.2850  0.0617  0.0146
  122loPI    C1 1937   0.810   8.509   9.732  0.2722 -0.0951 -0.0302
  122loPI    C2 1938   0.834   8.211   9.998  0.0136 -0.0941 -0.0032
  122loPI    C3 1939   0.794   8.129   9.608  0.0575 -0.0948 -0.0076
  122loPI   PO4 1940   0.622   8.689   9.774 -0.1149 -0.1979  0.0145
  122loPI   GL1 1941   0.209   8.681   9.561  0.5493 -0.3253 -0.1525
  122loPI   GL2 1942   0.344   8.424   9.481 -0.0220  0.2656  0.0078
  122loPI   C1A 1943  -0.001   8.681   9.222 -0.1770 -0.0505  0.0772
  122loPI   C2A 1944   0.136   8.407   8.887  0.1148  0.3006 -0.3190
  122loPI   C3A 1945   0.135   8.388   8.408 -0.0223 -0.0967  0.0248
  122loPI   C4A 1946  -0.150   8.449   8.098 -0.0422 -0.0917  0.4933
  122loPI   C5A 1947  -0.409   8.272   7.627  0.1329  0.1199 -0.2790
  122loPI   C6A 1948  -0.719   8.504   7.398 -0.2843 -0.1813  0.0847
  122loPI   C1B 1949   0.549   8.222   9.095  0.1665  0.0206 -0.2127
  122loPI   C2B 1950   0.637   8.180   8.621 -0.0155 -0.1157  0.1525
  122loPI   C3B 1951   0.654   8.122   8.136 -0.3442  0.0098 -0.0001
  122loPI   C4B 1952   0.367   7.977   7.857 -0.2826  0.2961 -0.1235
  123loPI    C1 1953  12.108   1.644   9.916  0.2794  0.0558 -0.2852
  123loPI    C2 1954  12.381   1.620  10.207  0.1321  0.1778 -0.1351
  123loPI    C3 1955  12.115   1.326  10.159 -0.0123  0.2806  0.0260
  123loPI   PO4 1956  12.122   1.688   9.720  0.0582  0.1285 -0.2756
  123loPI   GL1 1957  12.132   2.029   9.509 -0.1462  0.1149 -0.1437
  123loPI   GL2 1958  11.861   2.042   9.215  0.0423  0.0651  0.1015
  123loPI   C1A 1959  12.225   2.287   9.100  0.2365 -0.0477  0.0966
  123loPI   C2A 1960  12.395   2.422   8.729  0.1557 -0.0206  0.0465
  123loPI   C3A 1961  12.217   2.596   8.292 -0.3008  0.0064 -0.0200
  123loPI   C4A 1962  12.119   2.882   8.002 -0.2269 -0.1229 -0.1103
  123loPI   C5A 1963  12.080   3.168   7.687  0.1708  0.3446  0.3162
  123loPI   C6A 1964  12.320   3.295   7.369 -0.1080  0.1694  0.3494
  123loPI   C1B 1965  12.030   1.951   8.802 -0.0803 -0.0415  0.1705
  123loPI   C2B 1966  12.202   2.064   8.405 -0.3320 -0.1409 -0.0562
  123loPI   C3B 1967  12.126   2.182   8.061  0.0885  0.2191 -0.1297
  123loPI   C4B 1968  12.200   2.384   7.641 -0.0556  0.2992 -0.0398
  124loPI    C1 1969  12.266  16.071  10.403 -0.0819 -0.0115 -0.1589
  124loPI    C2 1970  12.591  16.191  10.602 -0.1562  0.0251 -0.0588
  124loPI    C3 1971  12.272  16.431  10.577 -0.2465 -0.0870  0.0064
  124loPI   PO4 1972  12.318  15.766  10.354 -0.1860  0.0334 -0.2154
  124loPI   GL1 1973  12.356  15.500  10.026  0.1038 -0.0495  0.0926
  124loPI   GL2 1974  12.330  15.163   9.855 -0.1315  0.2544  0.1623
  124loPI   C1A 1975  12.114  15.547   9.641  0.0634 -0.0500 -0.1462
  124loPI   C2A 1976  11.929  15.688   9.253  0.1796  0.2059  0.1666
  124loPI   C3A 1977  11.989  15.772   8.838  0.0106  0.0137  0.1660
  124loPI   C4A 1978  11.854  15.875   8.432  0.2114  0.3031  0.0410
  124loPI   C5A 1979  11.811  15.730   8.044 -0.0926  0.0236  0.1803
  124loPI   C6A 1980  11.426  15.452   7.913 -0.0583  0.1690  0.0660
  124loPI   C1B 1981  12.328  15.107   9.419  0.1346 -0.0394  0.1911
  124loPI   C2B 1982  12.438  15.126   8.944 -0.0397 -0.2790 -0.2822
  124loPI   C3B 1983  12.452  15.329   8.558  0.2576 -0.0217 -0.3544
  124loPI   C4B 1984  12.264  15.592   8.394 -0.0203 -0.2311 -0.2148
  125loPI    C1 1985  13.916   8.937  10.555 -0.3009  0.2398 -0.1348
  125loPI    C2 1986  14.214   9.050  10.797 -0.0128 -0.3640 -0.1907
  125loPI    C3 1987  13.847   8.991  10.945 -0.0451  0.1021 -0.0687
  125loPI   PO4 1988  14.053   8.933  10.312 -0.2346  0.3774 -0.0185
  125loPI   GL1 1989  13.989   9.201  10.043  0.4127 -0.2335 -0.1939
  125loPI   GL2 1990  13.760   9.153   9.735  0.0473 -0.0065 -0.1852
  125loPI   C1A 1991  14.238   9.405   9.722 -0.2344  0.1228 -0.0176
  125loPI   C2A 1992  14.458   9.719   9.398  0.0446  0.1109  0.1088
  125loPI   C3A 1993  14.564   9.580   8.983  0.2407  0.0149  0.0375
  125loPI   C4A 1994  14.482   9.164   8.828  0.1098  0.1879 -0.2508
  125loPI   C5A 1995  14.653   8.742   8.612  0.1969 -0.1292 -0.1443
  125loPI   C6A 1996  14.879   8.578   8.239  0.0984 -0.3111  0.2955
  125loPI   C1B 1997  13.667   9.313   9.312  0.2455  0.2200  0.2769
  125loPI   C2B 1998  13.471   9.624   9.114 -0.0063  0.0814 -0.1894
  125loPI   C3B 1999  13.182   9.747   8.725  0.1006 -0.0392 -0.2069
  125loPI   C4B 2000  12.799   9.967   8.519  0.0388 -0.0014 -0.2494
  126loPI    C1 2001  10.020   2.677  10.133 -0.1065  0.0758  0.0971
  126loPI    C2 2002   9.990   2.688  10.532  0.1196  0.0566  0.1159
  126loPI    C3 2003  10.175   2.984  10.337  0.2761 -0.0810  0.0521
  126loPI   PO4 2004   9.794   2.627  10.025 -0.1427 -0.0115 -0.1255
  126loPI   GL1 2005   9.620   2.567   9.682  0.1232 -0.1093 -0.0599
  126loPI   GL2 2006   9.470   2.390   9.605  0.2058  0.1439 -0.0979
  126loPI   C1A 2007   9.485   2.726   9.207  0.0080  0.1061 -0.2532
  126loPI   C2A 2008   9.104   3.060   9.187 -0.1157  0.0836  0.1922
  126loPI   C3A 2009   8.944   2.993   8.803  0.2335  0.0195  0.1359
  126loPI   C4A 2010   8.950   2.834   8.376  0.2618  0.1101 -0.2399
  126loPI   C5A 2011   8.941   2.429   8.194 -0.2611 -0.3013 -0.0470
  126loPI   C6A 2012   8.891   2.099   7.884 -0.0003 -0.2580 -0.0002
  126loPI   C1B 2013   9.623   2.233   9.298  0.2725 -0.0572  0.1923
  126loPI   C2B 2014   9.546   2.282   8.828 -0.1552  0.0452  0.2195
  126loPI   C3B 2015   9.155   2.066   8.711  0.3584 -0.2841  0.0126
  126loPI   C4B 2016   8.765   1.946   8.513 -0.0041  0.2249  0.1281
  127loPI    C1 2017   2.105   9.577  10.202  0.3353  0.0525 -0.1516
  127loPI    C2 2018   2.244   9.861  10.448 -0.0152 -0.0126  0.1304
  127loPI    C3 2019   2.251   9.477  10.561 -0.0360 -0.0599 -0.0272
  127loPI   PO4 2020   2.228   9.767   9.924 -0.0223  0.1638 -0.0471
  127loPI   GL1 2021   2.377   9.695   9.483  0.2813  0.0147 -0.1931
  127loPI   GL2 2022   2.150   9.653   9.318  0.1913 -0.2580 -0.2220
  127loPI   C1A 2023   2.722   9.556   9.251  0.1111 -0.1279  0.2345
  127loPI   C2A 2024   2.844   9.369   8.840  0.1249  0.1055 -0.1518
  127loPI   C3A 2025   2.739   9.143   8.447 -0.0027 -0.2857  0.2518
  127loPI   C4A 2026   2.600   9.245   8.066 -0.2491  0.2309  0.0620
  127loPI   C5A 2027   2.389   9.505   7.707  0.2674  0.0482  0.0246
  127loPI   C6A 2028   2.448   9.659   7.434 -0.0147 -0.2900  0.0393
  127loPI   C1B 2029   2.378   9.718   8.951  0.0592 -0.2225  0.0822
  127loPI   C2B 2030   2.579   9.676   8.487  0.0031 -0.5295 -0.1398
  127loPI   C3B 2031   2.254   9.625   8.142 -0.3016 -0.0990 -0.0059
  127loPI   C4B 2032   1.816   9.677   7.848  0.0638  0.0123 -0.0653
  128loPI    C1 2033   4.914  14.627   9.751  0.0875  0.2509  0.0284
  128loPI    C2 2034   4.766  14.692  10.118  0.0026  0.0680  0.0275
  128loPI    C3 2035   4.520  14.601   9.816  0.0619  0.3153 -0.0982
  128loPI   PO4 2036   5.198  14.410   9.710  0.3396 -0.1937 -0.0493
  128loPI   GL1 2037   5.417  14.359   9.308  0.1161 -0.1805 -0.1060
  128loPI   GL2 2038   5.119  14.544   9.167  0.2374 -0.2293 -0.0340
  128loPI   C1A 2039   5.556  14.264   8.939 -0.0074  0.0239 -0.2362
  128loPI   C2A 2040   5.663  14.200   8.495 -0.0137 -0.4146  0.1435
  128loPI   C3A 2041   5.551  14.162   8.012  0.0180 -0.1251  0.2834
  128loPI   C4A 2042   5.311  14.451   7.851 -0.0014  0.0829  0.3144
  128loPI   C5A 2043   5.123  14.681   7.542 -0.1952  0.1058  0.3507
  128loPI   C6A 2044   4.881  14.635   7.080  0.0246  0.0872  0.0544
  128loPI   C1B 2045   5.213  14.615   8.706 -0.1459 -0.1234  0.0364
  128loPI   C2B 2046   5.587  14.745   8.374 -0.0244  0.0797 -0.1966
  128loPI   C3B 2047   5.629  14.918   7.895  0.2151  0.1340 -0.2340
  128loPI   C4B 2048   5.906  15.069   7.623  0.0833  0.2859 -0.0924
  129loPI    C1 2049   3.773  18.131  10.559  0.1435 -0.1812  0.0521
  129loPI    C2 2050   3.865  17.825  10.800  0.4163 -0.1772 -0.0432
  129loPI    C3 2051   4.114  18.137  10.769  0.2188 -0.0201 -0.0724
  129loPI   PO4 2052   3.606  17.860  10.387  0.0561 -0.0367 -0.0541
  129loPI   GL1 2053   3.490  17.823   9.982 -0.1829  0.1848 -0.0796
  129loPI   GL2 2054   3.298  18.178   9.971  0.1412 -0.2006  0.2395
  129loPI   C1A 2055   3.209  17.655   9.705 -0.0703 -0.2005 -0.0510
  129loPI   C2A 2056   2.971  17.543   9.294  0.0838  0.0466  0.1191
  129loPI   C3A 2057   2.627  17.816   9.132 -0.1797  0.1201  0.0402
  129loPI   C4A 2058   2.538  17.989   8.789  0.3862  0.0775  0.1233
  129loPI   C5A 2059   2.488  18.227   8.343 -0.1001  0.0503  0.0837
  129loPI   C6A 2060   2.246  18.578   7.945 -0.4986 -0.0860 -0.0220
  129loPI   C1B 2061   3.560  18.191   9.557 -0.0570  0.0765  0.0060
  129loPI   C2B 2062   3.593  18.259   9.132 -0.0784  0.2372 -0.3765
  129loPI   C3B 2063   3.485  17.957   8.945  0.1621 -0.0175 -0.1136
  129loPI   C4B 2064   3.507  17.729   8.591 -0.0943  0.2106  0.0226
  130loPI    C1 2065   4.219   9.551   9.895 -0.2962  0.0522 -0.2915
  130loPI    C2 2066   3.988   9.684  10.193  0.2367  0.3078  0.0228
  130loPI    C3 2067   4.220   9.363  10.248  0.2313  0.2710 -0.1650
  130loPI   PO4 2068   4.223   9.781   9.700  0.1640  0.1401  0.0014
  130loPI   GL1 2069   4.341   9.795   9.222 -0.1053 -0.2381 -0.1141
  130loPI   GL2 2070   4.224   9.568   9.168 -0.0729  0.0445  0.4257
  130loPI   C1A 2071   4.487   9.889   8.771 -0.2283  0.0989  0.2821
  130loPI   C2A 2072   4.578   9.986   8.381 -0.4293  0.1565 -0.0405
  130loPI   C3A 2073   4.692  10.102   8.031 -0.0212  0.2351  0.1116
  130loPI   C4A 2074   4.705  10.212   7.522  0.1092  0.3002  0.1803
  130loPI   C5A 2075   4.560  10.293   7.127 -0.2707 -0.2361 -0.0386
  130loPI   C6A 2076   4.379  10.636   7.202 -0.2397 -0.0665 -0.0426
  130loPI   C1B 2077   4.239   9.449   8.784 -0.0424 -0.1705 -0.1098
  130loPI   C2B 2078   4.405   9.516   8.403  0.1365  0.1979  0.1343
  130loPI   C3B 2079   4.595   9.509   8.016  0.4041 -0.0499  0.0299
  130loPI   C4B 2080   4.564   9.161   7.700 -0.2959 -0.0568 -0.2381
  131loPI    C1 2081  16.570   4.692  10.070 -0.1164  0.2438  0.1102
  131loPI    C2 2082  16.676   5.076  10.037  0.1394  0.1947  0.3245
  131loPI    C3 2083  16.752   4.876  10.375 -0.2799  0.0415  0.3337
  131loPI   PO4 2084  16.344   4.674  10.035  0.0835  0.2287  0.0887
  131loPI   GL1 2085  16.129   4.598   9.669  0.0125 -0.0058  0.0358
  131loPI   GL2 2086  16.415   4.812   9.562 -0.0453  0.1676  0.1613
  131loPI   C1A 2087  16.018   4.429   9.299 -0.1948 -0.0110  0.0978
  131loPI   C2A 2088  16.059   4.303   8.897  0.3487 -0.1559  0.0533
  131loPI   C3A 2089  15.999   4.473   8.507  0.1139 -0.1628 -0.0932
  131loPI   C4A 2090  15.922   4.576   8.066  0.2023 -0.2793 -0.1871
  131loPI   C5A 2091  15.915   4.856   7.772  0.1401  0.0264 -0.1174
  131loPI   C6A 2092  16.004   5.316   7.744  0.2515  0.1942 -0.1326
  131loPI   C1B 2093  16.250   4.823   9.185 -0.1394 -0.2791  0.4059
  131loPI   C2B 2094  16.186   4.845   8.845  0.2683  0.0669 -0.2972
  131loPI   C3B 2095  16.302   5.035   8.520  0.1496 -0.1435 -0.1518
  131loPI   C4B 2096  16.174   5.057   8.144  0.1213 -0.1274  0.0899
  132loPI    C1 2097   6.725   3.075  10.110 -0.0543 -0.3017  0.1075
  132loPI    C2 2098   6.429   2.931  10.337 -0.1422 -0.0018  0.1872
  132loPI    C3 2099   6.737   3.122  10.507 -0.1339  0.0926  0.0675
  132loPI   PO4 2100   6.700   2.938   9.831 -0.0521 -0.2658  0.1849
  132loPI   GL1 2101   6.598   2.805   9.408 -0.0099  0.0280 -0.1942
  132loPI   GL2 2102   6.725   2.658   9.214 -0.3141  0.2283 -0.2405
  132loPI   C1A 2103   6.286   2.437   9.214  0.0879  0.1877  0.1872
  132loPI   C2A 2104   6.207   2.298   8.843  0.2164  0.2423  0.3433
  132loPI   C3A 2105   6.025   2.137   8.540  0.3558 -0.2909 -0.0499
  132loPI   C4A 2106   5.913   2.073   8.075  0.0804 -0.2563  0.2377
  132loPI   C5A 2107   5.796   2.158   7.754 -0.1787  0.2836  0.1714
  132loPI   C6A 2108   5.875   2.544   7.530  0.0750  0.1429 -0.2068
  132loPI   C1B 2109   6.720   2.714   8.723 -0.2511  0.0938 -0.0922
  132loPI   C2B 2110   6.813   2.528   8.327  0.0872 -0.0877 -0.1904
  132loPI   C3B 2111   7.222   2.766   8.144 -0.2774 -0.0385 -0.0753
  132loPI   C4B 2112   7.461   2.845   7.872  0.1318  0.1376  0.1206
  133loPI    C1 2113  12.041   2.777  10.024  0.0509  0.0851 -0.1392
  133loPI    C2 2114  12.271   3.017  10.247 -0.0102 -0.0114  0.0294
  133loPI    C3 2115  12.003   2.778  10.422 -0.1521  0.0083 -0.1576
  133loPI   PO4 2116  12.220   2.810   9.809  0.1922  0.1252 -0.1025
  133loPI   GL1 2117  12.221   2.584   9.446 -0.1083  0.1866  0.1244
  133loPI   GL2 2118  11.915   2.610   9.499  0.0382  0.2310 -0.2290
  133loPI   C1A 2119  12.379   2.807   8.976 -0.1863 -0.1908  0.2823
  133loPI   C2A 2120  12.555   2.867   8.605  0.1707 -0.2148 -0.0033
  133loPI   C3A 2121  12.581   3.081   8.281 -0.0058 -0.0294 -0.2149
  133loPI   C4A 2122  12.597   3.072   7.860  0.2760  0.3001 -0.1461
  133loPI   C5A 2123  12.492   2.781   7.562  0.4961  0.2095  0.2308
  133loPI   C6A 2124  12.501   2.505   7.229  0.3140 -0.1131  0.4278
  133loPI   C1B 2125  11.816   2.567   9.067  0.1173  0.1656 -0.0336
  133loPI   C2B 2126  11.907   2.472   8.683  0.0201  0.0208  0.0112
  133loPI   C3B 2127  11.739   2.470   8.281 -0.1615  0.0385 -0.0389
  133loPI   C4B 2128  11.644   2.566   7.823 -0.2300  0.2157  0.1010
  134loPI    C1 2129  18.132   1.033  10.764  0.1415 -0.0065 -0.0142
  134loPI    C2 2130  17.985   1.333  10.983  0.3162  0.1911 -0.1628
  134loPI    C3 2131  18.361   1.210  11.040  0.1739 -0.1581  0.0570
  134loPI   PO4 2132  18.023   1.060  10.434 -0.1382 -0.1446 -0.1038
  134loPI   GL1 2133  18.126   0.829  10.138 -0.2046 -0.0070 -0.0476
  134loPI   GL2 2134  18.192   0.478  10.050 -0.0852 -0.0429  0.1581
  134loPI   C1A 2135  18.099   0.758   9.694  0.1201 -0.4111  0.0628
  134loPI   C2A 2136  18.278   0.701   9.349  0.1540 -0.3531 -0.0676
  134loPI   C3A 2137  18.144   0.625   9.018 -0.2223  0.0372  0.0357
  134loPI   C4A 2138  17.969   0.338   8.754 -0.1193 -0.0086  0.1638
  134loPI   C5A 2139  17.653   0.131   8.493  0.2780  0.0403 -0.1742
  134loPI   C6A 2140  17.320  -0.119   8.495 -0.1477 -0.0940 -0.1320
  134loPI   C1B 2141  18.093   0.222   9.650  0.0154  0.0487  0.0952
  134loPI   C2B 2142  18.074   0.189   9.219 -0.0950  0.2046 -0.5426
  134loPI   C3B 2143  18.384   0.147   8.978 -0.1208 -0.1660  0.0466
  134loPI   C4B 2144  18.538  -0.044   8.603 -0.1423 -0.1036  0.0305
  135loPI    C1 2145  12.906   2.210   9.934 -0.1914 -0.0025 -0.2546
  135loPI    C2 2146  12.653   2.066  10.207  0.0348  0.1159  0.0225
  135loPI    C3 2147  12.893   2.372  10.299  0.2317  0.0495 -0.2570
  135loPI   PO4 2148  13.081   1.967   9.844  0.1236  0.0530 -0.2358
  135loPI   GL1 2149  13.327   1.905   9.488 -0.0233 -0.2245 -0.1104
  135loPI   GL2 2150  13.532   2.087   9.467 -0.0907 -0.1004  0.3181
  135loPI   C1A 2151  13.072   2.092   9.184  0.0749 -0.3113 -0.0824
  135loPI   C2A 2152  13.105   2.064   8.743 -0.1154 -0.2848 -0.1040
  135loPI   C3A 2153  13.309   2.003   8.438 -0.0948  0.2137  0.1645
  135loPI   C4A 2154  13.614   2.044   8.110 -0.1736 -0.0124  0.0421
  135loPI   C5A 2155  13.852   2.073   7.763  0.1285  0.1003 -0.0108
  135loPI   C6A 2156  14.303   2.338   7.821 -0.0958  0.0824 -0.4911
  135loPI   C1B 2157  13.874   1.931   9.159  0.2145  0.2310 -0.1151
  135loPI   C2B 2158  14.186   2.067   8.845  0.1155 -0.3210 -0.1132
  135loPI   C3B 2159  14.419   2.206   8.522 -0.1431 -0.0218 -0.0837
  135loPI   C4B 2160  14.609   2.322   8.194 -0.3246 -0.2973  0.5300
  136loPI    C1 2161   7.688  16.355   9.906  0.1068  0.0038 -0.0357
  136loPI    C2 2162   7.395  16.326  10.177  0.0727 -0.0392 -0.0769
  136loPI    C3 2163   7.693  16.587  10.232  0.1270 -0.1286  0.0592
  136loPI   PO4 2164   7.495  16.399   9.658 -0.1823 -0.2915  0.1328
  136loPI   GL1 2165   7.309  16.535   9.450 -0.0100  0.1326  0.1531
  136loPI   GL2 2166   7.458  16.827   9.330  0.1449  0.1075  0.0476
  136loPI   C1A 2167   7.240  16.516   8.974 -0.2235 -0.0485 -0.1352
  136loPI   C2A 2168   7.132  16.495   8.554  0.1485 -0.1657 -0.0969
  136loPI   C3A 2169   7.063  16.743   8.066 -0.1108 -0.0436 -0.4291
  136loPI   C4A 2170   7.028  17.147   7.801 -0.2306  0.3551  0.1504
  136loPI   C5A 2171   6.875  17.493   7.815  0.1002 -0.0913 -0.5520
  136loPI   C6A 2172   6.860  17.780   7.539  0.0251 -0.4624  0.0641
  136loPI   C1B 2173   7.718  17.045   9.081  0.3104 -0.3464  0.2394
  136loPI   C2B 2174   7.792  17.280   8.733 -0.2580 -0.1582 -0.0024
  136loPI   C3B 2175   7.748  17.336   8.308 -0.0080 -0.0695 -0.2528
  136loPI   C4B 2176   7.839  17.302   7.890  0.1996 -0.0279 -0.1166
  137loPI    C1 2177  16.671  15.762  10.623  0.2189  0.0417  0.1688
  137loPI    C2 2178  16.627  16.141  10.745  0.1906  0.1736 -0.2333
  137loPI    C3 2179  16.993  15.979  10.719  0.2065  0.1889 -0.1099
  137loPI   PO4 2180  16.595  15.741  10.401  0.0240  0.3016 -0.0792
  137loPI   GL1 2181  16.544  15.466   9.996 -0.2465 -0.0877 -0.1398
  137loPI   GL2 2182  16.860  15.338  10.015  0.1134 -0.0796  0.2218
  137loPI   C1A 2183  16.364  15.431   9.666 -0.0391 -0.0840  0.0792
  137loPI   C2A 2184  16.625  15.364   9.357 -0.0656  0.1870 -0.1531
  137loPI   C3A 2185  16.628  15.315   8.908  0.3760 -0.2278  0.0364
  137loPI   C4A 2186  16.618  15.398   8.483 -0.3046  0.0444  0.0486
  137loPI   C5A 2187  16.979  15.404   8.261 -0.2115  0.0995  0.2747
  137loPI   C6A 2188  17.293  15.582   8.057  0.0881  0.3915  0.0681
  137loPI   C1B 2189  17.191  15.323   9.732  0.0808  0.0565 -0.3473
  137loPI   C2B 2190  17.207  15.287   9.320  0.1049  0.3431  0.0505
  137loPI   C3B 2191  17.195  15.190   8.860 -0.0577  0.0579 -0.1541
  137loPI   C4B 2192  17.088  14.928   8.487  0.1585  0.0054  0.0169
  138loPI    C1 2193  16.452  10.902  10.181 -0.2736  0.3935  0.0593
  138loPI    C2 2194  16.345  10.947   9.799 -0.3911 -0.0516  0.0342
  138loPI    C3 2195  16.245  10.614   9.997  0.1321 -0.0649  0.2945
  138loPI   PO4 2196  16.384  11.142  10.260 -0.3052  0.2714 -0.3412
  138loPI   GL1 2197  16.212  11.446   9.975 -0.2798 -0.2293 -0.1632
  138loPI   GL2 2198  15.869  11.528   9.878 -0.1406  0.1238  0.0047
  138loPI   C1A 2199  16.233  11.320   9.509 -0.0736  0.0268  0.0446
  138loPI   C2A 2200  16.212  11.100   9.035  0.0383 -0.2633  0.1742
  138loPI   C3A 2201  16.129  10.956   8.551 -0.1817  0.3037  0.2109
  138loPI   C4A 2202  16.521  11.066   8.401  0.1918 -0.0114 -0.1105
  138loPI   C5A 2203  16.697  11.021   8.015 -0.2063 -0.1038 -0.0693
  138loPI   C6A 2204  16.865  11.279   7.633  0.0813  0.2695  0.0165
  138loPI   C1B 2205  15.830  11.577   9.405  0.1171 -0.1752  0.2898
  138loPI   C2B 2206  15.807  11.464   8.996  0.0622  0.2931  0.4668
  138loPI   C3B 2207  15.737  11.499   8.514 -0.1057  0.2479  0.5844
  138loPI   C4B 2208  15.591  11.804   8.202 -0.1440 -0.1358  0.1192
  139loPI    C1 2209  14.888  13.316  10.713 -0.2411 -0.2086  0.1348
  139loPI    C2 2210  14.887  13.393  11.106  0.1244 -0.0914  0.1163
  139loPI    C3 2211  15.231  13.316  10.918 -0.0595 -0.2480 -0.1640
  139loPI   PO4 2212  14.766  13.570  10.556  0.2937  0.2108 -0.3918
  139loPI   GL1 2213  14.944  13.875  10.320  0.2695  0.2581  0.2208
  139loPI   GL2 2214  15.146  13.743  10.027  0.1199  0.2179 -0.2030
  139loPI   C1A 2215  14.758  14.024   9.963 -0.4686 -0.0951 -0.1427
  139loPI   C2A 2216  14.771  14.344   9.650 -0.0556  0.4272 -0.4406
  139loPI   C3A 2217  15.021  14.473   9.240 -0.0860  0.1373  0.2566
  139loPI   C4A 2218  15.173  14.722   8.899 -0.0348  0.1516  0.2191
  139loPI   C5A 2219  15.324  14.575   8.570 -0.0486  0.0912  0.3702
  139loPI   C6A 2220  15.212  14.473   8.158 -0.0026  0.2181 -0.3259
  139loPI   C1B 2221  15.203  13.673   9.606 -0.3319 -0.1033 -0.1664
  139loPI   C2B 2222  14.857  13.834   9.421  0.0353 -0.2400 -0.3459
  139loPI   C3B 2223  14.746  14.080   9.038 -0.2116 -0.0467 -0.1871
  139loPI   C4B 2224  14.746  14.481   8.764  0.0588  0.0834 -0.2845
  140loPI    C1 2225   4.150  11.663   9.775 -0.1558 -0.1796  0.0936
  140loPI    C2 2226   4.428  11.502   9.537  0.1229  0.2329  0.1302
  140loPI    C3 2227   4.369  11.354   9.904 -0.1184 -0.2296 -0.0871
  140loPI   PO4 2228   4.089  11.971   9.773  0.1927 -0.3578 -0.1347
  140loPI   GL1 2229   3.871  12.063   9.353  0.3549 -0.1524  0.1088
  140loPI   GL2 2230   4.000  11.765   9.265 -0.0157 -0.0775  0.0119
  140loPI   C1A 2231   3.591  12.208   8.999 -0.4141 -0.3934 -0.0831
  140loPI   C2A 2232   3.443  12.184   8.572 -0.2146 -0.1394  0.0836
  140loPI   C3A 2233   3.473  11.922   8.211  0.0332 -0.0533  0.1762
  140loPI   C4A 2234   3.607  11.568   7.976 -0.1052 -0.0742 -0.1502
  140loPI   C5A 2235   3.979  11.428   7.590 -0.0936  0.1235 -0.1217
  140loPI   C6A 2236   4.464  11.440   7.405 -0.3811  0.0340 -0.0781
  140loPI   C1B 2237   4.204  11.733   8.790  0.0312 -0.1605 -0.2011
  140loPI   C2B 2238   4.455  11.972   8.466  0.2876  0.4623  0.2486
  140loPI   C3B 2239   4.668  12.027   8.079  0.0774  0.1491 -0.4249
  140loPI   C4B 2240   4.799  12.047   7.620  0.1017 -0.0357  0.1590
  141loPI    C1 2241  17.033   3.465   9.846 -0.1511  0.1668 -0.0703
  141loPI    C2 2242  16.992   3.816  10.033  0.3219  0.1168  0.1426
  141loPI    C3 2243  17.105   3.806   9.650 -0.1540  0.2043 -0.0064
  141loPI   PO4 2244  16.712   3.324   9.882 -0.0118 -0.0411  0.0526
  141loPI   GL1 2245  16.489   3.107   9.599 -0.0909 -0.0038  0.0439
  141loPI   GL2 2246  16.221   2.893   9.597 -0.0961 -0.1065  0.1206
  141loPI   C1A 2247  16.250   3.291   9.280  0.1388  0.1024  0.0980
  141loPI   C2A 2248  16.333   3.375   8.882 -0.0736  0.0016  0.1332
  141loPI   C3A 2249  16.272   3.626   8.492  0.1151 -0.1392  0.4372
  141loPI   C4A 2250  16.561   3.733   8.237  0.0793  0.2414 -0.0251
  141loPI   C5A 2251  16.891   3.853   8.069 -0.2641  0.2044  0.0108
  141loPI   C6A 2252  17.206   3.677   7.859 -0.2415  0.4024 -0.2213
  141loPI   C1B 2253  16.357   2.708   9.218 -0.1147  0.2087  0.2538
  141loPI   C2B 2254  16.385   2.874   8.813  0.0980 -0.0020 -0.0757
  141loPI   C3B 2255  16.388   3.079   8.448 -0.3917  0.1283  0.3280
  141loPI   C4B 2256  16.410   2.916   8.101 -0.0396 -0.1196 -0.1124
  142loPI    C1 2257  11.136  15.926  10.101 -0.1013  0.2737  0.0694
  142loPI    C2 2258  11.351  16.193  10.306  0.0491  0.0969  0.1446
  142loPI    C3 2259  10.978  16.106  10.421 -0.1100  0.4898 -0.0543
  142loPI   PO4 2260  11.141  16.028   9.868 -0.0234  0.0139  0.0852
  142loPI   GL1 2261  11.413  15.951   9.501  0.1972  0.0128 -0.2938
  142loPI   GL2 2262  11.137  15.993   9.385 -0.0398 -0.0381  0.2098
  142loPI   C1A 2263  11.524  15.946   9.140  0.1799 -0.1717  0.4325
  142loPI   C2A 2264  11.243  16.248   8.918 -0.3796 -0.2002 -0.2437
  142loPI   C3A 2265  10.966  16.232   8.521  0.1691 -0.2119 -0.0547
  142loPI   C4A 2266  10.921  16.148   8.067  0.0740  0.1936 -0.1449
  142loPI   C5A 2267  10.732  15.953   7.661 -0.0300  0.1929 -0.1680
  142loPI   C6A 2268  10.866  15.659   7.511 -0.1089 -0.1311 -0.0954
  142loPI   C1B 2269  11.046  15.851   8.863 -0.2024  0.1377  0.1462
  142loPI   C2B 2270  10.723  15.767   8.475 -0.2057 -0.1321  0.2218
  142loPI   C3B 2271  10.499  15.713   8.154 -0.0271  0.4171  0.0308
  142loPI   C4B 2272  10.388  16.024   8.020  0.2342 -0.1246 -0.0844
  143loPI    C1 2273  11.717  12.180  10.784 -0.1618 -0.1679 -0.2042
  143loPI    C2 2274  11.744  12.032  11.155  0.1359  0.0643 -0.1294
  143loPI    C3 2275  11.530  12.363  11.087  0.0344 -0.0106 -0.1759
  143loPI   PO4 2276  11.959  12.057  10.642  0.0807  0.1450  0.0236
  143loPI   GL1 2277  11.992  11.965  10.238 -0.1508 -0.2384 -0.0638
  143loPI   GL2 2278  11.692  11.920  10.027 -0.2026  0.1275  0.0391
  143loPI   C1A 2279  12.253  12.148   9.967  0.0392 -0.2235  0.1122
  143loPI   C2A 2280  12.288  12.177   9.573 -0.2978 -0.1796  0.2352
  143loPI   C3A 2281  12.414  12.083   9.117 -0.0031 -0.0020  0.0192
  143loPI   C4A 2282  12.608  12.135   8.800  0.0380 -0.2751  0.1423
  143loPI   C5A 2283  12.880  12.091   8.411  0.1372 -0.3275  0.0341
  143loPI   C6A 2284  13.198  11.923   8.230 -0.1452  0.1756 -0.3741
  143loPI   C1B 2285  11.752  12.134   9.725  0.2229  0.0518  0.1105
  143loPI   C2B 2286  11.898  12.042   9.289 -0.1450  0.1461 -0.0170
  143loPI   C3B 2287  11.998  12.003   8.855 -0.0154 -0.0827  0.3467
  143loPI   C4B 2288  11.993  11.950   8.471  0.1117 -0.1860 -0.0348
  144loPI    C1 2289   9.929  11.286  10.162 -0.0004 -0.0595  0.0712
  144loPI    C2 2290   9.621  11.204  10.404  0.2493 -0.1924  0.3512
  144loPI    C3 2291   9.855  11.520  10.477 -0.1218  0.2196 -0.1602
  144loPI   PO4 2292   9.802  11.239   9.859 -0.1278  0.0808  0.0414
  144loPI   GL1 2293   9.541  11.337   9.560  0.3900  0.0964  0.1553
  144loPI   GL2 2294   9.584  11.145   9.334 -0.1118 -0.3726  0.0885
  144loPI   C1A 2295   9.514  11.621   9.196  0.2358  0.2211  0.2541
  144loPI   C2A 2296   9.508  11.775   8.731  0.0972  0.0860  0.3169
  144loPI   C3A 2297   9.604  11.932   8.310 -0.2036  0.0915 -0.0406
  144loPI   C4A 2298   9.778  11.820   7.955 -0.0975 -0.1445 -0.1458
  144loPI   C5A 2299   9.805  11.444   7.755 -0.0055  0.1526  0.0572
  144loPI   C6A 2300  10.083  11.360   7.385 -0.3006  0.1269  0.2733
  144loPI   C1B 2301   9.626  11.180   8.870  0.2022 -0.3225 -0.1624
  144loPI   C2B 2302   9.561  11.287   8.509  0.2686  0.2602 -0.0441
  144loPI   C3B 2303   9.466  11.481   8.130  0.1122  0.1802 -0.0082
  144loPI   C4B 2304   9.290  11.456   7.712 -0.1343  0.1275 -0.0337
  145loPI    C1 2305   5.076  17.184  10.661  0.1738  0.0604 -0.0279
  145loPI    C2 2306   5.439  17.350  10.674  0.1054  0.2012  0.1233
  145loPI    C3 2307   5.130  17.531  10.851  0.0142 -0.0513  0.2271
  145loPI   PO4 2308   5.082  17.069  10.385  0.2068 -0.1152  0.0179
  145loPI   GL1 2309   5.029  17.255   9.995 -0.0428  0.0568 -0.0372
  145loPI   GL2 2310   4.707  17.455   9.829  0.1729  0.0769  0.1259
  145loPI   C1A 2311   5.085  17.703   9.626 -0.0396 -0.2044 -0.2165
  145loPI   C2A 2312   4.823  18.073   9.437  0.0312  0.1473  0.0684
  145loPI   C3A 2313   4.541  18.412   9.334 -0.1203 -0.1470  0.2941
  145loPI   C4A 2314   4.339  18.831   9.322  0.1708  0.2503 -0.0268
  145loPI   C5A 2315   4.254  19.216   9.195 -0.3270  0.0557 -0.0398
  145loPI   C6A 2316   3.912  19.556   9.119  0.2193 -0.0595  0.3228
  145loPI   C1B 2317   4.766  17.317   9.454 -0.0157 -0.2749 -0.1033
  145loPI   C2B 2318   4.839  17.360   9.005 -0.0251  0.3418 -0.4508
  145loPI   C3B 2319   4.937  16.952   8.677 -0.1627  0.1668  0.0624
  145loPI   C4B 2320   4.700  16.874   8.344  0.0021  0.1197  0.0114
  146loPI    C1 2321  15.792   4.680  10.084 -0.2621 -0.0687 -0.0954
  146loPI    C2 2322  15.587   4.791  10.409  0.0243  0.4611 -0.0843
  146loPI    C3 2323  15.951   4.629  10.448 -0.1198  0.1176 -0.1300
  146loPI   PO4 2324  15.785   4.890   9.949  0.0912 -0.1381 -0.2275
  146loPI   GL1 2325  15.799   4.961   9.478  0.1453 -0.1265  0.1141
  146loPI   GL2 2326  15.482   4.710   9.634 -0.1598 -0.0155 -0.0772
  146loPI   C1A 2327  15.459   5.116   9.283  0.1133  0.0650  0.0707
  146loPI   C2A 2328  15.127   5.143   9.008 -0.0035 -0.1460  0.1469
  146loPI   C3A 2329  15.154   5.060   8.486  0.0035 -0.1983  0.2592
  146loPI   C4A 2330  15.203   5.232   8.066 -0.0218  0.1865  0.2633
  146loPI   C5A 2331  15.012   5.065   7.622  0.2551 -0.2841  0.0011
  146loPI   C6A 2332  14.797   5.313   7.302 -0.0933 -0.0820  0.1835
  146loPI   C1B 2333  15.543   4.624   9.198  0.0847 -0.1069  0.1262
  146loPI   C2B 2334  15.643   4.930   8.843 -0.2717  0.4698  0.0447
  146loPI   C3B 2335  15.751   4.946   8.448 -0.1201 -0.1649  0.0864
  146loPI   C4B 2336  15.720   5.186   8.080 -0.0490  0.0144  0.0579
  147loPI    C1 2337  12.695   9.061  10.812  0.0924  0.2675  0.0436
  147loPI    C2 2338  12.903   8.817  11.051  0.0322  0.2291  0.0572
  147loPI    C3 2339  12.507   8.853  11.097 -0.0121  0.0607 -0.1728
  147loPI   PO4 2340  12.931   9.032  10.613  0.2687  0.1019 -0.2849
  147loPI   GL1 2341  13.055   9.165  10.222 -0.0462  0.1414  0.0817
  147loPI   GL2 2342  13.235   9.416  10.068 -0.0005 -0.1211  0.2549
  147loPI   C1A 2343  13.153   8.990   9.801  0.0920  0.1069 -0.0024
  147loPI   C2A 2344  13.049   8.903   9.378  0.3484  0.4057 -0.3138
  147loPI   C3A 2345  13.248   9.149   9.037 -0.0449 -0.1083  0.1614
  147loPI   C4A 2346  13.116   9.248   8.643  0.2810 -0.0065 -0.0806
  147loPI   C5A 2347  13.177   9.439   8.251  0.2121 -0.3012 -0.3509
  147loPI   C6A 2348  13.308   9.357   7.812  0.2522  0.0937  0.0167
  147loPI   C1B 2349  13.205   9.388   9.564  0.1647  0.0741 -0.1463
  147loPI   C2B 2350  13.028   9.558   9.278 -0.1546 -0.1962  0.2263
  147loPI   C3B 2351  12.749   9.806   9.016  0.0039  0.0892 -0.0970
  147loPI   C4B 2352  12.380   9.780   8.742  0.1338  0.0540 -0.0503
  148loPI    C1 2353   9.934  12.114  10.333 -0.0169  0.0680 -0.0224
  148loPI    C2 2354   9.887  12.492  10.453 -0.0297  0.1043 -0.1412
  148loPI    C3 2355  10.042  12.222  10.703 -0.1153  0.1650 -0.0218
  148loPI   PO4 2356  10.106  12.095  10.030 -0.0792 -0.1324  0.0014
  148loPI   GL1 2357  10.371  11.829   9.783 -0.2993 -0.3058 -0.1180
  148loPI   GL2 2358  10.101  11.605   9.746 -0.1500 -0.1573  0.0224
  148loPI   C1A 2359  10.527  11.867   9.381 -0.0989  0.2109 -0.4369
  148loPI   C2A 2360  10.457  11.637   9.066  0.1674 -0.4275  0.1402
  148loPI   C3A 2361  10.428  11.692   8.634  0.2744  0.1256 -0.0111
  148loPI   C4A 2362  10.467  11.607   8.143  0.2301 -0.1777  0.2208
  148loPI   C5A 2363  10.297  11.330   7.866  0.0719 -0.0276 -0.0438
  148loPI   C6A 2364  10.051  10.997   7.837  0.0922  0.1630  0.1397
  148loPI   C1B 2365  10.049  11.560   9.332 -0.6115  0.1227 -0.2218
  148loPI   C2B 2366   9.969  11.576   8.937  0.3699  0.2028  0.0124
  148loPI   C3B 2367   9.985  11.605   8.432 -0.0211 -0.2022  0.0328
  148loPI   C4B 2368   9.960  11.294   8.221 -0.0885 -0.1550 -0.1145
  149loPI    C1 2369   5.075   6.784   9.611  0.1079 -0.0822  0.1686
  149loPI    C2 2370   4.882   6.836   9.957 -0.2159 -0.5018  0.0598
  149loPI    C3 2371   5.272   6.923   9.930 -0.3188  0.1089  0.3565
  149loPI   PO4 2372   4.889   6.624   9.474  0.3806 -0.2171  0.0635
  149loPI   GL1 2373   4.639   6.700   9.091  0.0962 -0.2110 -0.1140
  149loPI   GL2 2374   4.401   6.972   9.035  0.4481  0.0953 -0.1003
  149loPI   C1A 2375   4.635   6.707   8.629 -0.1436 -0.1915 -0.0269
  149loPI   C2A 2376   4.725   6.468   8.209 -0.0350  0.1488  0.2649
  149loPI   C3A 2377   4.900   6.491   7.831 -0.1406  0.1626  0.0620
  149loPI   C4A 2378   5.109   6.193   7.518  0.0919 -0.3283 -0.0855
  149loPI   C5A 2379   5.291   6.506   7.171  0.0964  0.0079  0.0465
  149loPI   C6A 2380   5.473   6.726   6.721 -0.1777 -0.2744  0.2321
  149loPI   C1B 2381   4.491   7.181   8.747  0.0454 -0.0275  0.1811
  149loPI   C2B 2382   4.610   7.534   8.433 -0.1314  0.0380 -0.3510
  149loPI   C3B 2383   4.504   7.893   8.190  0.3480  0.0081 -0.0585
  149loPI   C4B 2384   4.173   8.227   8.204  0.4643  0.0679  0.0579
  150loPI    C1 2385  12.786  15.432  10.591  0.0265 -0.2370  0.2481
  150loPI    C2 2386  12.935  15.742  10.795  0.1278 -0.1067 -0.0189
  150loPI    C3 2387  12.542  15.669  10.803  0.1268 -0.0855  0.1963
  150loPI   PO4 2388  12.924  15.429  10.365  0.0194 -0.4874 -0.1451
  150loPI   GL1 2389  12.923  15.386   9.999 -0.1207  0.1708 -0.1878
  150loPI   GL2 2390  12.881  15.185   9.861 -0.0705 -0.1087  0.3079
  150loPI   C1A 2391  12.611  15.618   9.618 -0.0730  0.2724 -0.2216
  150loPI   C2A 2392  12.555  15.531   9.159 -0.1913 -0.4238 -0.0470
  150loPI   C3A 2393  12.821  15.445   8.935  0.0308 -0.0755  0.1033
  150loPI   C4A 2394  12.955  15.388   8.530  0.1851 -0.0910 -0.1526
  150loPI   C5A 2395  12.846  15.179   8.128  0.0984 -0.2979 -0.0431
  150loPI   C6A 2396  12.736  14.928   7.859 -0.0479  0.1334 -0.0391
  150loPI   C1B 2397  13.013  15.112   9.335 -0.1350  0.5144 -0.2116
  150loPI   C2B 2398  12.840  14.925   9.070  0.1842  0.1410  0.0627
  150loPI   C3B 2399  12.780  14.898   8.668  0.1029  0.2496 -0.0332
  150loPI   C4B 2400  13.021  14.787   8.268  0.0365 -0.4813 -0.3698
  151loPI    C1 2401   0.675   9.817   9.930 -0.1006 -0.1639 -0.3627
  151loPI    C2 2402   0.593   9.464  10.100  0.0665  0.0396  0.1619
  151loPI    C3 2403   0.321   9.757  10.107  0.0001 -0.0132 -0.1042
  151loPI   PO4 2404   0.834   9.809   9.746 -0.0809  0.0338 -0.2318
  151loPI   GL1 2405   0.936   9.707   9.320 -0.2464 -0.2433 -0.2024
  151loPI   GL2 2406   1.186   9.534   9.129 -0.2042  0.1156  0.0830
  151loPI   C1A 2407   0.839   9.913   8.997 -0.0810 -0.0565  0.3782
  151loPI   C2A 2408   0.684   9.879   8.557  0.1396 -0.2466  0.0825
  151loPI   C3A 2409   0.283   9.798   8.309 -0.0536 -0.1959  0.2563
  151loPI   C4A 2410  -0.088   9.700   8.130 -0.2254  0.0997 -0.1616
  151loPI   C5A 2411  -0.156   9.458   7.774  0.1578  0.1988  0.0814
  151loPI   C6A 2412  -0.049   9.216   7.493 -0.1971 -0.1464 -0.1299
  151loPI   C1B 2413   1.277   9.811   8.742  0.0484  0.0000 -0.0137
  151loPI   C2B 2414   1.346  10.011   8.341 -0.2730  0.1095 -0.2327
  151loPI   C3B 2415   1.606  10.344   8.108  0.2130 -0.1786 -0.1624
  151loPI   C4B 2416   2.043  10.473   7.970  0.3952  0.1503  0.2120
  152loPI    C1 2417  14.626  15.015  10.235  0.2589 -0.0214 -0.0984
  152loPI    C2 2418  14.767  14.886  10.586  0.3126 -0.1683 -0.1735
  152loPI    C3 2419  14.637  15.262  10.550  0.0199 -0.2396  0.0859
  152loPI   PO4 2420  14.737  14.967  10.039  0.0490 -0.0835 -0.1410
  152loPI   GL1 2421  15.079  14.887   9.784 -0.2045 -0.0125  0.0829
  152loPI   GL2 2422  15.298  14.702   9.775  0.1797 -0.1149  0.5808
  152loPI   C1A 2423  15.110  15.052   9.335 -0.1659 -0.0964 -0.1663
  152loPI   C2A 2424  15.147  15.220   8.972  0.0605 -0.0385  0.0463
  152loPI   C3A 2425  15.018  15.325   8.639  0.0728 -0.0164 -0.2258
  152loPI   C4A 2426  14.953  15.342   8.221  0.4739  0.3099  0.1730
  152loPI   C5A 2427  15.152  14.956   7.950  0.2705  0.1115  0.2458
  152loPI   C6A 2428  15.499  14.720   7.744 -0.3070  0.1068 -0.1197
  152loPI   C1B 2429  15.471  14.641   9.388  0.1418  0.1086  0.1741
  152loPI   C2B 2430  15.662  14.365   9.082 -0.1182  0.1932  0.4000
  152loPI   C3B 2431  15.745  14.289   8.694 -0.0427  0.0130  0.0641
  152loPI   C4B 2432  15.498  14.087   8.454 -0.2907 -0.1657  0.0119
  153loPI    C1 2433   1.275  14.640  10.590 -0.0394  0.0870  0.1440
  153loPI    C2 2434   1.251  14.384  10.897 -0.1580 -0.1040 -0.0219
  153loPI    C3 2435   1.350  14.766  10.962 -0.6116 -0.0349  0.3101
  153loPI   PO4 2436   1.029  14.642  10.458 -0.0840  0.3741 -0.0833
  153loPI   GL1 2437   0.996  14.896  10.109  0.3115 -0.1007  0.0560
  153loPI   GL2 2438   1.330  14.874  10.167 -0.3260  0.1577 -0.0366
  153loPI   C1A 2439   0.821  14.674   9.610 -0.0685  0.2892 -0.2076
  153loPI   C2A 2440   0.743  14.469   9.140 -0.0173 -0.1892 -0.0374
  153loPI   C3A 2441   0.488  14.338   8.924 -0.1945 -0.2053  0.3095
  153loPI   C4A 2442   0.190  14.375   8.679 -0.2654  0.1367 -0.0740
  153loPI   C5A 2443  -0.159  14.410   8.597 -0.2242 -0.1181 -0.1542
  153loPI   C6A 2444  -0.476  14.657   8.443 -0.2879  0.1429  0.0073
  153loPI   C1B 2445   1.397  14.749   9.612  0.1699 -0.1132 -0.1759
  153loPI   C2B 2446   1.570  14.764   9.219 -0.1047 -0.0447 -0.0678
  153loPI   C3B 2447   1.684  15.113   8.940 -0.1422 -0.2143 -0.0655
  153loPI   C4B 2448   1.896  15.196   8.559 -0.1169  0.1002  0.2586
  154loPI    C1 2449   8.474  11.481   9.712 -0.0772  0.1838 -0.3095
  154loPI    C2 2450   8.723  11.170   9.680 -0.2854 -0.0285  0.0693
  154loPI    C3 2451   8.869  11.538   9.733 -0.0381 -0.0593 -0.3558
  154loPI   PO4 2452   8.229  11.321   9.628 -0.2780 -0.0439  0.1211
  154loPI   GL1 2453   8.025  11.266   9.223  0.2405 -0.0598 -0.2942
  154loPI   GL2 2454   8.017  10.922   9.256  0.1341 -0.0691 -0.0257
  154loPI   C1A 2455   8.157  11.330   8.832 -0.2845  0.0785 -0.3824
  154loPI   C2A 2456   8.216  10.976   8.577 -0.1093 -0.0686 -0.2717
  154loPI   C3A 2457   8.247  10.790   8.183 -0.3188 -0.0295  0.1071
  154loPI   C4A 2458   8.089  10.818   7.776  0.1483  0.1168 -0.3907
  154loPI   C5A 2459   8.032  10.831   7.280 -0.0441 -0.2167 -0.0024
  154loPI   C6A 2460   8.294  10.828   6.933 -0.1882 -0.0003  0.0621
  154loPI   C1B 2461   8.352  10.685   8.997  0.1953  0.4981  0.0795
  154loPI   C2B 2462   8.408  10.543   8.568  0.1758  0.0494 -0.2106
  154loPI   C3B 2463   8.428  10.222   8.332 -0.0768 -0.1830  0.3274
  154loPI   C4B 2464   8.309  10.100   7.864 -0.0543 -0.3878  0.1108
  155loPI    C1 2465   4.329  12.761  10.089  0.1128 -0.0954  0.1297
  155loPI    C2 2466   4.342  12.917  10.457  0.1139 -0.2263  0.1859
  155loPI    C3 2467   4.681  12.818  10.270  0.1320  0.1240  0.0256
  155loPI   PO4 2468   4.139  12.996   9.939  0.0869 -0.0585 -0.0077
  155loPI   GL1 2469   4.059  13.070   9.561 -0.2514 -0.1627  0.2137
  155loPI   GL2 2470   4.193  12.860   9.426 -0.1576 -0.2598  0.3235
  155loPI   C1A 2471   3.814  13.166   9.154  0.1353 -0.1187 -0.0377
  155loPI   C2A 2472   3.725  13.211   8.723  0.0885  0.1632  0.2572
  155loPI   C3A 2473   3.419  13.186   8.352 -0.0872  0.1280 -0.0860
  155loPI   C4A 2474   3.257  13.402   8.086  0.1214 -0.2242 -0.1954
  155loPI   C5A 2475   2.940  13.439   7.859 -0.1350 -0.1985 -0.3181
  155loPI   C6A 2476   2.682  13.541   7.511  0.2308 -0.1209 -0.1858
  155loPI   C1B 2477   4.328  12.683   9.094  0.1934 -0.4135 -0.1893
  155loPI   C2B 2478   4.402  12.463   8.706 -0.2485 -0.0417 -0.1664
  155loPI   C3B 2479   4.411  12.448   8.311 -0.1191  0.0383 -0.3718
  155loPI   C4B 2480   3.957  12.506   8.200  0.0128 -0.3677 -0.0525
  156loPI    C1 2481   5.719   6.658  10.037 -0.1188 -0.2364 -0.0310
  156loPI    C2 2482   5.411   6.604  10.287 -0.0758  0.2494  0.1362
  156loPI    C3 2483   5.784   6.625  10.430  0.0246 -0.1746 -0.0490
  156loPI   PO4 2484   5.789   6.395   9.871 -0.1298 -0.2280 -0.3488
  156loPI   GL1 2485   6.007   6.385   9.560 -0.1873 -0.1013 -0.1569
  156loPI   GL2 2486   5.816   6.736   9.464  0.0089 -0.0388  0.0826
  156loPI   C1A 2487   5.890   6.315   9.215 -0.0046 -0.2503  0.0117
  156loPI   C2A 2488   5.845   6.378   8.773  0.0139  0.0983 -0.0158
  156loPI   C3A 2489   5.614   6.280   8.377 -0.1297  0.1922 -0.1152
  156loPI   C4A 2490   5.371   6.327   7.939 -0.0387 -0.0970 -0.0233
  156loPI   C5A 2491   5.395   6.624   7.665  0.0605  0.0842  0.0174
  156loPI   C6A 2492   5.637   6.831   7.221 -0.2212  0.1022 -0.2435
  156loPI   C1B 2493   5.646   6.889   9.157  0.2405 -0.2670  0.1195
  156loPI   C2B 2494   5.502   7.193   8.878 -0.3301  0.1506 -0.0659
  156loPI   C3B 2495   5.472   7.255   8.448  0.0520  0.1791 -0.0870
  156loPI   C4B 2496   5.708   7.156   8.185  0.0626  0.0124  0.0299
  157loPI    C1 2497   9.455   6.055   9.964 -0.0237 -0.0905  0.0917
  157loPI    C2 2498   9.711   6.362   9.984  0.1445 -0.2290  0.0868
  157loPI    C3 2499   9.571   6.196  10.320 -0.1576  0.0247  0.0906
  157loPI   PO4 2500   9.370   6.069   9.754 -0.3057 -0.1184  0.2805
  157loPI   GL1 2501   9.542   6.304   9.452  0.0846 -0.0744 -0.0783
  157loPI   GL2 2502   9.859   6.325   9.373 -0.0616 -0.2067 -0.1092
  157loPI   C1A 2503   9.377   6.453   9.086 -0.0689 -0.2786  0.1274
  157loPI   C2A 2504   9.637   6.594   8.827 -0.1752  0.3246 -0.0856
  157loPI   C3A 2505   9.935   6.682   8.557 -0.0128 -0.1122 -0.2609
  157loPI   C4A 2506  10.319   6.826   8.483 -0.0063  0.0701 -0.1757
  157loPI   C5A 2507  10.588   6.933   8.117 -0.0292  0.3485 -0.0890
  157loPI   C6A 2508  10.743   7.395   7.785  0.2529 -0.2881  0.0454
  157loPI   C1B 2509   9.870   6.198   8.926  0.5210 -0.1303 -0.0808
  157loPI   C2B 2510   9.838   6.141   8.545  0.4151 -0.0370  0.0578
  157loPI   C3B 2511  10.164   6.019   8.202 -0.1588 -0.0784  0.4567
  157loPI   C4B 2512  10.387   5.811   7.858  0.0703 -0.2160  0.0686
  158loPI    C1 2513  10.404  11.178  10.620 -0.2886  0.2938 -0.0644
  158loPI    C2 2514  10.716  11.277  10.850 -0.1238 -0.1767 -0.0749
  158loPI    C3 2515  10.435  11.028  10.989 -0.2023 -0.1946 -0.2619
  158loPI   PO4 2516  10.429  11.185  10.318 -0.2402 -0.2009  0.1172
  158loPI   GL1 2517  10.541  11.307   9.961 -0.3079  0.2710  0.0250
  158loPI   GL2 2518  10.517  11.071   9.784 -0.2479  0.0622  0.1869
  158loPI   C1A 2519  10.823  11.521   9.726 -0.2461  0.2822 -0.1167
  158loPI   C2A 2520  10.949  11.643   9.296 -0.0606  0.2049 -0.0487
  158loPI   C3A 2521  10.864  11.668   8.835  0.0993  0.2065 -0.2091
  158loPI   C4A 2522  10.889  11.658   8.412  0.1803 -0.1503  0.3141
  158loPI   C5A 2523  10.868  11.644   7.906 -0.0507  0.0549 -0.2994
  158loPI   C6A 2524  10.683  11.500   7.549 -0.1730 -0.2150 -0.1209
  158loPI   C1B 2525  10.507  11.309   9.435  0.0270  0.1878  0.1674
  158loPI   C2B 2526  10.737  11.248   9.018  0.2678 -0.0007 -0.0535
  158loPI   C3B 2527  10.805  11.228   8.561  0.0950  0.0316  0.0018
  158loPI   C4B 2528  10.930  10.981   8.129  0.1322 -0.1853  0.0351
  159loPI    C1 2529   6.730   9.289   9.748  0.0213  0.0370  0.2113
  159loPI    C2 2530   6.619   9.350  10.127  0.0586 -0.1701  0.2565
  159loPI    C3 2531   6.697   8.979   9.999  0.0327 -0.1026  0.0421
  159loPI   PO4 2532   6.609   9.382   9.605 -0.1427  0.0163 -0.0212
  159loPI   GL1 2533   6.561   9.508   9.131 -0.1808  0.3592  0.0549
  159loPI   GL2 2534   6.285   9.575   9.031  0.1170  0.0039 -0.0829
  159loPI   C1A 2535   6.882   9.602   8.875 -0.4331  0.1155  0.2155
  159loPI   C2A 2536   7.127   9.636   8.525  0.0316  0.1385  0.0673
  159loPI   C3A 2537   7.074   9.617   8.077  0.0266 -0.0729  0.2433
  159loPI   C4A 2538   7.133   9.675   7.644 -0.3089  0.2421  0.0229
  159loPI   C5A 2539   6.917   9.587   7.390  0.2909 -0.1183  0.4097
  159loPI   C6A 2540   6.645   9.404   7.035  0.1835  0.4882 -0.4929
  159loPI   C1B 2541   6.465   9.506   8.644  0.0011  0.1581 -0.1136
  159loPI   C2B 2542   6.451   9.344   8.272 -0.2915  0.0965 -0.2186
  159loPI   C3B 2543   6.369   9.338   7.869 -0.0431 -0.1029  0.1505
  159loPI   C4B 2544   6.391   9.283   7.473 -0.1355  0.1320 -0.0623
  160loPI    C1 2545   3.602   9.421   9.949 -0.3210 -0.1114 -0.1565
  160loPI    C2 2546   3.686   9.272  10.310  0.1352 -0.0645 -0.2366
  160loPI    C3 2547   3.365   9.504  10.259 -0.0179 -0.1947  0.1031
  160loPI   PO4 2548   3.929   9.162   9.825  0.1290  0.3039 -0.0715
  160loPI   GL1 2549   4.060   9.130   9.399  0.1484 -0.0271  0.0418
  160loPI   GL2 2550   4.412   9.018   9.290 -0.0422 -0.0053 -0.0588
  160loPI   C1A 2551   3.838   9.297   9.036 -0.2394 -0.1220  0.3095
  160loPI   C2A 2552   3.710   9.405   8.608 -0.2667 -0.0012  0.0074
  160loPI   C3A 2553   3.296   9.514   8.407  0.0111 -0.1934 -0.2034
  160loPI   C4A 2554   3.010   9.622   8.210  0.3730  0.0289 -0.1613
  160loPI   C5A 2555   2.657   9.831   7.950  0.0517 -0.0942  0.1146
  160loPI   C6A 2556   2.402  10.088   7.958  0.0340 -0.2228 -0.0744
  160loPI   C1B 2557   4.608   9.194   9.002 -0.0390 -0.0826 -0.0565
  160loPI   C2B 2558   4.484   9.013   8.564  0.2156 -0.1019 -0.0329
  160loPI   C3B 2559   4.106   9.130   8.388  0.0563  0.0334  0.2599
  160loPI   C4B 2560   3.907   9.524   8.133  0.2838 -0.0253  0.0547
  161loPI    C1 2561   0.942   5.626  10.733 -0.1272 -0.0810  0.2635
  161loPI    C2 2562   1.296   5.535  10.895  0.0475 -0.2954 -0.2195
  161loPI    C3 2563   1.003   5.264  10.891 -0.1323 -0.1159  0.1855
  161loPI   PO4 2564   1.109   5.772  10.456 -0.1399  0.1127 -0.3026
  161loPI   GL1 2565   1.097   5.652  10.043 -0.1757  0.1801 -0.2351
  161loPI   GL2 2566   1.001   5.361   9.983 -0.2156  0.3588  0.2562
  161loPI   C1A 2567   1.169   5.933   9.570 -0.0148  0.0958 -0.0428
  161loPI   C2A 2568   1.249   6.046   9.216  0.0451  0.2209  0.2118
  161loPI   C3A 2569   1.120   5.862   8.798  0.0245  0.0092  0.0904
  161loPI   C4A 2570   1.098   5.670   8.447  0.4503 -0.0904 -0.1280
  161loPI   C5A 2571   0.765   5.394   8.246 -0.1120 -0.2339  0.4776
  161loPI   C6A 2572   0.414   5.354   8.004 -0.0208 -0.1317 -0.0209
  161loPI   C1B 2573   1.061   5.449   9.568  0.0756 -0.0976  0.0281
  161loPI   C2B 2574   1.174   5.544   9.180 -0.0814  0.2072  0.0610
  161loPI   C3B 2575   1.208   5.321   8.813 -0.0854  0.2375  0.1968
  161loPI   C4B 2576   1.086   5.081   8.518 -0.1181  0.3505  0.1561
  162loPI    C1 2577   6.160   9.769   9.611 -0.0859  0.2150 -0.2888
  162loPI    C2 2578   6.057  10.001   9.921  0.0864  0.0157 -0.0790
  162loPI    C3 2579   6.119   9.609   9.975  0.2745  0.0074 -0.3352
  162loPI   PO4 2580   6.345   9.881   9.516  0.1878  0.1427 -0.1092
  162loPI   GL1 2581   6.478  10.002   9.117  0.0625  0.0524  0.1577
  162loPI   GL2 2582   6.687  10.356   9.208  0.1794  0.0634  0.0960
  162loPI   C1A 2583   6.579   9.990   8.619 -0.2553 -0.1037 -0.0894
  162loPI   C2A 2584   6.532   9.783   8.248  0.0367 -0.0184  0.3126
  162loPI   C3A 2585   6.690   9.774   7.808  0.1299  0.0529  0.1786
  162loPI   C4A 2586   6.410   9.785   7.421  0.1286 -0.1164 -0.1184
  162loPI   C5A 2587   6.225   9.578   7.056 -0.5155 -0.3448 -0.2162
  162loPI   C6A 2588   6.199   9.160   7.005 -0.0867 -0.2881  0.0142
  162loPI   C1B 2589   6.448  10.418   8.869  0.1355  0.0264 -0.0871
  162loPI   C2B 2590   6.466  10.414   8.456 -0.0535  0.0488 -0.0163
  162loPI   C3B 2591   6.568  10.350   8.016 -0.1568 -0.0868 -0.2474
  162loPI   C4B 2592   6.453  10.304   7.617  0.2947  0.1273 -0.1285
  163loPI    C1 2593  11.904  14.609  10.344  0.2152 -0.1002 -0.1118
  163loPI    C2 2594  11.833  14.746   9.975 -0.1286  0.1233  0.0327
  163loPI    C3 2595  12.053  14.962  10.230  0.0825 -0.0165 -0.0288
  163loPI   PO4 2596  11.738  14.380  10.329  0.1086  0.0141  0.1995
  163loPI   GL1 2597  11.714  14.167   9.858  0.0848  0.2462 -0.1667
  163loPI   GL2 2598  11.668  14.362   9.706 -0.1800 -0.3970 -0.1466
  163loPI   C1A 2599  11.751  13.928   9.406 -0.0826  0.0276  0.0542
  163loPI   C2A 2600  11.637  13.711   9.019 -0.0644  0.1878  0.0996
  163loPI   C3A 2601  11.472  13.348   8.652 -0.1288 -0.2278  0.1899
  163loPI   C4A 2602  11.414  13.483   8.249 -0.0196 -0.0377 -0.1693
  163loPI   C5A 2603  11.618  13.661   7.862 -0.0379 -0.0737 -0.1641
  163loPI   C6A 2604  11.946  13.956   7.728 -0.0804 -0.0758 -0.0640
  163loPI   C1B 2605  11.734  14.486   9.288  0.1086 -0.0020 -0.2348
  163loPI   C2B 2606  11.992  14.268   8.905 -0.2376 -0.0534 -0.0278
  163loPI   C3B 2607  12.055  13.893   8.716  0.3267 -0.0577  0.3578
  163loPI   C4B 2608  11.916  13.639   8.327  0.3598  0.1655  0.0492
  164loPI    C1 2609   9.938   5.838   9.979  0.0083  0.1545  0.0101
  164loPI    C2 2610  10.056   6.138  10.215  0.0361  0.1239  0.0352
  164loPI    C3 2611   9.960   5.784  10.374  0.0626  0.1008  0.0000
  164loPI   PO4 2612   9.882   5.941   9.752  0.2835 -0.1333 -0.1188
  164loPI   GL1 2613   9.685   5.832   9.333  0.1319  0.1204 -0.2018
  164loPI   GL2 2614   9.429   5.874   9.276  0.0182 -0.1165  0.2557
  164loPI   C1A 2615   9.754   5.730   8.863  0.2711  0.1132  0.0016
  164loPI   C2A 2616   9.839   5.651   8.375  0.1580 -0.1040 -0.1122
  164loPI   C3A 2617   9.970   5.520   7.915 -0.0870  0.1474 -0.1510
  164loPI   C4A 2618   9.909   5.180   7.556 -0.0486  0.0518  0.2451
  164loPI   C5A 2619   9.876   4.945   7.166 -0.1731 -0.1682  0.0493
  164loPI   C6A 2620  10.042   4.600   7.016  0.0972  0.2510 -0.2338
  164loPI   C1B 2621   9.344   6.039   8.849 -0.2045  0.2651 -0.0477
  164loPI   C2B 2622   9.410   5.943   8.474  0.1984  0.0144  0.4011
  164loPI   C3B 2623   9.616   5.994   8.067  0.0917  0.2209  0.1787
  164loPI   C4B 2624   9.764   6.038   7.694 -0.2202  0.0402  0.1150
  165loPI    C1 2625   4.604   3.119  10.291 -0.0026 -0.1530  0.0869
  165loPI    C2 2626   4.211   3.044  10.282 -0.0245 -0.0185 -0.1428
  165loPI    C3 2627   4.389   3.135  10.628 -0.2306  0.1017 -0.0662
  165loPI   PO4 2628   4.564   3.282   9.996 -0.3368 -0.0248  0.1535
  165loPI   GL1 2629   4.373   3.075   9.609  0.0838  0.1159 -0.1029
  165loPI   GL2 2630   4.137   3.340   9.550  0.0006 -0.3297 -0.1089
  165loPI   C1A 2631   4.508   3.110   9.157 -0.0567 -0.1686 -0.2850
  165loPI   C2A 2632   4.778   3.395   8.927 -0.2235 -0.0906 -0.1422
  165loPI   C3A 2633   4.765   3.439   8.488 -0.0371  0.0095  0.1945
  165loPI   C4A 2634   4.492   3.425   8.156  0.0789  0.0311 -0.3667
  165loPI   C5A 2635   4.533   3.460   7.813 -0.0443 -0.0915  0.4635
  165loPI   C6A 2636   4.288   3.549   7.532 -0.0434  0.2217  0.1671
  165loPI   C1B 2637   3.950   3.093   9.226  0.0112  0.1298  0.0968
  165loPI   C2B 2638   3.790   3.152   8.767  0.1681 -0.2812  0.1862
  165loPI   C3B 2639   3.976   3.234   8.354 -0.2502 -0.2303  0.3395
  165loPI   C4B 2640   4.095   3.331   7.942  0.0801  0.1394 -0.0884
  166loPI    C1 2641  17.691  12.643  10.797  0.1821 -0.1835 -0.2176
  166loPI    C2 2642  17.647  12.326  11.038  0.2145  0.1595  0.2530
  166loPI    C3 2643  17.483  12.678  11.136  0.1500  0.2873 -0.2790
  166loPI   PO4 2644  17.697  12.485  10.555 -0.1066  0.0794  0.0811
  166loPI   GL1 2645  17.679  12.511   9.990  0.0331  0.1665  0.0682
  166loPI   GL2 2646  17.966  12.503  10.012  0.0646  0.0892  0.0314
  166loPI   C1A 2647  17.973  12.699   9.584 -0.1908  0.1209  0.0769
  166loPI   C2A 2648  18.100  12.809   9.178 -0.2166 -0.1805  0.0375
  166loPI   C3A 2649  18.388  12.838   8.846  0.0805 -0.1739  0.2221
  166loPI   C4A 2650  18.421  12.971   8.406 -0.2029  0.0041  0.0094
  166loPI   C5A 2651  18.255  13.067   8.077 -0.1921 -0.1718  0.0450
  166loPI   C6A 2652  18.214  13.250   7.704 -0.0136  0.3740 -0.1670
  166loPI   C1B 2653  18.362  12.341   9.875 -0.2198 -0.3559  0.0609
  166loPI   C2B 2654  18.478  12.347   9.497  0.0719 -0.2599  0.2345
  166loPI   C3B 2655  18.355  12.433   9.099  0.2148 -0.0697  0.1391
  166loPI   C4B 2656  18.359  12.380   8.625  0.1072  0.0072 -0.2813
  167loPI    C1 2657   2.855   4.349   9.941  0.1443 -0.3357  0.0632
  167loPI    C2 2658   2.602   4.230  10.227 -0.0307  0.0873  0.0920
  167loPI    C3 2659   2.966   4.363  10.325 -0.0235  0.0600  0.1025
  167loPI   PO4 2660   2.660   4.200   9.632  0.2341 -0.1865  0.3194
  167loPI   GL1 2661   2.826   4.044   9.243  0.1695 -0.1184 -0.3221
  167loPI   GL2 2662   2.889   3.801   8.981 -0.1088 -0.0112  0.0959
  167loPI   C1A 2663   2.963   4.494   9.085  0.0499  0.1169  0.0595
  167loPI   C2A 2664   2.948   4.630   8.616 -0.2586 -0.0293  0.0303
  167loPI   C3A 2665   2.634   4.628   8.264 -0.1204 -0.1050 -0.1364
  167loPI   C4A 2666   2.417   4.777   7.928 -0.2525 -0.2543 -0.0284
  167loPI   C5A 2667   2.149   4.925   7.671 -0.2059 -0.2208  0.1674
  167loPI   C6A 2668   2.002   5.334   7.426  0.1564 -0.2734  0.2594
  167loPI   C1B 2669   3.367   3.606   8.861 -0.2740  0.0366 -0.1449
  167loPI   C2B 2670   3.535   3.587   8.340 -0.2391 -0.0049 -0.3250
  167loPI   C3B 2671   3.510   3.281   8.080  0.1869  0.1152  0.0564
  167loPI   C4B 2672   3.657   3.096   7.745 -0.0415 -0.1501  0.0195
  168loPI    C1 2673  12.163   2.114  10.039  0.1412 -0.3067 -0.1140
  168loPI    C2 2674  11.848   2.313   9.894  0.0814 -0.3373 -0.0268
  168loPI    C3 2675  11.909   2.297  10.289  0.2951 -0.1754 -0.0516
  168loPI   PO4 2676  12.410   2.286   9.843  0.0565 -0.2483 -0.0576
  168loPI   GL1 2677  12.689   2.349   9.503  0.0142  0.2895  0.0387
  168loPI   GL2 2678  12.618   2.155   9.401  0.1183  0.1449  0.0347
  168loPI   C1A 2679  12.806   2.430   8.996  0.0329  0.5723 -0.2138
  168loPI   C2A 2680  12.947   2.498   8.581  0.1013  0.3996  0.2536
  168loPI   C3A 2681  12.741   2.333   8.383 -0.1339 -0.0814  0.0110
  168loPI   C4A 2682  12.631   2.421   8.044 -0.0924  0.2756 -0.1892
  168loPI   C5A 2683  12.694   2.244   7.625  0.0825  0.1457  0.1645
  168loPI   C6A 2684  12.759   1.794   7.607 -0.1743  0.0059 -0.1016
  168loPI   C1B 2685  12.536   1.956   8.920  0.0759 -0.4142 -0.2742
  168loPI   C2B 2686  12.694   1.863   8.508  0.2653  0.1844  0.1866
  168loPI   C3B 2687  13.024   1.900   8.056  0.1283 -0.3402 -0.2682
  168loPI   C4B 2688  13.048   1.413   7.860 -0.1056  0.2332  0.2649
  169loPI    C1 2689  13.112   4.302  10.004  0.0102  0.0160 -0.0574
  169loPI    C2 2690  13.185   3.962   9.806  0.0211 -0.0029 -0.0208
  169loPI    C3 2691  13.374   4.037  10.151 -0.3209 -0.1720  0.2092
  169loPI   PO4 2692  13.160   4.478   9.767 -0.2088  0.2492  0.1717
  169loPI   GL1 2693  13.023   4.237   9.437  0.2148 -0.0727  0.1308
  169loPI   GL2 2694  13.307   4.032   9.333 -0.1442  0.1748  0.0027
  169loPI   C1A 2695  12.811   4.388   8.948 -0.0393 -0.2711  0.1643
  169loPI   C2A 2696  12.792   4.463   8.580 -0.0137 -0.1819 -0.2285
  169loPI   C3A 2697  12.538   4.536   8.216 -0.0030  0.0858  0.1621
  169loPI   C4A 2698  12.262   4.739   8.091  0.1154 -0.2701 -0.1332
  169loPI   C5A 2699  11.798   4.831   8.107 -0.1868  0.0632  0.0011
  169loPI   C6A 2700  11.508   4.979   7.938  0.0097  0.2016  0.2889
  169loPI   C1B 2701  13.325   3.876   8.920 -0.1728 -0.2841  0.0249
  169loPI   C2B 2702  13.393   3.755   8.540 -0.0758 -0.0495  0.2357
  169loPI   C3B 2703  13.536   3.819   8.149  0.1686  0.2855  0.0114
  169loPI   C4B 2704  13.644   4.035   7.765 -0.2625  0.1344  0.0925
  170loPI    C1 2705   6.916  13.358  10.049  0.3103 -0.1010 -0.2236
  170loPI    C2 2706   7.150  13.408  10.369 -0.0851 -0.0225  0.0603
  170loPI    C3 2707   6.941  13.070  10.325 -0.1885  0.0500 -0.0101
  170loPI   PO4 2708   7.082  13.513   9.822 -0.1910 -0.2767 -0.2331
  170loPI   GL1 2709   7.233  13.520   9.532  0.0481  0.1378  0.0467
  170loPI   GL2 2710   7.396  13.701   9.374  0.1132 -0.1198  0.0346
  170loPI   C1A 2711   7.320  13.251   9.110  0.2079  0.2751 -0.0500
  170loPI   C2A 2712   7.081  13.259   8.736  0.2225  0.0393  0.2656
  170loPI   C3A 2713   6.893  13.078   8.388  0.1730  0.0073  0.1069
  170loPI   C4A 2714   7.048  13.001   7.991 -0.0687  0.1414 -0.0092
  170loPI   C5A 2715   7.117  13.231   7.700  0.1224  0.1298 -0.2969
  170loPI   C6A 2716   7.051  13.134   7.337  0.1584  0.1972  0.2316
  170loPI   C1B 2717   7.384  13.740   8.957 -0.1714 -0.1380 -0.1986
  170loPI   C2B 2718   7.358  13.675   8.603 -0.1587 -0.4823 -0.2823
  170loPI   C3B 2719   7.503  13.799   8.183  0.0467  0.0117 -0.0533
  170loPI   C4B 2720   7.280  13.737   7.781 -0.1654  0.1058 -0.2318
  171loPI    C1 2721  13.464   9.051  10.459 -0.0299  0.1546  0.1937
  171loPI    C2 2722  13.311   8.681  10.457 -0.0969  0.1822 -0.0561
  171loPI    C3 2723  13.334   8.886  10.799 -0.1501 -0.0155  0.0672
  171loPI   PO4 2724  13.568   9.053  10.243  0.2733  0.1261  0.0877
  171loPI   GL1 2725  13.690   8.720  10.015  0.1128  0.1519 -0.2144
  171loPI   GL2 2726  13.908   8.595   9.763  0.0481  0.2191  0.0280
  171loPI   C1A 2727  13.541   8.747   9.498 -0.2995 -0.0047 -0.3575
  171loPI   C2A 2728  13.304   8.625   9.091 -0.0794 -0.1615  0.2344
  171loPI   C3A 2729  12.899   8.756   8.837 -0.1864 -0.3140  0.3543
  171loPI   C4A 2730  12.779   9.180   9.007 -0.3985 -0.1839 -0.1169
  171loPI   C5A 2731  12.622   9.371   8.740 -0.1213 -0.1463 -0.1012
  171loPI   C6A 2732  12.701   9.451   8.347 -0.0122  0.0524  0.1194
  171loPI   C1B 2733  14.157   8.903   9.539 -0.1168  0.0248 -0.1861
  171loPI   C2B 2734  14.154   9.230   9.260  0.0785 -0.2793  0.2569
  171loPI   C3B 2735  14.004   9.280   8.883  0.3210 -0.1056 -0.2957
  171loPI   C4B 2736  13.686   9.503   8.606  0.0659 -0.2142 -0.1815
  172loPI    C1 2737   8.277   8.022   9.915  0.0324  0.0189  0.0577
  172loPI    C2 2738   8.664   8.059   9.820  0.0820 -0.0993  0.2100
  172loPI    C3 2739   8.523   8.228  10.154  0.0029 -0.0620  0.1582
  172loPI   PO4 2740   8.014   8.234   9.702 -0.4112  0.1617 -0.3002
  172loPI   GL1 2741   7.981   8.532   9.346 -0.1630 -0.0363  0.3858
  172loPI   GL2 2742   8.181   8.471   9.124 -0.2529 -0.1106 -0.0201
  172loPI   C1A 2743   7.683   8.611   9.012  0.0787 -0.0641  0.0670
  172loPI   C2A 2744   7.506   8.698   8.566  0.2992  0.2409  0.0091
  172loPI   C3A 2745   7.615   8.657   8.039 -0.3150 -0.1187  0.1145
  172loPI   C4A 2746   7.514   8.645   7.645 -0.0449  0.2220  0.2357
  172loPI   C5A 2747   7.174   8.627   7.336  0.0493 -0.2750 -0.1324
  172loPI   C6A 2748   6.965   8.423   7.017  0.0536 -0.0975  0.1375
  172loPI   C1B 2749   8.115   8.556   8.657  0.0804 -0.1726 -0.1790
  172loPI   C2B 2750   8.110   8.653   8.223  0.0478  0.0513  0.4366
  172loPI   C3B 2751   8.358   8.767   7.802  0.2671 -0.1208  0.2282
  172loPI   C4B 2752   8.481   8.893   7.388 -0.0733 -0.1563 -0.1533
  173loPI    C1 2753   2.392   0.113  10.284  0.0442  0.2752  0.0425
  173loPI    C2 2754   2.513  -0.053   9.940  0.0409  0.1669  0.0931
  173loPI    C3 2755   2.720   0.250  10.100  0.3861 -0.1690  0.2990
  173loPI   PO4 2756   2.080   0.105  10.205  0.2221  0.0982  0.0369
  173loPI   GL1 2757   1.892  -0.081   9.836 -0.1967 -0.0413  0.0271
  173loPI   GL2 2758   1.650   0.078   9.726  0.3858 -0.0569  0.0542
  173loPI   C1A 2759   2.072  -0.091   9.473  0.0797  0.1553  0.1606
  173loPI   C2A 2760   2.285  -0.238   9.151  0.0186  0.0234 -0.3040
  173loPI   C3A 2761   2.187  -0.410   8.725 -0.2111  0.0979 -0.0604
  173loPI   C4A 2762   1.987  -0.541   8.346  0.0813 -0.0130  0.1877
  173loPI   C5A 2763   1.888  -0.666   8.004  0.2172 -0.1553 -0.5231
  173loPI   C6A 2764   2.170  -0.708   7.670 -0.0630  0.0910 -0.2773
  173loPI   C1B 2765   1.626  -0.035   9.362  0.2727  0.1203  0.0621
  173loPI   C2B 2766   1.794  -0.360   9.094 -0.0416 -0.0094  0.0975
  173loPI   C3B 2767   1.758  -0.639   8.772 -0.2521 -0.0224  0.0996
  173loPI   C4B 2768   1.668  -0.906   8.412 -0.2912  0.1320 -0.0399
  174loPI    C1 2769  17.770  11.571  10.526 -0.2330 -0.0113 -0.2492
  174loPI    C2 2770  17.449  11.545  10.763 -0.0057  0.1572  0.0865
  174loPI    C3 2771  17.742  11.274  10.792 -0.1564 -0.0552 -0.2896
  174loPI   PO4 2772  17.762  11.532  10.231  0.1278  0.0920 -0.0089
  174loPI   GL1 2773  17.736  11.506   9.760 -0.1619  0.1568  0.1319
  174loPI   GL2 2774  17.708  11.891   9.828 -0.1512 -0.1769 -0.1032
  174loPI   C1A 2775  17.714  11.720   9.291  0.1205  0.0230 -0.2453
  174loPI   C2A 2776  17.724  11.559   8.928  0.2830 -0.1135 -0.1655
  174loPI   C3A 2777  17.811  11.582   8.533 -0.1933 -0.1676 -0.0870
  174loPI   C4A 2778  18.053  11.379   8.234  0.0627 -0.0267  0.0168
  174loPI   C5A 2779  18.116  11.010   8.095  0.1314  0.2051 -0.0097
  174loPI   C6A 2780  18.003  10.619   8.340  0.1097  0.4416  0.1903
  174loPI   C1B 2781  17.921  12.179   9.543  0.2084  0.1316 -0.2856
  174loPI   C2B 2782  17.878  12.306   9.034  0.0733 -0.2416 -0.1260
  174loPI   C3B 2783  17.865  12.546   8.758 -0.1828  0.4253  0.2018
  174loPI   C4B 2784  17.951  12.771   8.432  0.1128 -0.0962 -0.1224
  175loPI    C1 2785   3.509  15.553  10.335  0.4555  0.0748 -0.1086
  175loPI    C2 2786   3.521  15.329  10.667 -0.0688  0.0994 -0.0651
  175loPI    C3 2787   3.777  15.633  10.622  0.2032 -0.0878  0.1791
  175loPI   PO4 2788   3.301  15.530  10.267 -0.1216 -0.1630  0.2212
  175loPI   GL1 2789   2.973  15.641  10.124  0.1122  0.1810  0.1492
  175loPI   GL2 2790   2.692  15.607  10.164  0.1358  0.3278  0.0110
  175loPI   C1A 2791   2.915  15.773   9.689  0.0385 -0.0221  0.1558
  175loPI   C2A 2792   2.911  16.078   9.382 -0.0599  0.1307 -0.1258
  175loPI   C3A 2793   2.719  16.096   9.006 -0.0387 -0.1174  0.0351
  175loPI   C4A 2794   2.652  16.169   8.648 -0.1636 -0.0577 -0.0130
  175loPI   C5A 2795   2.655  15.921   8.334 -0.1805 -0.0536  0.0194
  175loPI   C6A 2796   2.722  15.644   8.245 -0.2289  0.0464  0.1265
  175loPI   C1B 2797   2.456  15.886   9.890 -0.0647  0.2339  0.1436
  175loPI   C2B 2798   2.342  15.857   9.488 -0.0591 -0.1879  0.3296
  175loPI   C3B 2799   2.240  15.920   9.088  0.1517  0.2275 -0.0810
  175loPI   C4B 2800   2.199  16.105   8.640  0.0171  0.0183 -0.0361
  176loPI    C1 2801  11.558  16.661  10.115 -0.0169  0.1001 -0.0379
  176loPI    C2 2802  11.758  16.706   9.772 -0.0175 -0.0052 -0.0525
  176loPI    C3 2803  11.880  16.898  10.101  0.2527 -0.2551 -0.0021
  176loPI   PO4 2804  11.332  16.666  10.067 -0.0157 -0.2073  0.0017
  176loPI   GL1 2805  10.960  16.727   9.668 -0.6288 -0.1999 -0.0657
  176loPI   GL2 2806  11.143  16.446   9.603  0.1148  0.2629 -0.1597
  176loPI   C1A 2807  10.849  16.583   9.226 -0.0779  0.1302  0.1457
  176loPI   C2A 2808  10.544  16.400   8.955  0.2759 -0.1097 -0.1439
  176loPI   C3A 2809  10.439  16.339   8.577  0.3636  0.1188 -0.2693
  176loPI   C4A 2810  10.182  16.457   8.200 -0.0778  0.2171  0.2396
  176loPI   C5A 2811   9.932  16.282   7.963 -0.0661 -0.4100 -0.2348
  176loPI   C6A 2812   9.956  16.075   7.580 -0.1114 -0.1599  0.1599
  176loPI   C1B 2813  11.476  16.505   9.263  0.3322 -0.0764  0.2002
  176loPI   C2B 2814  11.598  16.736   8.901 -0.0705 -0.0487  0.0741
  176loPI   C3B 2815  12.002  16.707   8.533  0.2010 -0.0483 -0.3242
  176loPI   C4B 2816  12.553  16.819   8.561 -0.0610  0.0020 -0.3331
  177loPI    C1 2817  13.773   3.096   9.847  0.0282 -0.3235  0.0811
  177loPI    C2 2818  13.873   2.922  10.193  0.1187  0.1544  0.3022
  177loPI    C3 2819  14.131   2.922   9.888  0.1565 -0.0096  0.3332
  177loPI   PO4 2820  13.528   2.942   9.837  0.1840 -0.0142  0.2305
  177loPI   GL1 2821  13.361   2.957   9.454  0.0487  0.1233 -0.0293
  177loPI   GL2 2822  13.029   3.025   9.274  0.0018  0.0071  0.0340
  177loPI   C1A 2823  13.490   2.892   9.045  0.0270 -0.2865  0.0919
  177loPI   C2A 2824  13.536   3.025   8.640 -0.1631  0.1675  0.4041
  177loPI   C3A 2825  13.625   2.919   8.243  0.0184 -0.3221  0.3037
  177loPI   C4A 2826  13.780   2.659   7.962  0.0749  0.1227  0.3701
  177loPI   C5A 2827  13.482   2.565   7.659  0.0385  0.1213  0.0926
  177loPI   C6A 2828  13.236   2.268   7.338  0.0302 -0.0799 -0.3139
  177loPI   C1B 2829  13.014   2.929   8.819 -0.6658 -0.2579 -0.2587
  177loPI   C2B 2830  13.077   2.907   8.327  0.1764  0.3092  0.1625
  177loPI   C3B 2831  13.104   3.088   7.974 -0.0077 -0.1526 -0.3740
  177loPI   C4B 2832  13.309   3.057   7.599 -0.1628  0.1943  0.0403
  178loPI    C1 2833   0.280   1.125  10.431 -0.1355  0.2040 -0.1391
  178loPI    C2 2834   0.220   0.753  10.299  0.0775  0.1507 -0.0905
  178loPI    C3 2835   0.241   0.825  10.692 -0.1591  0.2463 -0.0937
  178loPI   PO4 2836   0.074   1.256  10.293  0.2418  0.0519 -0.4707
  178loPI   GL1 2837  -0.126   0.972   9.990 -0.3935  0.2274  0.1037
  178loPI   GL2 2838  -0.203   0.697   9.897  0.3277  0.3139  0.1293
  178loPI   C1A 2839  -0.277   1.145   9.614  0.2996 -0.0554  0.1201
  178loPI   C2A 2840  -0.560   1.226   9.271  0.2917 -0.1830 -0.3882
  178loPI   C3A 2841  -0.552   1.425   8.846  0.1282 -0.1757  0.0340
  178loPI   C4A 2842  -0.297   1.723   8.431  0.2137 -0.0844  0.0448
  178loPI   C5A 2843   0.089   1.773   8.378 -0.0381  0.0341 -0.1343
  178loPI   C6A 2844   0.336   2.070   8.118 -0.1332  0.3671 -0.2340
  178loPI   C1B 2845  -0.037   0.749   9.499 -0.0836  0.0332 -0.2692
  178loPI   C2B 2846  -0.099   0.568   9.065 -0.1187  0.0214  0.0586
  178loPI   C3B 2847  -0.212   0.518   8.661 -0.2151  0.4580 -0.2146
  178loPI   C4B 2848  -0.278   0.356   8.275 -0.3231  0.1409 -0.2306
  179loPI    C1 2849  17.216   6.132  10.473  0.0729 -0.2569 -0.1754
  179loPI    C2 2850  17.098   6.262  10.832 -0.1809  0.1866 -0.4097
  179loPI    C3 2851  17.346   5.949  10.804 -0.2172  0.0974  0.1437
  179loPI   PO4 2852  17.032   6.111  10.314 -0.3588  0.1850 -0.1045
  179loPI   GL1 2853  17.022   6.123   9.913  0.2138 -0.0188  0.1270
  179loPI   GL2 2854  16.928   6.150   9.554  0.0903 -0.1894 -0.0845
  179loPI   C1A 2855  17.359   5.979   9.700 -0.0385  0.0362  0.1004
  179loPI   C2A 2856  17.432   5.897   9.303  0.0662  0.2343 -0.2544
  179loPI   C3A 2857  17.533   5.923   8.860  0.0730 -0.3260  0.0576
  179loPI   C4A 2858  17.739   5.973   8.428 -0.1984 -0.0698 -0.1953
  179loPI   C5A 2859  17.955   5.737   8.220 -0.0713 -0.0520 -0.0743
  179loPI   C6A 2860  17.954   5.428   7.832 -0.0627 -0.1445 -0.0197
  179loPI   C1B 2861  16.847   5.910   9.243 -0.0036 -0.1782  0.1557
  179loPI   C2B 2862  17.029   5.936   8.827 -0.1986 -0.1632 -0.1973
  179loPI   C3B 2863  17.208   6.008   8.452 -0.0535 -0.2275 -0.0026
  179loPI   C4B 2864  17.212   6.115   7.943 -0.0566  0.1166 -0.2032
  180loPI    C1 2865   9.610  12.941  10.326 -0.1693  0.1122 -0.2268
  180loPI    C2 2866   9.306  13.040  10.086 -0.4716 -0.0738  0.0709
  180loPI    C3 2867   9.386  12.655  10.160 -0.0636 -0.0321 -0.1234
  180loPI   PO4 2868   9.864  13.094  10.323  0.2582  0.1087 -0.2115
  180loPI   GL1 2869  10.086  12.945   9.975 -0.2955 -0.3511  0.0069
  180loPI   GL2 2870   9.956  12.581   9.998  0.0592 -0.3396  0.3128
  180loPI   C1A 2871  10.085  13.069   9.547 -0.2856 -0.1021 -0.1296
  180loPI   C2A 2872  10.142  13.182   9.229  0.0869  0.0376 -0.2912
  180loPI   C3A 2873  10.133  13.102   8.780 -0.1349 -0.2259  0.0392
  180loPI   C4A 2874  10.096  12.995   8.353 -0.0355  0.1444 -0.2801
  180loPI   C5A 2875   9.815  12.871   7.957  0.1515 -0.0661  0.1868
  180loPI   C6A 2876   9.715  12.332   7.980  0.0118  0.0717  0.0521
  180loPI   C1B 2877  10.023  12.564   9.574  0.0266  0.0703  0.3540
  180loPI   C2B 2878  10.074  12.701   9.076 -0.1427  0.1070  0.1118
  180loPI   C3B 2879   9.824  12.737   8.737 -0.1587  0.2339  0.3528
  180loPI   C4B 2880   9.823  12.586   8.352 -0.2735  0.0679 -0.0058
  181loPI    C1 2881   4.695  12.900   9.760 -0.0108  0.1205  0.0061
  181loPI    C2 2882   4.675  12.690   9.420 -0.1308  0.2450 -0.0645
  181loPI    C3 2883   5.020  12.713   9.620 -0.1345 -0.0825 -0.0146
  181loPI   PO4 2884   4.575  13.141   9.635  0.2791  0.0549  0.1753
  181loPI   GL1 2885   4.435  13.236   9.199  0.1775 -0.1587 -0.3691
  181loPI   GL2 2886   4.732  13.100   9.173 -0.1008 -0.1582 -0.0469
  181loPI   C1A 2887   4.215  13.353   8.877  0.1226  0.3652  0.0852
  181loPI   C2A 2888   4.104  13.619   8.509 -0.1575  0.4242 -0.1260
  181loPI   C3A 2889   3.983  14.025   8.204  0.0648  0.0176  0.2709
  181loPI   C4A 2890   4.004  14.304   7.915  0.0913  0.0465 -0.1752
  181loPI   C5A 2891   3.678  14.454   7.650 -0.0922 -0.5106 -0.0491
  181loPI   C6A 2892   3.304  14.366   7.586 -0.1968  0.0111 -0.3113
  181loPI   C1B 2893   4.471  12.955   8.736  0.1429 -0.0193  0.0070
  181loPI   C2B 2894   4.655  13.245   8.489 -0.0149  0.0352 -0.1871
  181loPI   C3B 2895   4.443  13.442   8.099 -0.1300  0.2622 -0.0932
  181loPI   C4B 2896   4.128  13.707   7.860  0.1160 -0.0563  0.0437
  182loPI    C1 2897   5.469  13.038   9.890 -0.1414  0.2471  0.3314
  182loPI    C2 2898   5.116  13.111  10.064 -0.3594 -0.2043  0.0950
  182loPI    C3 2899   5.282  12.748  10.093 -0.1164 -0.1156 -0.1454
  182loPI   PO4 2900   5.490  13.098   9.623  0.1113  0.2090  0.4413
  182loPI   GL1 2901   5.776  12.972   9.380 -0.1207 -0.3875  0.1113
  182loPI   GL2 2902   6.070  12.733   9.337  0.0575 -0.1863 -0.1842
  182loPI   C1A 2903   5.647  12.901   8.937 -0.3215 -0.1541 -0.2531
  182loPI   C2A 2904   5.712  13.012   8.483 -0.0928 -0.1943  0.1810
  182loPI   C3A 2905   5.885  13.191   8.090 -0.0233  0.1554 -0.0380
  182loPI   C4A 2906   6.155  13.270   7.792  0.0171  0.0717  0.0890
  182loPI   C5A 2907   6.218  13.547   7.459 -0.1237 -0.0032 -0.2558
  182loPI   C6A 2908   6.184  13.624   7.039  0.0928 -0.1789 -0.1326
  182loPI   C1B 2909   6.098  12.697   8.845 -0.1377  0.2210  0.0527
  182loPI   C2B 2910   6.014  12.468   8.477  0.0388 -0.0635  0.2223
  182loPI   C3B 2911   6.111  12.528   8.008  0.1260 -0.0985  0.1605
  182loPI   C4B 2912   6.116  12.280   7.597 -0.4111 -0.0116  0.1284
  183loPI    C1 2913   9.902  18.259   9.650  0.1413 -0.2001 -0.0595
  183loPI    C2 2914   9.874  18.055   9.993 -0.2221  0.2286  0.1751
  183loPI    C3 2915   9.933  18.451  10.000 -0.0096  0.2093 -0.2644
  183loPI   PO4 2916  10.034  18.096   9.472 -0.1024 -0.1263 -0.0937
  183loPI   GL1 2917  10.255  18.214   9.061  0.0187  0.0723  0.0896
  183loPI   GL2 2918  10.581  18.133   9.054 -0.4319  0.1525 -0.1805
  183loPI   C1A 2919  10.053  18.155   8.671  0.1415  0.1782  0.0853
  183loPI   C2A 2920   9.861  17.973   8.329 -0.3333 -0.0230 -0.0317
  183loPI   C3A 2921  10.120  17.788   8.083  0.1827  0.1087 -0.0953
  183loPI   C4A 2922  10.301  17.916   7.652 -0.0242 -0.4346  0.1647
  183loPI   C5A 2923  10.573  17.577   7.579  0.1162 -0.1942 -0.0442
  183loPI   C6A 2924  10.775  17.207   7.484 -0.1841  0.2625  0.1914
  183loPI   C1B 2925  10.519  17.946   8.719 -0.1252  0.0448 -0.0462
  183loPI   C2B 2926  10.534  18.002   8.323 -0.0067 -0.2609  0.2432
  183loPI   C3B 2927  10.563  18.260   7.993  0.0734  0.1248 -0.1705
  183loPI   C4B 2928  10.500  18.691   7.877 -0.0876 -0.0042 -0.1594
  184loPI    C1 2929  17.622  14.323  10.614  0.2036  0.0084 -0.1615
  184loPI    C2 2930  17.885  14.556  10.423  0.3684 -0.0981 -0.0665
  184loPI    C3 2931  17.844  14.585  10.820  0.2104 -0.0568 -0.0855
  184loPI   PO4 2932  17.412  14.383  10.454  0.1394 -0.0878 -0.0728
  184loPI   GL1 2933  17.032  14.335  10.201  0.1069 -0.2512 -0.1497
  184loPI   GL2 2934  16.985  14.642  10.095 -0.3087  0.0894 -0.0074
  184loPI   C1A 2935  17.238  14.314   9.837  0.1606  0.0831 -0.0028
  184loPI   C2A 2936  17.389  14.072   9.519  0.2324  0.1953  0.1177
  184loPI   C3A 2937  17.731  13.832   9.244  0.1957 -0.2209 -0.0811
  184loPI   C4A 2938  17.778  13.687   8.817  0.3766  0.1088  0.0797
  184loPI   C5A 2939  17.528  13.646   8.438 -0.2556 -0.3701  0.4723
  184loPI   C6A 2940  17.741  13.707   8.006  0.1191  0.0915 -0.1056
  184loPI   C1B 2941  16.726  14.351   9.796 -0.1349  0.0291  0.0177
  184loPI   C2B 2942  16.520  14.477   9.497  0.0918  0.1771  0.1750
  184loPI   C3B 2943  16.400  14.781   9.215  0.0438 -0.2571  0.2531
  184loPI   C4B 2944  16.300  15.005   9.349  0.2588 -0.0441 -0.0203
  185loPI    C1 2945   5.825   8.695   9.878  0.0145 -0.2717 -0.1929
  185loPI    C2 2946   5.810   8.534  10.244 -0.4501 -0.1161 -0.1378
  185loPI    C3 2947   6.134   8.738  10.129 -0.3728 -0.0088  0.2553
  185loPI   PO4 2948   5.633   8.818   9.757  0.4070 -0.0121  0.0549
  185loPI   GL1 2949   5.465   8.951   9.356  0.0911 -0.0150 -0.0225
  185loPI   GL2 2950   5.683   9.012   9.189 -0.0194  0.1587  0.0865
  185loPI   C1A 2951   5.248   8.975   9.017 -0.0249  0.3520  0.0708
  185loPI   C2A 2952   4.977   9.067   8.616 -0.0719  0.2018 -0.1089
  185loPI   C3A 2953   4.889   9.089   8.188  0.1249  0.1371  0.2660
  185loPI   C4A 2954   5.039   9.301   7.848 -0.0509  0.1396 -0.2786
  185loPI   C5A 2955   4.817   9.747   7.692 -0.1476 -0.0381 -0.1036
  185loPI   C6A 2956   4.571   9.804   7.245 -0.2246 -0.0524 -0.1067
  185loPI   C1B 2957   5.757   8.717   8.792 -0.3991  0.2019  0.0326
  185loPI   C2B 2958   5.718   8.698   8.341  0.2225 -0.1307 -0.0703
  185loPI   C3B 2959   6.136   8.601   8.021  0.2430  0.3575  0.3071
  185loPI   C4B 2960   6.233   8.305   7.655  0.1624  0.4416  0.1852
  186loPI    C1 2961   5.936   9.206   9.594 -0.1001  0.1431 -0.0389
  186loPI    C2 2962   5.887   9.159   9.988 -0.2168 -0.3532 -0.1055
  186loPI    C3 2963   6.252   9.130   9.827 -0.1515 -0.0278 -0.0235
  186loPI   PO4 2964   5.865   9.403   9.507 -0.1003  0.0300  0.0441
  186loPI   GL1 2965   5.793   9.527   9.227 -0.1653 -0.0942 -0.0261
  186loPI   GL2 2966   5.480   9.596   9.284  0.2352  0.2325 -0.1389
  186loPI   C1A 2967   5.885   9.657   8.770 -0.0557 -0.1768 -0.0794
  186loPI   C2A 2968   6.040   9.608   8.419 -0.1183 -0.0096 -0.0511
  186loPI   C3A 2969   5.904   9.710   8.084  0.1093  0.0548  0.0020
  186loPI   C4A 2970   6.032   9.591   7.618 -0.1355  0.2454  0.1267
  186loPI   C5A 2971   5.913   9.312   7.365  0.0623 -0.0392 -0.0939
  186loPI   C6A 2972   5.653   8.979   7.235  0.3755  0.6280  0.1535
  186loPI   C1B 2973   5.466   9.380   8.900  0.2230  0.0434 -0.0775
  186loPI   C2B 2974   5.457   9.107   8.558 -0.3494  0.1011  0.0815
  186loPI   C3B 2975   5.549   9.237   8.148 -0.1326  0.1289 -0.0871
  186loPI   C4B 2976   5.487   9.251   7.688 -0.0352  0.1639  0.0029
  187loPI    C1 2977   6.338   5.301  10.044  0.1558 -0.2136  0.0324
  187loPI    C2 2978   6.078   5.021   9.926  0.0377 -0.0906 -0.0012
  187loPI    C3 2979   6.019   5.218  10.269 -0.0703  0.1392 -0.1488
  187loPI   PO4 2980   6.340   5.475   9.768 -0.0837  0.2230 -0.0755
  187loPI   GL1 2981   6.706   5.573   9.463  0.3265  0.0988  0.0300
  187loPI   GL2 2982   6.494   5.746   9.395  0.2621 -0.2577 -0.3182
  187loPI   C1A 2983   6.847   5.525   9.030  0.2329 -0.1306 -0.3715
  187loPI   C2A 2984   7.118   5.663   8.820  0.0234 -0.2565  0.1811
  187loPI   C3A 2985   7.270   5.671   8.403  0.2061 -0.1140 -0.4743
  187loPI   C4A 2986   7.339   5.694   7.921 -0.2537  0.0825 -0.1677
  187loPI   C5A 2987   7.372   5.426   7.609  0.2774 -0.2449  0.0484
  187loPI   C6A 2988   7.072   5.232   7.370 -0.0709  0.0492 -0.2313
  187loPI   C1B 2989   6.367   5.914   9.130  0.1434  0.1827 -0.1134
  187loPI   C2B 2990   6.235   6.066   8.765 -0.0004  0.3757  0.1909
  187loPI   C3B 2991   6.140   6.225   8.458 -0.3661  0.0592 -0.2741
  187loPI   C4B 2992   5.924   6.147   8.044  0.2052  0.0976 -0.0925
  188loPI    C1 2993   9.295  17.453   9.759 -0.1164 -0.1010 -0.0352
  188loPI    C2 2994   9.625  17.247   9.665 -0.0314  0.0156  0.0042
  188loPI    C3 2995   9.644  17.543   9.933 -0.1268  0.1564 -0.1430
  188loPI   PO4 2996   9.143  17.476   9.497  0.0654 -0.4405 -0.1566
  188loPI   GL1 2997   9.028  17.140   9.227 -0.0868 -0.2444 -0.0301
  188loPI   GL2 2998   9.049  16.850   9.263  0.0231 -0.2286 -0.2509
  188loPI   C1A 2999   8.809  17.424   8.927  0.1118 -0.1642  0.2272
  188loPI   C2A 3000   8.849  17.508   8.537 -0.0198 -0.2694 -0.0142
  188loPI   C3A 3001   8.898  17.531   8.181  0.0132 -0.1722 -0.0841
  188loPI   C4A 3002   8.694  17.555   7.721  0.0760 -0.0828 -0.0641
  188loPI   C5A 3003   8.663  17.743   7.476 -0.0944 -0.1541 -0.0491
  188loPI   C6A 3004   8.488  17.946   7.212  0.1352 -0.2242 -0.3987
  188loPI   C1B 3005   9.233  16.769   8.880 -0.1900 -0.1068  0.0435
  188loPI   C2B 3006   9.129  16.623   8.554 -0.0826 -0.1077  0.3955
  188loPI   C3B 3007   9.044  16.598   8.128  0.2163 -0.3229  0.1987
  188loPI   C4B 3008   8.902  16.711   7.791  0.1245 -0.1124 -0.0599
  189loPI    C1 3009  10.542   0.278   9.524 -0.0535  0.1096  0.1499
  189loPI    C2 3010  10.925   0.223   9.426 -0.1085  0.2205 -0.1377
  189loPI    C3 3011  10.777   0.055   9.758  0.1157 -0.0576 -0.1745
  189loPI   PO4 3012  10.459   0.202   9.289  0.3211  0.0160 -0.0822
  189loPI   GL1 3013  10.238   0.489   9.042 -0.0258  0.2012  0.0055
  189loPI   GL2 3014   9.922   0.351   9.060 -0.2013  0.3684  0.2023
  189loPI   C1A 3015  10.366   0.427   8.590  0.2255 -0.0933  0.0362
  189loPI   C2A 3016  10.351   0.328   8.166 -0.0277 -0.1066 -0.0035
  189loPI   C3A 3017  10.420   0.716   7.892 -0.0886  0.1529  0.2505
  189loPI   C4A 3018  10.528   1.172   7.729 -0.3798 -0.0996 -0.0730
  189loPI   C5A 3019  10.848   1.545   7.819 -0.0869 -0.4473 -0.2409
  189loPI   C6A 3020  11.039   1.921   8.055 -0.0655  0.0762 -0.1058
  189loPI   C1B 3021   9.833   0.272   8.590  0.0437  0.1104 -0.0802
  189loPI   C2B 3022   9.799   0.258   8.112  0.0354  0.1503  0.1446
  189loPI   C3B 3023   9.812  -0.053   7.739  0.0214  0.4150 -0.0058
  189loPI   C4B 3024   9.871   0.041   7.305 -0.1477 -0.1354  0.2372
  190loPI    C1 3025   8.581  16.863   9.827  0.0468 -0.1465  0.1595
  190loPI    C2 3026   8.939  17.029   9.759  0.0737 -0.2176  0.1263
  190loPI    C3 3027   8.647  17.244   9.929  0.1345 -0.1618  0.1606
  190loPI   PO4 3028   8.444  16.764   9.540  0.1217  0.0221  0.1497
  190loPI   GL1 3029   8.619  16.613   9.183  0.3943 -0.1093  0.0948
  190loPI   GL2 3030   8.552  16.936   9.029 -0.2004 -0.0677 -0.1633
  190loPI   C1A 3031   8.644  16.510   8.813 -0.1573 -0.1010 -0.0529
  190loPI   C2A 3032   8.622  16.552   8.408  0.1529 -0.1984  0.1387
  190loPI   C3A 3033   8.516  16.437   7.966 -0.0471 -0.1400  0.2408
  190loPI   C4A 3034   8.290  16.218   7.731  0.1471 -0.0184  0.3085
  190loPI   C5A 3035   8.303  15.937   7.471  0.0083  0.0504  0.0080
  190loPI   C6A 3036   8.027  15.731   7.153 -0.4755 -0.1736  0.1569
  190loPI   C1B 3037   8.742  17.004   8.642  0.2145 -0.1681 -0.0475
  190loPI   C2B 3038   8.678  17.015   8.174  0.2040  0.1239  0.0827
  190loPI   C3B 3039   8.412  17.152   7.867 -0.1689 -0.1642 -0.2012
  190loPI   C4B 3040   8.170  17.210   7.528  0.3217  0.1719  0.1145
  191loPI    C1 3041  14.497   8.264  10.607 -0.2368 -0.2422  0.0976
  191loPI    C2 3042  14.233   8.560  10.652  0.0186  0.0129 -0.0515
  191loPI    C3 3043  14.410   8.401  10.973  0.0161  0.1476  0.0176
  191loPI   PO4 3044  14.428   8.159  10.299  0.3426 -0.1318  0.2360
  191loPI   GL1 3045  14.507   7.957   9.876  0.1950 -0.0180 -0.0227
  191loPI   GL2 3046  14.765   8.098   9.770  0.2662  0.0431 -0.0313
  191loPI   C1A 3047  14.214   8.137   9.650  0.0702 -0.0270 -0.1282
  191loPI   C2A 3048  14.165   8.397   9.283 -0.0847  0.1499  0.2146
  191loPI   C3A 3049  13.839   8.795   9.134 -0.0666 -0.0807 -0.0501
  191loPI   C4A 3050  13.725   8.915   8.689 -0.2800 -0.0987 -0.2196
  191loPI   C5A 3051  13.319   8.862   8.473  0.1876  0.0213  0.2691
  191loPI   C6A 3052  13.045   8.539   8.364  0.1877 -0.2883  0.0495
  191loPI   C1B 3053  14.642   8.318   9.454  0.0367  0.0772 -0.0047
  191loPI   C2B 3054  14.714   8.418   8.944 -0.1882 -0.3427 -0.2224
  191loPI   C3B 3055  15.123   8.522   8.699  0.1534  0.0449 -0.0817
  191loPI   C4B 3056  15.130   8.985   8.647  0.0945  0.1376  0.1675
  192loPI    C1 3057   5.008  16.583  10.249 -0.1360  0.2234 -0.2659
  192loPI    C2 3058   5.014  16.224  10.073 -0.1891 -0.0662  0.2978
  192loPI    C3 3059   4.674  16.364  10.230 -0.1603  0.2207  0.1123
  192loPI   PO4 3060   5.106  16.725   9.928 -0.2104 -0.0109  0.0347
  192loPI   GL1 3061   4.967  16.932   9.653 -0.0502 -0.4843 -0.0359
  192loPI   GL2 3062   4.741  16.704   9.602 -0.0235 -0.1977 -0.1743
  192loPI   C1A 3063   5.010  16.913   9.209 -0.2139 -0.3042  0.0081
  192loPI   C2A 3064   4.610  16.949   9.140  0.0562  0.3169  0.2663
  192loPI   C3A 3065   4.495  16.790   8.827  0.1023 -0.1689  0.0965
  192loPI   C4A 3066   4.217  16.957   8.507  0.1403  0.0463 -0.0907
  192loPI   C5A 3067   4.202  17.403   8.219 -0.2630 -0.1407  0.0595
  192loPI   C6A 3068   4.004  17.777   7.890 -0.0106  0.2136 -0.0423
  192loPI   C1B 3069   4.358  16.624   9.545 -0.2497  0.0841 -0.2483
  192loPI   C2B 3070   4.085  16.713   9.078  0.3886  0.1113 -0.0347
  192loPI   C3B 3071   3.813  16.813   8.766  0.1467  0.1245  0.1119
  192loPI   C4B 3072   3.729  16.843   8.342  0.1341  0.0104 -0.1508
  193loPI    C1 3073   2.335   3.478  10.063 -0.0004  0.1987 -0.0649
  193loPI    C2 3074   2.625   3.202  10.066  0.0407  0.2391 -0.2354
  193loPI    C3 3075   2.601   3.470  10.362 -0.0610 -0.0100 -0.0146
  193loPI   PO4 3076   2.305   3.543   9.845 -0.2756 -0.3739 -0.1007
  193loPI   GL1 3077   2.142   3.722   9.527  0.1783 -0.2034  0.1864
  193loPI   GL2 3078   2.106   3.365   9.483  0.2428  0.1514 -0.0172
  193loPI   C1A 3079   2.292   3.889   9.121  0.0360  0.0167  0.0393
  193loPI   C2A 3080   2.165   3.805   8.656 -0.4593 -0.2787  0.0011
  193loPI   C3A 3081   1.949   3.981   8.267  0.0183 -0.0751 -0.0963
  193loPI   C4A 3082   1.640   4.258   7.932  0.1150  0.3132  0.2063
  193loPI   C5A 3083   1.619   4.551   7.605  0.1499 -0.0221  0.0082
  193loPI   C6A 3084   1.551   4.473   7.115 -0.0717 -0.0986  0.1344
  193loPI   C1B 3085   2.209   3.427   9.143  0.0804 -0.1499 -0.0455
  193loPI   C2B 3086   2.575   3.441   8.896  0.0332 -0.2332  0.1882
  193loPI   C3B 3087   2.855   3.530   8.559  0.1964 -0.0565  0.3910
  193loPI   C4B 3088   3.096   3.727   8.386 -0.0644 -0.1236 -0.0936
  194loPI    C1 3089  14.595   6.857  10.265  0.0399 -0.2125  0.2701
  194loPI    C2 3090  14.845   6.713   9.988 -0.1821  0.0019 -0.0484
  194loPI    C3 3091  14.833   7.106  10.062 -0.1351 -0.0517  0.2599
  194loPI   PO4 3092  14.305   6.754  10.232  0.1273  0.1015  0.0829
  194loPI   GL1 3093  14.020   6.915   9.923 -0.1505  0.2170  0.0880
  194loPI   GL2 3094  14.388   6.852   9.760 -0.1970 -0.2669  0.1854
  194loPI   C1A 3095  13.769   6.938   9.593  0.3365 -0.0352 -0.0171
  194loPI   C2A 3096  13.705   6.768   9.339 -0.2617 -0.0214 -0.1210
  194loPI   C3A 3097  13.726   6.553   8.925  0.2180 -0.1784 -0.1192
  194loPI   C4A 3098  13.760   6.668   8.497  0.4047 -0.3154  0.0304
  194loPI   C5A 3099  13.840   6.809   8.149 -0.0077  0.5716 -0.1710
  194loPI   C6A 3100  13.963   6.868   7.687  0.1041  0.0574 -0.3861
  194loPI   C1B 3101  14.743   7.041   9.542  0.0740 -0.2084  0.0183
  194loPI   C2B 3102  14.991   7.044   9.210  0.0005  0.0776  0.1612
  194loPI   C3B 3103  15.294   7.093   8.890 -0.1815  0.2636 -0.2347
  194loPI   C4B 3104  15.499   7.242   8.650 -0.2872  0.1720 -0.2039
  195loPI    C1 3105  15.486  10.442   9.988 -0.1420 -0.1197 -0.3516
  195loPI    C2 3106  15.526  10.292  10.357  0.3893  0.0440 -0.3353
  195loPI    C3 3107  15.450  10.048  10.050  0.0079 -0.1009 -0.1327
  195loPI   PO4 3108  15.725  10.561   9.939 -0.3238 -0.0779  0.1274
  195loPI   GL1 3109  15.844  11.043   9.748  0.0654 -0.3854  0.2746
  195loPI   GL2 3110  15.467  10.866   9.665 -0.0620  0.2858  0.1822
  195loPI   C1A 3111  15.737  11.026   9.265 -0.1141 -0.2203  0.1289
  195loPI   C2A 3112  15.652  11.036   8.781 -0.1209 -0.2887  0.0211
  195loPI   C3A 3113  15.645  11.078   8.323 -0.0475  0.0991 -0.0175
  195loPI   C4A 3114  15.501  11.303   7.961 -0.0581 -0.1380 -0.3142
  195loPI   C5A 3115  15.321  11.173   7.627 -0.0619 -0.2857 -0.1338
  195loPI   C6A 3116  15.166  11.272   7.343 -0.3338 -0.1730 -0.0245
  195loPI   C1B 3117  15.210  10.960   9.243 -0.1213  0.2188  0.0805
  195loPI   C2B 3118  15.097  11.006   8.932  0.2056  0.1354  0.0748
  195loPI   C3B 3119  15.059  10.888   8.555  0.2313  0.2668  0.3021
  195loPI   C4B 3120  15.118  10.873   8.065 -0.1958 -0.3808  0.0004
  196loPI    C1 3121  13.315  12.426  10.600  0.0743  0.2346  0.0068
  196loPI    C2 3122  13.075  12.630  10.846  0.0878  0.2920 -0.0273
  196loPI    C3 3123  13.379  12.416  10.995 -0.0660  0.1077  0.0272
  196loPI   PO4 3124  13.170  12.303  10.392  0.1115 -0.2311  0.0766
  196loPI   GL1 3125  13.173  12.091   9.970 -0.2264  0.1094  0.0976
  196loPI   GL2 3126  13.137  11.735   9.979  0.1981 -0.1774 -0.0109
  196loPI   C1A 3127  13.447  11.876   9.631  0.0084 -0.1642  0.1333
  196loPI   C2A 3128  13.547  11.713   9.210 -0.0679 -0.0459  0.0425
  196loPI   C3A 3129  13.702  11.923   8.940 -0.0979  0.1902  0.3201
  196loPI   C4A 3130  13.566  12.039   8.555 -0.3411 -0.0195  0.1037
  196loPI   C5A 3131  13.730  11.799   8.094 -0.0525  0.0262  0.0785
  196loPI   C6A 3132  13.918  11.381   8.104 -0.0374 -0.1101 -0.0342
  196loPI   C1B 3133  13.106  11.496   9.683 -0.2469  0.3347  0.1083
  196loPI   C2B 3134  13.160  11.395   9.371  0.3268  0.2591  0.0922
  196loPI   C3B 3135  13.229  11.317   8.929 -0.0286  0.0896  0.0180
  196loPI   C4B 3136  13.142  11.158   8.545  0.2486 -0.1064 -0.0745
  197loPI    C1 3137   8.590  13.607   9.951 -0.0167 -0.1567  0.0461
  197loPI    C2 3138   8.542  13.452  10.317  0.1349  0.1136  0.1836
  197loPI    C3 3139   8.811  13.295  10.067 -0.0883 -0.1798  0.1220
  197loPI   PO4 3140   8.430  13.642   9.852 -0.1701 -0.0689  0.3400
  197loPI   GL1 3141   8.285  13.664   9.481  0.3546 -0.0054 -0.0345
  197loPI   GL2 3142   8.182  13.297   9.563  0.0800 -0.1404 -0.1377
  197loPI   C1A 3143   8.309  13.798   9.070  0.1553 -0.1928 -0.0141
  197loPI   C2A 3144   8.514  13.859   8.725  0.0454  0.1350 -0.1890
  197loPI   C3A 3145   8.662  13.764   8.233  0.0413  0.2647  0.1668
  197loPI   C4A 3146   8.772  13.321   8.049 -0.1382 -0.1039  0.0101
  197loPI   C5A 3147   8.512  13.144   7.662  0.0787 -0.0902  0.1589
  197loPI   C6A 3148   8.328  12.754   7.648 -0.2501  0.4583 -0.0240
  197loPI   C1B 3149   8.256  13.164   9.150 -0.2139 -0.0244  0.1683
  197loPI   C2B 3150   8.171  13.095   8.722  0.2869  0.0494  0.3011
  197loPI   C3B 3151   8.035  13.117   8.341 -0.0393  0.4502  0.2407
  197loPI   C4B 3152   7.995  13.139   7.866 -0.0496 -0.1209  0.2850
  198loPI    C1 3153   3.444  12.976  10.473  0.0512 -0.0526  0.0874
  198loPI    C2 3154   3.278  12.616  10.419  0.0037 -0.0060 -0.0833
  198loPI    C3 3155   3.538  12.674  10.718 -0.3565 -0.0569  0.2467
  198loPI   PO4 3156   3.224  13.108  10.209  0.2455  0.0702  0.0211
  198loPI   GL1 3157   3.204  13.148   9.774 -0.0093 -0.1107  0.1768
  198loPI   GL2 3158   3.387  13.240   9.605 -0.0290  0.4104  0.2707
  198loPI   C1A 3159   2.990  12.929   9.377 -0.4407 -0.1228 -0.0602
  198loPI   C2A 3160   2.961  12.809   8.955  0.2474  0.0502  0.2242
  198loPI   C3A 3161   2.992  12.670   8.593 -0.1115 -0.1482  0.1290
  198loPI   C4A 3162   3.107  12.391   8.261 -0.3427  0.0303 -0.0598
  198loPI   C5A 3163   3.423  12.344   7.975  0.1488 -0.1662  0.0976
  198loPI   C6A 3164   3.540  12.438   7.613  0.4436 -0.3192  0.0377
  198loPI   C1B 3165   3.272  13.205   9.103  0.1423 -0.0207  0.1540
  198loPI   C2B 3166   3.208  13.334   8.753  0.2155 -0.3624  0.0525
  198loPI   C3B 3167   2.967  13.434   8.583 -0.1436 -0.1694  0.0553
  198loPI   C4B 3168   2.745  13.632   8.325 -0.1071 -0.0798 -0.0289
  199loPI    C1 3169  11.108  11.904  10.524  0.0551 -0.1902  0.4435
  199loPI    C2 3170  10.953  12.268  10.464  0.3415 -0.1317  0.0172
  199loPI    C3 3171  11.182  12.198  10.784 -0.1390 -0.0852  0.3825
  199loPI   PO4 3172  11.163  11.747  10.190  0.1552 -0.0470  0.0639
  199loPI   GL1 3173  11.234  12.048   9.861 -0.0015  0.0452  0.1205
  199loPI   GL2 3174  11.129  12.362   9.945 -0.2458 -0.0763 -0.1884
  199loPI   C1A 3175  10.923  12.065   9.590  0.2113  0.3297 -0.0931
  199loPI   C2A 3176  10.968  12.107   9.205 -0.4979  0.0581 -0.2664
  199loPI   C3A 3177  11.153  12.060   8.780 -0.2693 -0.1755 -0.3721
  199loPI   C4A 3178  11.327  12.370   8.437 -0.2435  0.1542 -0.2875
  199loPI   C5A 3179  11.695  12.397   8.377 -0.2299 -0.0393  0.1587
  199loPI   C6A 3180  11.872  12.189   8.000  0.1442 -0.3551  0.0413
  199loPI   C1B 3181  11.372  12.339   9.499 -0.1098  0.0322  0.0923
  199loPI   C2B 3182  11.486  12.293   9.115  0.1899 -0.0096 -0.2606
  199loPI   C3B 3183  11.568  12.457   8.832 -0.0256 -0.1448 -0.0024
  199loPI   C4B 3184  11.815  12.842   8.603 -0.1205 -0.1518  0.1965
  200loPI    C1 3185   6.163  18.673  10.651  0.1947  0.0776  0.1687
  200loPI    C2 3186   6.137  18.770  11.039 -0.1300 -0.1032  0.1965
  200loPI    C3 3187   5.821  18.614  10.851  0.0480 -0.0858 -0.1248
  200loPI   PO4 3188   6.291  18.835  10.531  0.5045  0.1599 -0.0841
  200loPI   GL1 3189   6.393  18.742  10.060 -0.0167  0.1546 -0.0427
  200loPI   GL2 3190   6.554  18.900   9.855 -0.2075  0.2173 -0.3657
  200loPI   C1A 3191   6.189  18.528   9.619 -0.4434 -0.0423  0.1503
  200loPI   C2A 3192   6.242  18.662   9.219 -0.0743 -0.1729 -0.2567
  200loPI   C3A 3193   6.325  18.927   8.835 -0.0458  0.0466 -0.0936
  200loPI   C4A 3194   6.056  19.060   8.443 -0.0621 -0.4414 -0.1041
  200loPI   C5A 3195   5.729  19.393   8.249 -0.3231 -0.1884  0.3174
  200loPI   C6A 3196   5.353  19.599   8.608 -0.1016 -0.1245 -0.4142
  200loPI   C1B 3197   6.647  18.879   9.450 -0.3885 -0.1243 -0.1970
  200loPI   C2B 3198   6.596  19.184   9.125 -0.0153  0.0894  0.0551
  200loPI   C3B 3199   6.629  19.394   8.708  0.1066 -0.0522  0.1998
  200loPI   C4B 3200   6.233  19.474   8.381  0.0941  0.0074 -0.2152
  201loPI    C1 3201  10.442   9.563  10.386  0.0588 -0.1936  0.0391
  201loPI    C2 3202  10.184   9.629  10.685  0.0822 -0.0368  0.0255
  201loPI    C3 3203  10.391   9.287  10.671  0.0271 -0.0758  0.1487
  201loPI   PO4 3204  10.310   9.566  10.110  0.1981 -0.1368 -0.1054
  201loPI   GL1 3205  10.284   9.385   9.737 -0.1085  0.2930  0.1292
  201loPI   GL2 3206  10.133   9.402   9.393  0.3353 -0.1114 -0.1815
  201loPI   C1A 3207  10.815   9.232   9.638  0.0589 -0.1798  0.0055
  201loPI   C2A 3208  11.169   9.332   9.502  0.0987  0.1455  0.2012
  201loPI   C3A 3209  11.623   9.575   9.196  0.2205 -0.1850  0.2279
  201loPI   C4A 3210  11.936   9.660   8.885  0.1233  0.1559  0.0875
  201loPI   C5A 3211  12.101   9.252   8.702  0.1071 -0.0976  0.3074
  201loPI   C6A 3212  11.908   9.447   8.321  0.0377 -0.1460 -0.2625
  201loPI   C1B 3213   9.972   9.389   9.073 -0.2019  0.0098  0.1520
  201loPI   C2B 3214   9.973   9.248   8.733  0.4115  0.1553  0.1969
  201loPI   C3B 3215  10.310   9.100   8.515  0.0737 -0.1577 -0.3417
  201loPI   C4B 3216  10.606   9.383   8.303 -0.0967  0.1114  0.0792
  202loPI    C1 3217  15.594   2.493   9.957 -0.2273 -0.1418 -0.0517
  202loPI    C2 3218  15.640   2.683  10.305 -0.3384  0.0685 -0.1501
  202loPI    C3 3219  15.765   2.305  10.266 -0.1977  0.0898  0.0746
  202loPI   PO4 3220  15.701   2.737   9.797  0.0425  0.3524  0.2468
  202loPI   GL1 3221  15.395   2.906   9.460 -0.1658  0.3218  0.0770
  202loPI   GL2 3222  15.088   3.030   9.469  0.1858  0.4426 -0.2353
  202loPI   C1A 3223  15.434   2.858   9.132  0.2091 -0.1841  0.0939
  202loPI   C2A 3224  15.481   2.917   8.698  0.0941  0.0800  0.0199
  202loPI   C3A 3225  15.528   2.983   8.283  0.1093  0.0211  0.1009
  202loPI   C4A 3226  15.904   2.975   8.098  0.0585 -0.0042 -0.4172
  202loPI   C5A 3227  16.238   3.353   8.056 -0.3171  0.1041 -0.2384
  202loPI   C6A 3228  16.089   3.832   7.965  0.0216 -0.2177  0.0338
  202loPI   C1B 3229  15.056   3.161   9.092  0.0948 -0.1484 -0.2645
  202loPI   C2B 3230  15.118   3.281   8.755  0.1360  0.3906 -0.1356
  202loPI   C3B 3231  15.205   3.317   8.286  0.3054  0.2746 -0.0551
  202loPI   C4B 3232  14.877   3.498   7.807  0.2422 -0.1569 -0.1130
  203loPI    C1 3233   6.976   8.497   9.896  0.0467 -0.0272  0.3750
  203loPI    C2 3234   6.579   8.520   9.937  0.0490  0.1146  0.3230
  203loPI    C3 3235   6.754   8.164   9.886 -0.1054  0.0806  0.0030
  203loPI   PO4 3236   7.089   8.743   9.748  0.2123  0.0427  0.2206
  203loPI   GL1 3237   7.084   8.864   9.244 -0.2831 -0.0233  0.2012
  203loPI   GL2 3238   7.184   8.631   9.009 -0.0395  0.0123 -0.1100
  203loPI   C1A 3239   7.190   9.097   8.942  0.3722  0.1046  0.1550
  203loPI   C2A 3240   6.913   9.173   8.497 -0.0450 -0.0757  0.0362
  203loPI   C3A 3241   6.888   9.192   8.002 -0.1727  0.0915 -0.2750
  203loPI   C4A 3242   6.942   9.100   7.612  0.1738  0.1941 -0.1225
  203loPI   C5A 3243   6.789   8.958   7.247 -0.0103 -0.0290 -0.1723
  203loPI   C6A 3244   7.094   8.823   6.797 -0.0609  0.3891  0.0589
  203loPI   C1B 3245   7.023   8.692   8.584 -0.0440  0.0396  0.0871
  203loPI   C2B 3246   7.078   8.705   8.169  0.1919 -0.0922 -0.0164
  203loPI   C3B 3247   6.935   8.631   7.740 -0.1841  0.0331 -0.1084
  203loPI   C4B 3248   6.672   8.473   7.536 -0.0050 -0.1645  0.2086
  204loPI    C1 3249   4.030  14.748  10.138  0.0175 -0.0520 -0.0992
  204loPI    C2 3250   4.315  14.540  10.326 -0.1064 -0.0350  0.1106
  204loPI    C3 3251   4.022  14.348  10.132 -0.2725 -0.0610  0.3821
  204loPI   PO4 3252   4.121  14.955  10.002 -0.5834 -0.2279 -0.1404
  204loPI   GL1 3253   4.246  15.358   9.783 -0.0117 -0.1240  0.0627
  204loPI   GL2 3254   4.422  15.530   9.680  0.2228  0.4126 -0.2360
  204loPI   C1A 3255   4.073  15.402   9.424 -0.0756  0.0091 -0.1532
  204loPI   C2A 3256   4.108  15.434   9.008  0.4624  0.0514 -0.1086
  204loPI   C3A 3257   3.919  15.476   8.570 -0.1221  0.1736 -0.4722
  204loPI   C4A 3258   3.823  15.467   8.192  0.0955  0.1249 -0.2042
  204loPI   C5A 3259   3.735  15.810   7.862  0.1766  0.1904  0.0879
  204loPI   C6A 3260   3.881  16.252   7.716  0.1169 -0.0702 -0.0889
  204loPI   C1B 3261   4.423  15.782   9.303  0.0788 -0.1002  0.3442
  204loPI   C2B 3262   4.267  15.945   9.028  0.1783  0.2211  0.0379
  204loPI   C3B 3263   4.274  15.881   8.623  0.0890 -0.3201  0.3239
  204loPI   C4B 3264   4.119  15.944   8.169 -0.1611  0.0964  0.0913
  205loPI    C1 3265   2.784   5.302  10.222 -0.1812 -0.0659  0.1758
  205loPI    C2 3266   3.088   5.115  10.403  0.0193  0.0168 -0.0703
  205loPI    C3 3267   2.892   5.408  10.593  0.1087 -0.0200  0.0806
  205loPI   PO4 3268   2.833   5.279   9.856  0.0087 -0.0964 -0.3444
  205loPI   GL1 3269   3.050   5.225   9.517  0.2965 -0.3419  0.2063
  205loPI   GL2 3270   3.291   5.464   9.281  0.0570  0.1957  0.3607
  205loPI   C1A 3271   2.944   4.999   9.024 -0.3481 -0.0656 -0.2577
  205loPI   C2A 3272   2.740   5.160   8.660 -0.1198  0.0448  0.2306
  205loPI   C3A 3273   2.509   5.170   8.214  0.2048  0.2818 -0.1525
  205loPI   C4A 3274   2.193   5.364   7.894  0.0596  0.1144  0.2068
  205loPI   C5A 3275   1.766   5.616   7.751 -0.1859 -0.1690  0.0748
  205loPI   C6A 3276   1.589   6.038   7.645  0.0725 -0.0248  0.4086
  205loPI   C1B 3277   3.176   5.495   8.942 -0.1407  0.1972 -0.2865
  205loPI   C2B 3278   2.990   5.582   8.526  0.1166 -0.0178  0.2630
  205loPI   C3B 3279   3.233   5.523   8.115 -0.0982  0.1093 -0.0815
  205loPI   C4B 3280   3.115   5.410   7.768 -0.2389  0.2305 -0.1261
  206loPI    C1 3281  13.964  18.623  10.234  0.1797  0.0086 -0.0097
  206loPI    C2 3282  14.033  18.229  10.249 -0.2122 -0.0644 -0.0343
  206loPI    C3 3283  13.951  18.431  10.585 -0.2001 -0.0390 -0.0466
  206loPI   PO4 3284  13.782  18.631  10.049  0.0583  0.0968  0.1878
  206loPI   GL1 3285  13.700  18.665   9.688 -0.2103 -0.1645  0.1154
  206loPI   GL2 3286  13.536  18.341   9.574 -0.3538  0.0128 -0.1041
  206loPI   C1A 3287  13.890  18.795   9.337 -0.1132 -0.1475 -0.3484
  206loPI   C2A 3288  14.020  18.957   8.981 -0.1564 -0.1281 -0.0356
  206loPI   C3A 3289  14.178  18.976   8.550 -0.1338  0.0072  0.1343
  206loPI   C4A 3290  14.249  18.884   8.026  0.2988  0.1310  0.0677
  206loPI   C5A 3291  14.252  18.509   7.841 -0.0065 -0.1946  0.0133
  206loPI   C6A 3292  14.329  18.259   7.495 -0.0300  0.0011 -0.3764
  206loPI   C1B 3293  13.621  18.053   9.289 -0.4153 -0.0887  0.1655
  206loPI   C2B 3294  13.730  18.107   8.754  0.1400  0.0947  0.1738
  206loPI   C3B 3295  13.771  18.025   8.345  0.1625  0.0701  0.0765
  206loPI   C4B 3296  13.879  18.108   7.930  0.2528 -0.0776  0.0497
  207loPI    C1 3297  16.999   1.863  10.295 -0.0975  0.1468  0.1151
  207loPI    C2 3298  16.775   2.191  10.343 -0.3163 -0.0056  0.1525
  207loPI    C3 3299  16.789   1.915  10.632 -0.3237 -0.1425  0.0231
  207loPI   PO4 3300  17.081   1.917  10.043 -0.2313  0.2326 -0.0222
  207loPI   GL1 3301  17.516   1.965   9.747  0.0397  0.2005  0.0813
  207loPI   GL2 3302  17.614   1.630   9.654  0.0679  0.0236 -0.0392
  207loPI   C1A 3303  17.242   1.860   9.385  0.0095 -0.1473 -0.0257
  207loPI   C2A 3304  17.125   1.932   8.998  0.2717  0.1391 -0.0937
  207loPI   C3A 3305  17.019   1.894   8.578 -0.0882 -0.0885 -0.1780
  207loPI   C4A 3306  17.019   1.967   8.150 -0.0329  0.1083 -0.1758
  207loPI   C5A 3307  17.347   2.112   7.836  0.0590  0.1060  0.0539
  207loPI   C6A 3308  17.742   2.273   7.823  0.1910  0.1177 -0.0064
  207loPI   C1B 3309  17.817   1.278   9.545  0.1486  0.2500  0.0923
  207loPI   C2B 3310  17.850   1.090   9.062  0.1694 -0.1562  0.0569
  207loPI   C3B 3311  17.971   0.999   8.615 -0.1467  0.3004  0.3127
  207loPI   C4B 3312  18.161   0.714   8.459 -0.1103 -0.3976 -0.0278
  208loPI    C1 3313   3.412  11.493  10.204 -0.2565 -0.1474 -0.2769
  208loPI    C2 3314   3.012  11.505  10.197 -0.2593 -0.0623 -0.0499
  208loPI    C3 3315   3.207  11.545  10.544 -0.0492  0.0347 -0.1774
  208loPI   PO4 3316   3.414  11.319   9.952 -0.0959  0.1456 -0.1998
  208loPI   GL1 3317   3.452  11.089   9.574  0.0899 -0.1204  0.1101
  208loPI   GL2 3318   3.543  11.335   9.436  0.0577  0.0078 -0.5007
  208loPI   C1A 3319   3.218  10.731   9.539  0.1988  0.0284  0.0841
  208loPI   C2A 3320   2.929  10.527   9.316  0.3370  0.0951 -0.1471
  208loPI   C3A 3321   2.962  10.467   8.761  0.0828  0.3222 -0.4299
  208loPI   C4A 3322   2.985  10.645   8.363 -0.0791 -0.0064  0.0888
  208loPI   C5A 3323   2.997  10.691   7.932 -0.1398 -0.1456  0.2241
  208loPI   C6A 3324   2.880  11.031   7.627  0.3886  0.0047 -0.1809
  208loPI   C1B 3325   3.595  11.298   9.043 -0.2467 -0.0776  0.1240
  208loPI   C2B 3326   3.299  11.257   8.700  0.1193 -0.1835  0.1453
  208loPI   C3B 3327   3.105  11.482   8.388 -0.0704  0.1241 -0.1890
  208loPI   C4B 3328   3.094  11.357   7.884 -0.2331  0.1582 -0.2081
  209loPI    C1 3329  13.175   6.365  10.035 -0.0005 -0.0499 -0.1165
  209loPI    C2 3330  13.186   6.051  10.281  0.0297 -0.0016 -0.0560
  209loPI    C3 3331  13.026   6.396  10.405  0.1228  0.0487 -0.0743
  209loPI   PO4 3332  13.065   6.245   9.792 -0.1022  0.0289 -0.0097
  209loPI   GL1 3333  12.850   6.193   9.382 -0.0681 -0.0068  0.0599
  209loPI   GL2 3334  12.822   6.506   9.280 -0.2381 -0.2137 -0.4344
  209loPI   C1A 3335  13.058   5.875   9.094 -0.0693 -0.0554 -0.1020
  209loPI   C2A 3336  13.138   5.924   8.733  0.0496  0.0442  0.1032
  209loPI   C3A 3337  13.208   5.804   8.328  0.0180 -0.2139 -0.1604
  209loPI   C4A 3338  13.369   5.981   8.034  0.4668 -0.3543 -0.1877
  209loPI   C5A 3339  13.357   6.181   7.605  0.0815 -0.1882 -0.2719
  209loPI   C6A 3340  13.113   6.289   7.313  0.1583  0.2046 -0.0715
  209loPI   C1B 3341  12.740   6.249   8.898 -0.2157  0.2242 -0.1773
  209loPI   C2B 3342  12.803   6.144   8.442  0.0187 -0.0008 -0.0322
  209loPI   C3B 3343  12.996   6.297   8.104  0.1108 -0.3731  0.0051
  209loPI   C4B 3344  12.926   6.503   7.742 -0.1269 -0.0650 -0.1690
  210loPI    C1 3345   0.706  12.580  10.500  0.1802 -0.1533 -0.0278
  210loPI    C2 3346   0.833  12.808  10.802 -0.0659  0.0424 -0.0685
  210loPI    C3 3347   0.634  12.470  10.878  0.0163  0.0063 -0.0112
  210loPI   PO4 3348   0.587  12.665  10.298  0.0466 -0.1012  0.2402
  210loPI   GL1 3349   0.447  12.529   9.998  0.0898 -0.0937  0.0052
  210loPI   GL2 3350   0.141  12.569  10.054 -0.2657 -0.3331  0.2462
  210loPI   C1A 3351   0.566  12.675   9.548 -0.2963  0.2295 -0.3134
  210loPI   C2A 3352   0.530  12.658   8.991  0.0603  0.2169 -0.2823
  210loPI   C3A 3353   0.432  12.630   8.688 -0.0233 -0.0211  0.3464
  210loPI   C4A 3354   0.053  12.730   8.525 -0.2456  0.4203  0.0661
  210loPI   C5A 3355  -0.150  12.543   8.270 -0.2010 -0.5275  0.0335
  210loPI   C6A 3356  -0.448  12.483   8.159  0.1546 -0.2523  0.2825
  210loPI   C1B 3357   0.055  12.866   9.674 -0.3497 -0.0645 -0.2394
  210loPI   C2B 3358  -0.007  12.876   9.259  0.0228  0.1414 -0.0341
  210loPI   C3B 3359   0.236  13.018   8.965  0.3961 -0.3422 -0.4720
  210loPI   C4B 3360   0.246  13.195   8.524  0.1631  0.1980 -0.1905
  211loPI    C1 3361  11.205   6.077   9.534  0.1012  0.0088 -0.0067
  211loPI    C2 3362  11.147   6.057   9.930  0.2257 -0.2249  0.0019
  211loPI    C3 3363  10.965   5.796   9.688 -0.1423  0.1451 -0.1325
  211loPI   PO4 3364  11.558   6.091   9.442 -0.0693 -0.1195 -0.4691
  211loPI   GL1 3365  11.688   5.987   9.120  0.2587  0.3622  0.1144
  211loPI   GL2 3366  11.971   5.909   8.986 -0.2821  0.2703 -0.0277
  211loPI   C1A 3367  11.434   5.980   8.780 -0.4629 -0.0330  0.0527
  211loPI   C2A 3368  11.257   5.969   8.347  0.1186 -0.0256  0.0264
  211loPI   C3A 3369  11.178   6.063   7.984 -0.2677 -0.0636 -0.0152
  211loPI   C4A 3370  10.839   6.085   7.746  0.5241 -0.1496 -0.3412
  211loPI   C5A 3371  10.693   6.030   7.337 -0.1411  0.3101 -0.0831
  211loPI   C6A 3372  10.596   6.088   6.882  0.1216  0.2768  0.0536
  211loPI   C1B 3373  12.154   5.624   8.570 -0.2169  0.1305  0.0053
  211loPI   C2B 3374  12.062   5.690   8.202 -0.0634  0.2786  0.2411
  211loPI   C3B 3375  12.123   5.883   7.770 -0.1715 -0.1720 -0.0548
  211loPI   C4B 3376  12.106   6.253   7.433  0.1034 -0.1179  0.0241
  212loPI    C1 3377  14.822   7.842  10.273 -0.0334 -0.1243 -0.0509
  212loPI    C2 3378  15.119   7.691  10.494 -0.0408 -0.0041  0.0418
  212loPI    C3 3379  15.203   7.910  10.170 -0.0251  0.1615  0.1563
  212loPI   PO4 3380  14.708   7.632  10.203 -0.0564  0.0714  0.0220
  212loPI   GL1 3381  14.778   7.554   9.694  0.1265 -0.0383  0.2188
  212loPI   GL2 3382  14.352   7.420   9.764 -0.1665 -0.0704  0.0329
  212loPI   C1A 3383  14.597   7.444   9.285 -0.2019  0.1231  0.1538
  212loPI   C2A 3384  14.483   7.108   8.899 -0.1187 -0.1073  0.2188
  212loPI   C3A 3385  14.583   7.076   8.581  0.5044 -0.0907  0.4428
  212loPI   C4A 3386  15.012   7.238   8.473 -0.0557 -0.0815 -0.0028
  212loPI   C5A 3387  15.338   7.218   8.200  0.2314  0.0186  0.1423
  212loPI   C6A 3388  15.424   7.060   7.863  0.0628 -0.4386 -0.0024
  212loPI   C1B 3389  14.194   7.187   9.405 -0.2209 -0.1918  0.1654
  212loPI   C2B 3390  14.079   6.917   9.068  0.0994 -0.1573  0.1316
  212loPI   C3B 3391  14.198   6.711   8.785  0.3050  0.0784 -0.2885
  212loPI   C4B 3392  14.088   6.351   8.544 -0.1243  0.0898 -0.1493
  213loPI    C1 3393   9.177   4.966   9.645 -0.2875 -0.0963  0.0037
  213loPI    C2 3394   9.102   4.775   9.989 -0.3104  0.1459  0.1358
  213loPI    C3 3395   8.960   4.631   9.644 -0.0276 -0.2699  0.1857
  213loPI   PO4 3396   9.090   5.240   9.740  0.0427 -0.0536  0.0522
  213loPI   GL1 3397   9.085   5.538   9.427 -0.1727 -0.0568 -0.3228
  213loPI   GL2 3398   8.841   5.760   9.413 -0.0280  0.2143 -0.0512
  213loPI   C1A 3399   9.118   5.479   9.023  0.1482  0.2038  0.2737
  213loPI   C2A 3400   9.037   5.517   8.643 -0.0612  0.1861  0.1532
  213loPI   C3A 3401   9.024   5.694   8.246  0.0851 -0.3869 -0.2337
  213loPI   C4A 3402   9.218   5.743   8.013 -0.1283 -0.2029 -0.1887
  213loPI   C5A 3403   9.256   6.065   7.802  0.2143  0.0484  0.2623
  213loPI   C6A 3404   9.333   6.195   7.360 -0.0207 -0.1365 -0.3265
  213loPI   C1B 3405   8.725   5.891   9.009 -0.0818 -0.1929 -0.0368
  213loPI   C2B 3406   8.871   6.001   8.644 -0.1251 -0.6088  0.1026
  213loPI   C3B 3407   8.859   6.188   8.210 -0.0161  0.1871 -0.0846
  213loPI   C4B 3408   9.077   6.553   7.909  0.4577  0.0555 -0.0733
  214loPI    C1 3409   9.760   8.072  10.227 -0.0129  0.0617 -0.0740
  214loPI    C2 3410   9.734   8.305  10.551  0.1607 -0.0116 -0.0060
  214loPI    C3 3411  10.071   8.299  10.335  0.2255 -0.3351  0.0975
  214loPI   PO4 3412   9.534   8.066  10.076  0.0412 -0.4168 -0.2073
  214loPI   GL1 3413   9.590   8.166   9.673  0.1461 -0.0493 -0.0098
  214loPI   GL2 3414   9.353   8.334   9.410  0.0137 -0.3166  0.0805
  214loPI   C1A 3415   9.852   8.039   9.169 -0.0239 -0.1662 -0.2771
  214loPI   C2A 3416   9.971   8.190   8.760  0.0151 -0.1730 -0.1001
  214loPI   C3A 3417   9.820   8.237   8.398 -0.3588 -0.0433  0.2229
  214loPI   C4A 3418   9.741   8.347   7.995  0.2258 -0.0620 -0.0798
  214loPI   C5A 3419   9.462   8.546   7.775  0.1612 -0.1858 -0.0875
  214loPI   C6A 3420   9.263   8.677   7.416  0.1915 -0.1006 -0.0939
  214loPI   C1B 3421   9.393   8.511   8.950 -0.1946  0.1794  0.1913
  214loPI   C2B 3422   9.389   8.491   8.464  0.1438  0.0447  0.0584
  214loPI   C3B 3423   9.102   8.536   8.131  0.2605 -0.2394  0.0660
  214loPI   C4B 3424   8.823   8.596   7.712 -0.2072  0.1170 -0.1238
  215loPI    C1 3425   8.328   8.974   9.932  0.1251  0.0205  0.1865
  215loPI    C2 3426   8.320   8.672  10.194  0.1618 -0.0410  0.1169
  215loPI    C3 3427   8.027   8.711   9.924  0.0937  0.0559  0.2042
  215loPI   PO4 3428   8.592   9.055   9.861 -0.3659 -0.0928  0.0411
  215loPI   GL1 3429   8.903   8.963   9.638 -0.0670 -0.1632 -0.0575
  215loPI   GL2 3430   8.845   9.195   9.413  0.1830 -0.0973  0.3786
  215loPI   C1A 3431   9.132   8.816   9.170  0.1538  0.2532  0.0928
  215loPI   C2A 3432   8.996   8.860   8.781  0.2579  0.2194  0.3042
  215loPI   C3A 3433   9.085   8.963   8.360  0.0377  0.0542  0.2443
  215loPI   C4A 3434   9.146   9.126   8.008 -0.3426  0.1625  0.1464
  215loPI   C5A 3435   9.114   9.410   7.761 -0.0429 -0.3359 -0.0236
  215loPI   C6A 3436   9.418   9.700   7.512 -0.2962  0.0563 -0.0176
  215loPI   C1B 3437   8.956   9.347   8.991  0.0381 -0.2345 -0.1747
  215loPI   C2B 3438   9.185   9.386   8.581  0.1354  0.0790 -0.1615
  215loPI   C3B 3439   8.902   9.511   8.256 -0.0972  0.2169  0.2749
  215loPI   C4B 3440   8.566   9.534   8.315  0.0216 -0.0627 -0.2890
  216loPI    C1 3441  12.718  16.608  10.276 -0.0349  0.1848 -0.1750
  216loPI    C2 3442  12.350  16.763  10.248 -0.0062  0.2839 -0.0190
  216loPI    C3 3443  12.586  16.863  10.555  0.0612  0.0304  0.0144
  216loPI   PO4 3444  12.651  16.404  10.138  0.1030  0.0320  0.2370
  216loPI   GL1 3445  12.524  16.226   9.808 -0.0557 -0.0784  0.0573
  216loPI   GL2 3446  12.321  15.986   9.839  0.1711 -0.1550 -0.0076
  216loPI   C1A 3447  12.374  16.295   9.302  0.0155  0.3060 -0.0664
  216loPI   C2A 3448  12.354  16.029   9.047 -0.0201 -0.1965 -0.1780
  216loPI   C3A 3449  12.574  15.812   8.752 -0.0084  0.1277 -0.0802
  216loPI   C4A 3450  12.735  15.779   8.364 -0.2471  0.1874 -0.1882
  216loPI   C5A 3451  12.585  15.582   7.969 -0.1451  0.2114 -0.2698
  216loPI   C6A 3452  12.353  15.200   7.796  0.1316  0.0998 -0.2075
  216loPI   C1B 3453  12.004  16.043   9.565 -0.1136  0.1318  0.1848
  216loPI   C2B 3454  11.909  16.276   9.086  0.4197  0.0820  0.1773
  216loPI   C3B 3455  11.746  16.305   8.685 -0.2416  0.2065  0.0179
  216loPI   C4B 3456  11.415  16.472   8.533  0.0605  0.2705  0.1983
  217loPI    C1 3457   1.903  17.653  10.597  0.0739  0.2470 -0.0307
  217loPI    C2 3458   1.866  18.052  10.592  0.2368  0.2680  0.2650
  217loPI    C3 3459   1.795  17.848  10.929 -0.3013 -0.0025 -0.0011
  217loPI   PO4 3460   1.755  17.598  10.399  0.0538  0.0294 -0.0674
  217loPI   GL1 3461   1.899  17.680   9.971  0.2447  0.0932  0.0051
  217loPI   GL2 3462   1.657  17.809   9.827  0.3125 -0.1914  0.1785
  217loPI   C1A 3463   2.196  17.693   9.578 -0.0493  0.2565 -0.2379
  217loPI   C2A 3464   2.632  17.920   9.584  0.1523  0.0514  0.0668
  217loPI   C3A 3465   2.985  18.130   9.440  0.2576  0.1315  0.0482
  217loPI   C4A 3466   3.004  18.081   9.015 -0.2134 -0.0770  0.1214
  217loPI   C5A 3467   3.032  17.774   8.754  0.0883 -0.0678 -0.0761
  217loPI   C6A 3468   2.843  17.551   8.353 -0.0632  0.0813 -0.1277
  217loPI   C1B 3469   1.728  17.793   9.323 -0.1610  0.0147  0.1666
  217loPI   C2B 3470   1.560  17.671   8.914  0.1000 -0.1123  0.0017
  217loPI   C3B 3471   1.628  17.393   8.568 -0.1812  0.2211 -0.2002
  217loPI   C4B 3472   1.570  17.323   8.140 -0.1682  0.0603  0.2148
  218loPI    C1 3473  14.240  15.787  10.154  0.0900  0.0479 -0.0960
  218loPI    C2 3474  14.228  15.401  10.257  0.0384  0.1036  0.1118
  218loPI    C3 3475  14.399  15.668  10.501  0.0625  0.2143 -0.0254
  218loPI   PO4 3476  14.293  15.718   9.888  0.0811 -0.1956 -0.0529
  218loPI   GL1 3477  14.232  15.470   9.549  0.2097 -0.1336 -0.0243
  218loPI   GL2 3478  14.397  15.230   9.806 -0.4724  0.3351  0.0243
  218loPI   C1A 3479  14.244  15.234   9.114  0.3083  0.2000  0.0809
  218loPI   C2A 3480  14.196  15.228   8.776 -0.2493  0.3151  0.1610
  218loPI   C3A 3481  13.944  15.037   8.444 -0.0171  0.2973 -0.1023
  218loPI   C4A 3482  13.703  14.786   8.170 -0.0179  0.0979  0.1245
  218loPI   C5A 3483  13.819  14.567   7.849  0.0824  0.0069  0.0376
  218loPI   C6A 3484  14.174  14.719   7.624  0.0317  0.1037 -0.1240
  218loPI   C1B 3485  14.491  15.010   9.481  0.2800 -0.1145 -0.2135
  218loPI   C2B 3486  14.693  14.889   9.079  0.0049  0.3264  0.1931
  218loPI   C3B 3487  14.684  15.017   8.656 -0.0693  0.2929  0.4951
  218loPI   C4B 3488  14.928  14.800   8.384 -0.0779 -0.0770  0.1196
  219loPI    C1 3489   3.868  13.915  10.390 -0.1491  0.0788  0.1067
  219loPI    C2 3490   4.225  13.864  10.215 -0.2153 -0.2056  0.0503
  219loPI    C3 3491   4.193  14.094  10.541 -0.0428  0.1052 -0.1478
  219loPI   PO4 3492   3.653  13.861  10.169 -0.0602  0.0180  0.1431
  219loPI   GL1 3493   3.431  13.850   9.757  0.0989  0.0242  0.0228
  219loPI   GL2 3494   3.741  14.070   9.731  0.0363  0.0702  0.0729
  219loPI   C1A 3495   3.276  13.619   9.333  0.0756  0.1177 -0.1016
  219loPI   C2A 3496   3.064  13.786   9.018  0.2270  0.0315  0.0673
  219loPI   C3A 3497   2.844  13.990   8.687  0.0975 -0.0003 -0.3374
  219loPI   C4A 3498   2.703  14.181   8.288 -0.1058 -0.3065  0.1022
  219loPI   C5A 3499   2.977  14.369   8.091 -0.2897  0.2274 -0.0823
  219loPI   C6A 3500   3.071  14.744   7.874 -0.2735 -0.0596  0.0222
  219loPI   C1B 3501   3.666  14.059   9.264  0.3561  0.0165 -0.2058
  219loPI   C2B 3502   3.336  14.272   8.980  0.2185  0.3212 -0.2155
  219loPI   C3B 3503   3.219  14.339   8.591  0.0609 -0.1961 -0.3271
  219loPI   C4B 3504   3.480  14.292   8.192 -0.1042 -0.1048 -0.1807
  220loPI    C1 3505   2.588   7.058   9.811 -0.0379  0.1059  0.1002
  220loPI    C2 3506   2.282   7.003  10.063 -0.0274 -0.0619  0.0777
  220loPI    C3 3507   2.649   6.879  10.163 -0.0453 -0.2371 -0.0682
  220loPI   PO4 3508   2.478   6.874   9.500 -0.0051  0.1948 -0.0323
  220loPI   GL1 3509   2.165   6.825   9.153  0.3028 -0.0086 -0.0241
  220loPI   GL2 3510   2.156   6.531   9.314 -0.0696  0.2719  0.0944
  220loPI   C1A 3511   2.130   7.098   8.880  0.1126  0.1427 -0.1257
  220loPI   C2A 3512   2.166   7.098   8.531  0.2588  0.1380 -0.1905
  220loPI   C3A 3513   2.246   7.217   8.159  0.1689 -0.1366 -0.3099
  220loPI   C4A 3514   2.468   7.081   7.702 -0.4046  0.0366  0.4184
  220loPI   C5A 3515   2.686   6.866   7.342 -0.0121 -0.0566 -0.0500
  220loPI   C6A 3516   2.913   7.122   7.031  0.0300  0.0538  0.1020
  220loPI   C1B 3517   2.044   6.415   8.906 -0.4252  0.0944 -0.2591
  220loPI   C2B 3518   2.159   6.585   8.611  0.1698 -0.1084  0.2307
  220loPI   C3B 3519   2.072   6.587   8.239 -0.3641 -0.1078  0.0148
  220loPI   C4B 3520   1.954   6.384   7.878 -0.1918  0.1914  0.4490
  221loPI    C1 3521  14.701  17.496  10.065 -0.1441 -0.2415 -0.1486
  221loPI    C2 3522  14.649  17.417  10.454  0.0911 -0.0730 -0.0812
  221loPI    C3 3523  14.338  17.397  10.203 -0.0879 -0.0608  0.1364
  221loPI   PO4 3524  15.000  17.252  10.060 -0.3618 -0.1516 -0.2188
  221loPI   GL1 3525  15.171  17.215   9.785 -0.1220  0.3372  0.1115
  221loPI   GL2 3526  15.352  17.557   9.836  0.2377  0.0659 -0.0573
  221loPI   C1A 3527  15.204  16.980   9.342 -0.3186  0.2202  0.2635
  221loPI   C2A 3528  15.366  16.864   8.966  0.4124  0.1074  0.0315
  221loPI   C3A 3529  15.391  16.675   8.544  0.3123  0.1850  0.1905
  221loPI   C4A 3530  15.331  16.273   8.506 -0.0460 -0.2367 -0.1189
  221loPI   C5A 3531  15.572  15.902   8.296 -0.0926  0.0735  0.1093
  221loPI   C6A 3532  15.414  15.819   7.816  0.0255  0.1043  0.2279
  221loPI   C1B 3533  15.346  17.634   9.356  0.0570 -0.0037 -0.2316
  221loPI   C2B 3534  15.475  17.357   8.937 -0.1623  0.0375 -0.2332
  221loPI   C3B 3535  15.515  17.202   8.582  0.1989 -0.0587  0.0590
  221loPI   C4B 3536  15.484  16.985   8.192  0.0114 -0.1011 -0.1412
  222loPI    C1 3537  14.775   5.147  10.091  0.0487 -0.0629 -0.0297
  222loPI    C2 3538  14.769   5.379  10.417 -0.0463  0.0820 -0.1336
  222loPI    C3 3539  14.651   4.998  10.441  0.0891  0.0497  0.0331
  222loPI   PO4 3540  14.941   5.331   9.946  0.2157  0.1602  0.0347
  222loPI   GL1 3541  15.046   5.346   9.558 -0.1591 -0.1630 -0.2274
  222loPI   GL2 3542  15.035   4.978   9.571 -0.0680 -0.2952  0.2277
  222loPI   C1A 3543  15.061   5.632   9.228  0.2338  0.2880 -0.0279
  222loPI   C2A 3544  15.057   5.573   8.760  0.1310  0.3820  0.0753
  222loPI   C3A 3545  14.964   5.593   8.365 -0.2668  0.0663 -0.0284
  222loPI   C4A 3546  14.952   5.885   8.044 -0.0916  0.0989 -0.3771
  222loPI   C5A 3547  15.064   6.069   7.622  0.3693  0.1019  0.0837
  222loPI   C6A 3548  14.952   5.836   7.263  0.0326 -0.0995 -0.0199
  222loPI   C1B 3549  15.052   4.755   9.250  0.0905  0.0657  0.2917
  222loPI   C2B 3550  15.247   4.671   8.720 -0.1170 -0.2563  0.2055
  222loPI   C3B 3551  15.393   4.587   8.352  0.0485  0.1125 -0.0832
  222loPI   C4B 3552  15.421   4.808   7.968  0.3071 -0.0466  0.1626
  223loPI    C1 3553  14.319   0.578  10.458 -0.0476 -0.1076  0.0614
  223loPI    C2 3554  14.639   0.781  10.587 -0.0865 -0.0446  0.0598
  223loPI    C3 3555  14.357   0.666  10.846  0.0868 -0.3707  0.1102
  223loPI   PO4 3556  14.286   0.696  10.264  0.3883  0.2389 -0.0648
  223loPI   GL1 3557  14.335   0.688   9.750 -0.0274 -0.1232 -0.1877
  223loPI   GL2 3558  14.532   1.052   9.683  0.0221  0.1348 -0.0861
  223loPI   C1A 3559  14.260   0.505   9.397 -0.3339  0.3368 -0.0199
  223loPI   C2A 3560  14.423   0.592   9.004  0.0358 -0.2898 -0.2389
  223loPI   C3A 3561  14.405   0.746   8.639  0.1810  0.3433 -0.1230
  223loPI   C4A 3562  14.482   0.944   8.208  0.1634 -0.0050  0.0819
  223loPI   C5A 3563  14.540   0.943   7.837 -0.0660 -0.1119 -0.1401
  223loPI   C6A 3564  14.249   0.713   7.727  0.1104  0.0883  0.1256
  223loPI   C1B 3565  14.360   1.002   9.309  0.1268  0.1932  0.4331
  223loPI   C2B 3566  14.056   1.123   8.893 -0.1138  0.2141 -0.0136
  223loPI   C3B 3567  14.051   1.149   8.453  0.0515 -0.2076  0.1251
  223loPI   C4B 3568  14.022   1.122   8.094 -0.1306 -0.0423 -0.1708
  224loPI    C1 3569   6.840   3.493   9.879 -0.0794  0.0800 -0.0032
  224loPI    C2 3570   7.123   3.690  10.081  0.0256 -0.0457 -0.0262
  224loPI    C3 3571   6.810   3.535  10.276  0.1730 -0.2459  0.0551
  224loPI   PO4 3572   6.901   3.596   9.607 -0.3717 -0.3308  0.0529
  224loPI   GL1 3573   7.116   3.439   9.273 -0.0371 -0.1680  0.4777
  224loPI   GL2 3574   6.790   3.330   9.143  0.0886 -0.2053  0.0061
  224loPI   C1A 3575   7.411   3.473   9.043  0.1030  0.0855  0.2426
  224loPI   C2A 3576   7.472   3.508   8.597 -0.1273 -0.0532 -0.1898
  224loPI   C3A 3577   7.279   3.802   8.240 -0.0891  0.0516  0.0446
  224loPI   C4A 3578   7.351   3.975   7.820 -0.0159  0.2942 -0.4282
  224loPI   C5A 3579   7.042   4.046   7.530  0.3011 -0.0758  0.1744
  224loPI   C6A 3580   6.879   4.182   7.218  0.1373  0.0108 -0.0995
  224loPI   C1B 3581   6.568   3.182   8.677  0.0736  0.3019 -0.2696
  224loPI   C2B 3582   6.745   2.985   8.300 -0.0065 -0.1133  0.0356
  224loPI   C3B 3583   6.736   2.944   7.883  0.0314 -0.0662  0.0122
  224loPI   C4B 3584   6.652   2.982   7.504 -0.3106 -0.0193  0.1187
  225loPI    C1 3585  10.526   1.509  10.007  0.1288  0.1700  0.3569
  225loPI    C2 3586  10.155   1.656  10.035  0.0745  0.0581  0.2322
  225loPI    C3 3587  10.267   1.349  10.266  0.0258 -0.0381  0.1293
  225loPI   PO4 3588  10.532   1.775   9.744 -0.2326  0.0787 -0.3195
  225loPI   GL1 3589  10.750   2.073   9.492  0.3490 -0.0016 -0.4519
  225loPI   GL2 3590  10.466   2.188   9.399  0.2057  0.0904  0.2515
  225loPI   C1A 3591  10.832   2.257   9.077 -0.2650  0.2715 -0.2851
  225loPI   C2A 3592  10.926   2.455   8.784 -0.4320  0.1349  0.3383
  225loPI   C3A 3593  10.843   2.724   8.344  0.0877  0.1498 -0.1744
  225loPI   C4A 3594  10.694   2.640   7.910 -0.3273  0.5758  0.1074
  225loPI   C5A 3595  10.479   2.863   7.820 -0.1695  0.0028 -0.2182
  225loPI   C6A 3596  10.184   3.052   7.937 -0.1730  0.1251 -0.3487
  225loPI   C1B 3597  10.429   1.905   9.043  0.0466 -0.0750 -0.3620
  225loPI   C2B 3598  10.633   2.010   8.632  0.3310  0.0313  0.0447
  225loPI   C3B 3599  10.716   1.615   8.311 -0.1749 -0.2279  0.0070
  225loPI   C4B 3600  10.667   1.245   8.170  0.1047  0.2667  0.0161
  226loPI    C1 3601   0.343  15.621  10.516 -0.1624  0.1704 -0.1263
  226loPI    C2 3602   0.065  15.386  10.350 -0.1407 -0.0588  0.1546
  226loPI    C3 3603   0.201  15.306  10.718  0.0031  0.2882  0.1804
  226loPI   PO4 3604   0.461  15.769  10.302 -0.1437  0.1312  0.0460
  226loPI   GL1 3605   0.404  16.068   9.939 -0.0870  0.2084  0.2158
  226loPI   GL2 3606   0.631  16.102   9.776  0.0969 -0.4374  0.1257
  226loPI   C1A 3607   0.178  16.072   9.536  0.2453 -0.2509 -0.1253
  226loPI   C2A 3608   0.172  16.049   9.068  0.1541 -0.0085 -0.3509
  226loPI   C3A 3609   0.301  15.977   8.625  0.0842 -0.0292  0.0584
  226loPI   C4A 3610   0.268  16.431   8.349  0.3210  0.1139 -0.1244
  226loPI   C5A 3611   0.083  16.771   8.093  0.3689 -0.0341 -0.0952
  226loPI   C6A 3612  -0.382  16.993   8.163  0.2592 -0.2568  0.1582
  226loPI   C1B 3613   0.587  15.887   9.265  0.0217  0.2081  0.2107
  226loPI   C2B 3614   0.751  15.767   8.944  0.0537  0.0442  0.1308
  226loPI   C3B 3615   0.797  15.743   8.566  0.0411  0.0975  0.1733
  226loPI   C4B 3616   0.504  15.761   8.179  0.0298 -0.0403  0.0036
  227loPI    C1 3617   2.063   5.164  10.338  0.0636  0.1209  0.1766
  227loPI    C2 3618   2.046   5.136  10.737 -0.0232 -0.0070  0.1648
  227loPI    C3 3619   2.400   5.175  10.553  0.0202  0.0081  0.2512
  227loPI   PO4 3620   1.733   5.140  10.289  0.2331 -0.0660  0.2052
  227loPI   GL1 3621   1.480   5.323   9.876 -0.1504  0.2106 -0.0472
  227loPI   GL2 3622   1.740   5.104   9.757  0.0904 -0.0766 -0.0290
  227loPI   C1A 3623   1.733   5.617   9.544  0.0107 -0.1336  0.0910
  227loPI   C2A 3624   1.657   5.718   9.155  0.0133  0.3090  0.0110
  227loPI   C3A 3625   1.620   5.753   8.674  0.2309 -0.0652 -0.2597
  227loPI   C4A 3626   2.024   5.677   8.400  0.2472  0.0423  0.1677
  227loPI   C5A 3627   2.137   5.903   8.101  0.2562  0.0648  0.5611
  227loPI   C6A 3628   2.314   5.949   7.743 -0.1459  0.4423 -0.1061
  227loPI   C1B 3629   1.711   5.193   9.311 -0.2219  0.1334  0.0825
  227loPI   C2B 3630   1.686   5.320   8.846  0.0178  0.3685  0.0687
  227loPI   C3B 3631   1.677   5.298   8.370 -0.2879  0.1814 -0.0031
  227loPI   C4B 3632   1.277   5.324   8.114  0.3565 -0.1643 -0.3131
  228loPI    C1 3633   7.403  15.842  10.081 -0.3626  0.1235  0.0556
  228loPI    C2 3634   7.525  15.933  10.451  0.0705 -0.1243 -0.0183
  228loPI    C3 3635   7.576  15.563  10.310 -0.0296 -0.0144 -0.3516
  228loPI   PO4 3636   7.078  15.894  10.027  0.3374 -0.1913 -0.2056
  228loPI   GL1 3637   7.033  16.058   9.609  0.0702  0.1142 -0.0553
  228loPI   GL2 3638   6.969  15.758   9.484 -0.1661  0.0536 -0.0508
  228loPI   C1A 3639   7.295  16.074   9.165  0.2556 -0.0481  0.3053
  228loPI   C2A 3640   7.148  16.064   8.781 -0.0746 -0.1016  0.2251
  228loPI   C3A 3641   7.012  15.948   8.355  0.2794  0.1259 -0.0903
  228loPI   C4A 3642   6.723  15.933   8.089 -0.2176  0.0058 -0.2035
  228loPI   C5A 3643   6.676  16.052   7.724  0.1141  0.2977  0.2475
  228loPI   C6A 3644   6.969  16.300   7.544  0.0337 -0.1356 -0.2782
  228loPI   C1B 3645   6.904  15.721   9.071  0.0930  0.1084 -0.0731
  228loPI   C2B 3646   6.853  15.615   8.682  0.1935  0.0443  0.1127
  228loPI   C3B 3647   6.885  15.444   8.404 -0.3518  0.1400 -0.0468
  228loPI   C4B 3648   6.982  15.445   7.927 -0.0564  0.5064  0.1769
  229loPI    C1 3649  15.955  17.381  10.505 -0.0695  0.1350  0.0017
  229loPI    C2 3650  16.005  17.056  10.733 -0.1135  0.0216 -0.1486
  229loPI    C3 3651  15.905  17.405  10.901  0.4115  0.0751  0.0721
  229loPI   PO4 3652  16.106  17.422  10.297 -0.0408  0.0314  0.0969
  229loPI   GL1 3653  16.147  17.391   9.838  0.0725  0.3806 -0.1810
  229loPI   GL2 3654  16.154  17.098   9.857 -0.1448 -0.4012 -0.1175
  229loPI   C1A 3655  16.391  17.535   9.432  0.0282 -0.0474 -0.1130
  229loPI   C2A 3656  16.420  17.572   8.970 -0.1731  0.2464 -0.1141
  229loPI   C3A 3657  16.390  17.744   8.626 -0.0928 -0.2750  0.1812
  229loPI   C4A 3658  16.273  17.677   8.235  0.2078 -0.2476  0.1148
  229loPI   C5A 3659  16.429  17.852   7.972 -0.0513  0.0859  0.1052
  229loPI   C6A 3660  16.393  18.062   7.533 -0.2054  0.1185  0.2854
  229loPI   C1B 3661  16.594  17.124   9.653  0.0024 -0.1974 -0.2070
  229loPI   C2B 3662  16.795  16.786   9.375 -0.4063 -0.1924  0.0377
  229loPI   C3B 3663  17.028  16.502   9.147 -0.0247 -0.1164 -0.2734
  229loPI   C4B 3664  17.232  16.268   8.722 -0.4081 -0.0586  0.1011
  230loPI    C1 3665  12.121  18.489   9.724  0.3701 -0.0602 -0.1223
  230loPI    C2 3666  12.269  18.527  10.094 -0.1072  0.0950  0.0607
  230loPI    C3 3667  12.266  18.841   9.846 -0.1554  0.0998  0.0671
  230loPI   PO4 3668  12.165  18.258   9.621 -0.2441  0.0433  0.2076
  230loPI   GL1 3669  12.250  18.022   9.291  0.2079  0.1393  0.2896
  230loPI   GL2 3670  12.260  18.305   9.125 -0.2310 -0.0135 -0.1118
  230loPI   C1A 3671  12.693  17.964   9.092  0.0930  0.1665 -0.0148
  230loPI   C2A 3672  12.802  17.795   8.581  0.1792 -0.3086 -0.0660
  230loPI   C3A 3673  12.776  17.552   8.165 -0.1335  0.1616 -0.1090
  230loPI   C4A 3674  13.189  17.265   7.978 -0.0934 -0.0900  0.1042
  230loPI   C5A 3675  13.550  17.145   7.818 -0.0623  0.2157  0.1295
  230loPI   C6A 3676  13.786  17.075   8.099 -0.4549 -0.1750  0.4513
  230loPI   C1B 3677  12.163  18.045   8.763 -0.0763 -0.1024  0.1948
  230loPI   C2B 3678  12.324  17.869   8.462  0.2764  0.2252 -0.0135
  230loPI   C3B 3679  12.339  17.693   8.058  0.2263 -0.3065 -0.2694
  230loPI   C4B 3680  11.993  17.606   7.826 -0.2948 -0.5609 -0.0113
  231loPI    C1 3681  12.529   7.390  10.205  0.0197  0.1301 -0.1218
  231loPI    C2 3682  12.212   7.328  10.442  0.1507 -0.4347 -0.0802
  231loPI    C3 3683  12.511   7.564  10.565 -0.1089 -0.1462  0.0087
  231loPI   PO4 3684  12.511   7.144  10.036  0.1777 -0.2682  0.2677
  231loPI   GL1 3685  12.460   7.098   9.705 -0.0852  0.0194  0.0881
  231loPI   GL2 3686  12.215   6.869   9.547  0.1635  0.0487 -0.1166
  231loPI   C1A 3687  12.722   7.203   9.309  0.0266 -0.2904 -0.0707
  231loPI   C2A 3688  12.821   6.989   8.959  0.0740  0.1591 -0.0424
  231loPI   C3A 3689  12.904   7.004   8.571 -0.2314 -0.2263 -0.1426
  231loPI   C4A 3690  12.595   7.162   8.178  0.1655  0.1486  0.2935
  231loPI   C5A 3691  12.382   7.390   7.843  0.1086  0.0417  0.2943
  231loPI   C6A 3692  12.275   7.240   7.404 -0.0110 -0.2773  0.4676
  231loPI   C1B 3693  12.404   6.831   9.116  0.1450  0.0110  0.2121
  231loPI   C2B 3694  12.589   6.674   8.666 -0.0057 -0.0514 -0.4200
  231loPI   C3B 3695  12.689   6.683   8.295  0.0656  0.4033  0.1962
  231loPI   C4B 3696  12.993   6.875   8.046  0.0326 -0.1176  0.1142
  232loPI    C1 3697  18.078   3.362  10.370  0.2303 -0.1083  0.0246
  232loPI    C2 3698  17.858   3.335  10.703  0.1758 -0.1641 -0.0158
  232loPI    C3 3699  17.899   3.017  10.463 -0.0205 -0.0450 -0.2112
  232loPI   PO4 3700  18.140   3.653  10.428 -0.2717  0.1279  0.2723
  232loPI   GL1 3701  18.278   4.097  10.135 -0.1123 -0.1184  0.3768
  232loPI   GL2 3702  17.982   3.869   9.977  0.1340 -0.0455  0.1795
  232loPI   C1A 3703  18.435   4.294   9.700 -0.3460  0.0747 -0.0756
  232loPI   C2A 3704  18.546   4.517   9.386  0.0664  0.3493 -0.1338
  232loPI   C3A 3705  18.602   4.451   8.969  0.2192 -0.2892 -0.0381
  232loPI   C4A 3706  18.604   4.388   8.580  0.4617 -0.1232 -0.1811
  232loPI   C5A 3707  18.643   4.540   8.184 -0.0101  0.2055 -0.2062
  232loPI   C6A 3708  18.455   4.805   8.122 -0.0373  0.0399 -0.0815
  232loPI   C1B 3709  18.313   3.862   9.706  0.1610  0.1294 -0.2626
  232loPI   C2B 3710  18.465   3.987   9.323  0.0958  0.3324  0.2202
  232loPI   C3B 3711  18.393   3.991   8.868  0.2410 -0.0518 -0.4314
  232loPI   C4B 3712  18.215   4.049   8.644  0.0151  0.0251  0.0987
  233loPI    C1 3713  13.373  16.738   9.842  0.0593  0.2227  0.0798
  233loPI    C2 3714  13.468  16.942  10.173 -0.0495  0.1337  0.1670
  233loPI    C3 3715  13.180  16.664  10.185  0.0142  0.0602  0.0207
  233loPI   PO4 3716  13.386  16.966   9.654  0.0611 -0.1234  0.1744
  233loPI   GL1 3717  13.512  17.093   9.268  0.2098 -0.1726  0.1862
  233loPI   GL2 3718  13.729  17.344   9.496  0.2496 -0.2483 -0.1311
  233loPI   C1A 3719  13.480  17.112   8.886 -0.3317 -0.2097  0.1594
  233loPI   C2A 3720  13.370  17.017   8.411 -0.2160 -0.2883  0.2243
  233loPI   C3A 3721  13.394  16.692   8.105 -0.0627  0.0351 -0.2351
  233loPI   C4A 3722  13.493  16.393   7.731 -0.0523  0.1417  0.2731
  233loPI   C5A 3723  13.328  16.005   7.669 -0.1178  0.2295 -0.0791
  233loPI   C6A 3724  13.027  15.574   7.607 -0.5857  0.0460  0.1106
  233loPI   C1B 3725  13.956  17.327   9.083 -0.1606  0.4144  0.0196
  233loPI   C2B 3726  14.163  17.216   8.737 -0.1406  0.1966 -0.3392
  233loPI   C3B 3727  14.249  17.322   8.347 -0.0874  0.0980  0.0435
  233loPI   C4B 3728  14.392  17.282   7.956  0.1657  0.0868  0.0656
  234loPI    C1 3729   8.649  12.052  10.158  0.0076  0.0602  0.0912
  234loPI    C2 3730   8.609  11.662  10.235  0.0489  0.0980  0.3092
  234loPI    C3 3731   8.345  11.923  10.384 -0.0984  0.1348 -0.0077
  234loPI   PO4 3732   8.679  12.052   9.879  0.1604 -0.0195  0.0943
  234loPI   GL1 3733   8.541  11.942   9.526 -0.1265 -0.1410 -0.0665
  234loPI   GL2 3734   8.183  11.846   9.459  0.3059  0.1684  0.0168
  234loPI   C1A 3735   8.681  11.721   9.188 -0.1688  0.0162 -0.1808
  234loPI   C2A 3736   9.018  11.861   8.860  0.0995  0.0087  0.1544
  234loPI   C3A 3737   9.035  11.960   8.402  0.0176 -0.0374  0.1241
  234loPI   C4A 3738   9.227  11.893   7.990 -0.2377 -0.1614 -0.3850
  234loPI   C5A 3739   9.381  12.015   7.626 -0.0233  0.1323 -0.2634
  234loPI   C6A 3740   9.703  11.816   7.418 -0.0274  0.2815  0.0760
  234loPI   C1B 3741   8.205  11.746   9.039 -0.4502  0.0972  0.1568
  234loPI   C2B 3742   8.534  11.661   8.591  0.2342  0.2989 -0.1286
  234loPI   C3B 3743   8.543  11.268   8.337 -0.1427  0.0081  0.0322
  234loPI   C4B 3744   8.392  11.249   7.903  0.1801 -0.1564 -0.2939
  235loPI    C1 3745  15.344  18.076   9.935 -0.0197  0.2027  0.0643
  235loPI    C2 3746  14.950  18.028   9.984 -0.0363 -0.2415 -0.4158
  235loPI    C3 3747  15.206  17.833  10.221 -0.0868  0.4245  0.2230
  235loPI   PO4 3748  15.350  18.366   9.941 -0.2085  0.2087 -0.5209
  235loPI   GL1 3749  15.376  18.554   9.551 -0.0993 -0.3143 -0.0865
  235loPI   GL2 3750  15.262  18.797   9.479  0.0165 -0.1736  0.2497
  235loPI   C1A 3751  15.312  18.358   9.123 -0.0393 -0.0708 -0.1932
  235loPI   C2A 3752  15.492  18.243   8.665 -0.1066 -0.0004  0.1693
  235loPI   C3A 3753  15.480  18.359   8.265 -0.2008  0.1888 -0.3952
  235loPI   C4A 3754  15.543  18.314   7.804  0.2064 -0.1817 -0.0164
  235loPI   C5A 3755  15.649  18.615   7.549 -0.2167 -0.0763  0.2945
  235loPI   C6A 3756  15.622  18.745   7.140 -0.1767  0.0963 -0.2199
  235loPI   C1B 3757  15.058  18.891   9.007  0.0750  0.2641 -0.3247
  235loPI   C2B 3758  15.106  18.764   8.640  0.4886 -0.0479 -0.1177
  235loPI   C3B 3759  15.006  18.402   8.401 -0.1820 -0.1953 -0.0890
  235loPI   C4B 3760  15.112  18.087   8.104  0.2826 -0.2597  0.2935
  236loPI    C1 3761  14.138   2.468  10.388 -0.2343 -0.0386  0.2728
  236loPI    C2 3762  13.891   2.157  10.340  0.0469 -0.2402  0.0995
  236loPI    C3 3763  14.168   2.149  10.628 -0.0000 -0.1123  0.1487
  236loPI   PO4 3764  14.243   2.462  10.119  0.1611 -0.1137  0.1209
  236loPI   GL1 3765  14.485   2.291   9.781  0.1446 -0.4851  0.1296
  236loPI   GL2 3766  14.734   1.983   9.754 -0.2851  0.1146 -0.0791
  236loPI   C1A 3767  14.446   2.455   9.380  0.1246 -0.0784  0.1867
  236loPI   C2A 3768  14.316   2.547   8.899  0.4786 -0.1612  0.2493
  236loPI   C3A 3769  14.544   2.718   8.480 -0.2693 -0.2235 -0.2272
  236loPI   C4A 3770  14.494   2.767   8.030 -0.2041  0.1905  0.1185
  236loPI   C5A 3771  14.228   2.820   7.608 -0.0894  0.0267  0.1522
  236loPI   C6A 3772  14.142   3.247   7.376 -0.0293 -0.2823  0.3761
  236loPI   C1B 3773  14.935   2.140   9.352 -0.2014 -0.1482  0.2091
  236loPI   C2B 3774  14.803   2.179   8.897 -0.0299  0.1936  0.2534
  236loPI   C3B 3775  14.975   2.273   8.553 -0.2336  0.0858 -0.2108
  236loPI   C4B 3776  15.090   2.079   8.109  0.0658  0.0021  0.1382
  237loPI    C1 3777  17.357   7.165  10.014 -0.0270 -0.1560  0.0113
  237loPI    C2 3778  17.536   6.822   9.914  0.0864 -0.1083  0.0483
  237loPI    C3 3779  17.754   7.128  10.051 -0.0551 -0.1427  0.3596
  237loPI   PO4 3780  17.194   7.194   9.871 -0.2695  0.2989  0.1215
  237loPI   GL1 3781  17.060   7.494   9.540  0.0419  0.1326 -0.2493
  237loPI   GL2 3782  17.231   7.268   9.285  0.2266  0.2959 -0.1915
  237loPI   C1A 3783  16.841   7.641   9.143  0.0115  0.1053 -0.1551
  237loPI   C2A 3784  16.762   7.810   8.776 -0.3185  0.0211 -0.1637
  237loPI   C3A 3785  16.693   7.945   8.388 -0.1664  0.0095 -0.2484
  237loPI   C4A 3786  16.591   8.185   8.173 -0.0262 -0.1123  0.1724
  237loPI   C5A 3787  16.436   8.275   7.745 -0.2853 -0.0780 -0.1347
  237loPI   C6A 3788  16.414   8.258   7.319 -0.0087 -0.0104 -0.2241
  237loPI   C1B 3789  17.237   7.318   8.946  0.0023  0.1135  0.1762
  237loPI   C2B 3790  17.047   7.493   8.532 -0.0211 -0.2371 -0.2878
  237loPI   C3B 3791  16.642   7.484   8.239 -0.1262 -0.1101 -0.0695
  237loPI   C4B 3792  16.183   7.479   8.161  0.1323  0.2550  0.2516
  238loPI    C1 3793  18.139  17.809  10.606  0.1458 -0.0006 -0.1206
  238loPI    C2 3794  18.172  18.194  10.708  0.3695 -0.0651  0.0590
  238loPI    C3 3795  18.083  17.920  10.986  0.1219 -0.1330 -0.0846
  238loPI   PO4 3796  18.317  17.803  10.390  0.1760  0.2492  0.3057
  238loPI   GL1 3797  18.611  17.684   9.966  0.2653  0.1900  0.0682
  238loPI   GL2 3798  18.879  17.544   9.979  0.0371 -0.0330  0.3415
  238loPI   C1A 3799  18.592  17.892   9.598 -0.1028 -0.2794 -0.2758
  238loPI   C2A 3800  18.569  17.960   9.118 -0.3561  0.1988 -0.1223
  238loPI   C3A 3801  18.739  17.879   8.714 -0.2078 -0.0187  0.0639
  238loPI   C4A 3802  18.910  17.615   8.268 -0.1597  0.1043  0.2977
  238loPI   C5A 3803  18.848  17.351   7.841 -0.2207  0.0088  0.1934
  238loPI   C6A 3804  18.545  17.099   7.682  0.0480  0.2485 -0.2810
  238loPI   C1B 3805  18.891  17.527   9.537  0.0931  0.0199 -0.0075
  238loPI   C2B 3806  18.890  17.214   9.245 -0.2820 -0.1009  0.0191
  238loPI   C3B 3807  18.885  17.235   8.831 -0.0340 -0.0804  0.0619
  238loPI   C4B 3808  18.797  17.161   8.410 -0.1664 -0.2405  0.0264
  239loPI    C1 3809  15.490   5.293  10.251  0.2319  0.0475 -0.0635
  239loPI    C2 3810  15.201   5.117  10.463  0.0744  0.0369 -0.2837
  239loPI    C3 3811  15.542   5.225  10.642  0.0214 -0.1459 -0.0674
  239loPI   PO4 3812  15.331   5.537  10.181 -0.0709  0.0296  0.3694
  239loPI   GL1 3813  15.330   5.834   9.776  0.1725  0.0529  0.0626
  239loPI   GL2 3814  15.541   6.027   9.712 -0.2793  0.1898 -0.0071
  239loPI   C1A 3815  15.487   5.637   9.470  0.0478 -0.0230  0.0111
  239loPI   C2A 3816  15.545   5.553   9.042 -0.0428 -0.1815 -0.0639
  239loPI   C3A 3817  15.560   5.455   8.633 -0.1218  0.1186 -0.0584
  239loPI   C4A 3818  15.463   5.593   8.286  0.1261 -0.0094 -0.1419
  239loPI   C5A 3819  15.395   6.067   7.972  0.0297 -0.0089 -0.0892
  239loPI   C6A 3820  15.585   6.246   7.612  0.1670 -0.1049  0.1968
  239loPI   C1B 3821  15.798   5.977   9.290 -0.0791  0.1377 -0.0697
  239loPI   C2B 3822  15.982   5.851   8.903  0.2235  0.0165 -0.2085
  239loPI   C3B 3823  15.807   5.914   8.532  0.0133  0.1078 -0.2213
  239loPI   C4B 3824  15.857   6.111   8.166  0.1421  0.0420  0.0586
  240loPI    C1 3825   4.211  10.538   9.925  0.2555  0.0731 -0.0261
  240loPI    C2 3826   4.565  10.457  10.092  0.1788  0.0664  0.1352
  240loPI    C3 3827   4.303  10.162  10.025  0.2721  0.0445 -0.1470
  240loPI   PO4 3828   4.296  10.759   9.730 -0.1519  0.2803 -0.1294
  240loPI   GL1 3829   4.262  10.839   9.343 -0.1157  0.0942  0.2129
  240loPI   GL2 3830   3.853  10.734   9.456 -0.2354 -0.0878 -0.0612
  240loPI   C1A 3831   4.075  11.041   9.100  0.2192  0.1546 -0.1103
  240loPI   C2A 3832   3.850  11.106   8.677 -0.0049  0.0111  0.0632
  240loPI   C3A 3833   3.494  11.031   8.350  0.4048  0.0539  0.0523
  240loPI   C4A 3834   3.497  10.959   7.892 -0.0744  0.0883 -0.0183
  240loPI   C5A 3835   3.393  10.764   7.568  0.0096  0.1159  0.0747
  240loPI   C6A 3836   3.519  10.814   7.225 -0.0475 -0.5112 -0.1468
  240loPI   C1B 3837   3.788  10.654   9.027  0.0468 -0.0839 -0.2596
  240loPI   C2B 3838   3.927  10.429   8.652  0.0215 -0.0418  0.0016
  240loPI   C3B 3839   4.168  10.376   8.345 -0.3121  0.1121  0.2301
  240loPI   C4B 3840   4.215  10.433   7.799 -0.6064 -0.0524  0.2378
  241loPI    C1 3841  10.653   6.595  10.065  0.1166  0.1480  0.2453
  241loPI    C2 3842  10.835   6.409  10.368  0.1948  0.1857  0.2219
  241loPI    C3 3843  10.436   6.437  10.361  0.1874  0.0963  0.2699
  241loPI   PO4 3844  10.916   6.628   9.926  0.1387 -0.1243  0.0581
  241loPI   GL1 3845  11.015   6.722   9.520 -0.1599 -0.0305  0.0046
  241loPI   GL2 3846  10.958   7.011   9.630  0.0244  0.0611  0.0881
  241loPI   C1A 3847  10.750   6.509   9.121 -0.0961 -0.3177 -0.1286
  241loPI   C2A 3848  10.684   6.619   8.751  0.1109  0.0254 -0.0176
  241loPI   C3A 3849  10.911   6.791   8.472  0.0144 -0.1647 -0.0312
  241loPI   C4A 3850  11.160   6.871   8.085  0.2902  0.1870  0.0392
  241loPI   C5A 3851  11.314   7.082   7.748  0.1798 -0.0422  0.0809
  241loPI   C6A 3852  11.232   7.445   7.475  0.1255 -0.1002  0.1881
  241loPI   C1B 3853  11.017   6.970   9.144  0.1857 -0.0664  0.2765
  241loPI   C2B 3854  11.207   6.962   8.825  0.1052 -0.2425  0.4109
  241loPI   C3B 3855  11.634   6.947   8.396  0.2002  0.1600 -0.1720
  241loPI   C4B 3856  11.922   7.133   8.215 -0.2736 -0.2052  0.2434
  242loPI    C1 3857  12.755   7.866  10.209  0.0553 -0.2456  0.1981
  242loPI    C2 3858  12.973   8.198  10.254 -0.2254 -0.0392  0.0626
  242loPI    C3 3859  12.944   7.936  10.555  0.1149 -0.0146  0.1204
  242loPI   PO4 3860  12.868   7.803   9.998 -0.1478 -0.0260  0.2750
  242loPI   GL1 3861  12.840   7.722   9.618 -0.1871  0.0397 -0.2597
  242loPI   GL2 3862  13.034   7.579   9.470  0.1967  0.2099 -0.0723
  242loPI   C1A 3863  12.637   7.938   9.384  0.2163 -0.0387  0.5516
  242loPI   C2A 3864  12.511   8.135   8.983 -0.1519  0.2321  0.1531
  242loPI   C3A 3865  12.507   8.456   8.605 -0.2810  0.1166  0.0795
  242loPI   C4A 3866  12.581   8.351   8.163 -0.1220  0.1614 -0.2973
  242loPI   C5A 3867  12.884   8.371   7.836  0.0807  0.2561  0.0301
  242loPI   C6A 3868  13.092   8.151   7.527 -0.2464 -0.0079 -0.1070
  242loPI   C1B 3869  12.945   7.791   9.050 -0.1240 -0.4282  0.1331
  242loPI   C2B 3870  12.920   7.535   8.672 -0.1712 -0.1796  0.1117
  242loPI   C3B 3871  12.923   7.571   8.220  0.0050 -0.2182 -0.1717
  242loPI   C4B 3872  12.984   7.683   7.806  0.1766 -0.2079  0.0422
  243loPI    C1 3873  16.716   7.457  10.164 -0.0275 -0.1087 -0.1000
  243loPI    C2 3874  17.070   7.479  10.348  0.0203 -0.0689 -0.1964
  243loPI    C3 3875  16.768   7.711  10.468  0.0501 -0.0463 -0.1651
  243loPI   PO4 3876  16.754   7.420   9.944 -0.0938 -0.0347 -0.2046
  243loPI   GL1 3877  16.566   7.630   9.593  0.0296  0.1206 -0.0779
  243loPI   GL2 3878  16.466   7.887   9.560 -0.0733 -0.1280 -0.2031
  243loPI   C1A 3879  16.281   7.434   9.371 -0.2453  0.2050 -0.1174
  243loPI   C2A 3880  16.011   7.414   9.083  0.0951  0.0672 -0.0293
  243loPI   C3A 3881  16.022   7.223   8.729 -0.0831 -0.0485 -0.2415
  243loPI   C4A 3882  15.839   7.162   8.301  0.0962  0.1280 -0.1147
  243loPI   C5A 3883  15.878   7.010   7.939  0.1248  0.2285  0.0432
  243loPI   C6A 3884  15.866   6.899   7.537 -0.0126 -0.1079  0.1393
  243loPI   C1B 3885  16.441   8.013   9.164 -0.0277 -0.0896  0.0298
  243loPI   C2B 3886  16.404   8.145   8.747  0.0022 -0.1518 -0.0519
  243loPI   C3B 3887  16.116   8.039   8.404  0.1702 -0.3131  0.1701
  243loPI   C4B 3888  16.141   7.911   8.008  0.1030 -0.0129 -0.1903
  244loPI    C1 3889   0.024   4.735  10.456  0.2411 -0.1020  0.0554
  244loPI    C2 3890   0.258   4.475  10.651  0.2499 -0.2535 -0.1535
  244loPI    C3 3891  -0.118   4.537  10.772  0.3116 -0.2112  0.0192
  244loPI   PO4 3892   0.262   4.944  10.398  0.4046  0.2047  0.0271
  244loPI   GL1 3893   0.373   5.029  10.034 -0.0977 -0.2634 -0.5024
  244loPI   GL2 3894   0.239   5.166   9.866 -0.0611 -0.1439  0.0648
  244loPI   C1A 3895   0.665   5.188   9.597  0.0531 -0.0835 -0.2318
  244loPI   C2A 3896   0.755   5.182   9.176  0.1009 -0.0757 -0.1538
  244loPI   C3A 3897   0.712   5.295   8.782 -0.0074  0.0392 -0.3163
  244loPI   C4A 3898   0.321   5.094   8.576 -0.2918 -0.2250  0.2738
  244loPI   C5A 3899   0.225   4.867   8.268  0.1603 -0.1947  0.0372
  244loPI   C6A 3900   0.293   4.472   7.968 -0.2701  0.2580 -0.0620
  244loPI   C1B 3901   0.230   5.421   9.487  0.1191  0.1383 -0.0463
  244loPI   C2B 3902  -0.067   5.510   9.178  0.1222  0.0024 -0.1478
  244loPI   C3B 3903  -0.130   5.370   8.721  0.3269  0.3482  0.0834
  244loPI   C4B 3904  -0.166   5.226   8.306 -0.2126  0.0936 -0.0785
  245loPI    C1 3905   0.468  12.175  10.372  0.1580 -0.2463 -0.2091
  245loPI    C2 3906   0.446  11.900  10.662  0.1621 -0.1521 -0.1190
  245loPI    C3 3907   0.788  12.098  10.599  0.1100 -0.0450 -0.0697
  245loPI   PO4 3908   0.228  11.965  10.184 -0.0297 -0.2789 -0.1033
  245loPI   GL1 3909   0.380  11.852   9.813  0.0127  0.1562  0.1039
  245loPI   GL2 3910   0.160  12.165   9.726 -0.0461 -0.2709 -0.1778
  245loPI   C1A 3911   0.377  11.691   9.422 -0.1547 -0.2535 -0.0530
  245loPI   C2A 3912   0.246  11.620   9.000 -0.1144  0.0987 -0.2578
  245loPI   C3A 3913   0.127  11.441   8.678 -0.0619  0.1002  0.0106
  245loPI   C4A 3914   0.253  11.209   8.241 -0.0406 -0.1299 -0.1204
  245loPI   C5A 3915   0.355  11.039   7.893  0.0963  0.0971 -0.3723
  245loPI   C6A 3916   0.458  10.681   7.577  0.0621  0.0471 -0.1658
  245loPI   C1B 3917   0.203  12.362   9.353 -0.2830  0.0344  0.2490
  245loPI   C2B 3918   0.053  12.393   8.932 -0.2839  0.0820  0.3913
  245loPI   C3B 3919   0.164  12.258   8.476  0.1500  0.2181  0.3575
  245loPI   C4B 3920   0.353  12.230   8.037 -0.0752  0.2155  0.1429
  246loPI    C1 3921  13.735  15.720  10.269 -0.1390  0.1858 -0.0644
  246loPI    C2 3922  13.876  16.015  10.501 -0.2397  0.2059 -0.0281
  246loPI    C3 3923  13.911  15.634  10.618  0.0508  0.1899 -0.1579
  246loPI   PO4 3924  13.747  15.829  10.010 -0.1642  0.1423  0.0748
  246loPI   GL1 3925  13.729  15.774   9.611 -0.1644 -0.0196 -0.1931
  246loPI   GL2 3926  13.491  16.054   9.559  0.2372 -0.2262  0.1390
  246loPI   C1A 3927  13.969  16.134   9.437  0.1438  0.1625  0.0408
  246loPI   C2A 3928  14.017  16.138   9.036 -0.0166  0.5833 -0.1908
  246loPI   C3A 3929  14.063  16.355   8.695  0.0068  0.2811  0.0084
  246loPI   C4A 3930  14.263  16.367   8.356 -0.2218 -0.0048 -0.1488
  246loPI   C5A 3931  14.616  16.518   8.168  0.3814 -0.2548 -0.0432
  246loPI   C6A 3932  15.052  16.674   8.089  0.2629  0.0199 -0.0575
  246loPI   C1B 3933  13.390  16.008   9.137  0.0404 -0.0203  0.0651
  246loPI   C2B 3934  13.633  15.955   8.776  0.1652 -0.2286 -0.0757
  246loPI   C3B 3935  13.705  15.892   8.411  0.1415  0.1673 -0.2789
  246loPI   C4B 3936  13.456  15.626   8.220  0.0691  0.1952 -0.0868
  247loPI    C1 3937   7.711   5.158   9.899  0.1156  0.2000 -0.0795
  247loPI    C2 3938   7.688   5.416  10.204  0.0078  0.0076  0.0774
  247loPI    C3 3939   7.735   5.025  10.275  0.2240 -0.0123 -0.1598
  247loPI   PO4 3940   7.934   5.223   9.712  0.0342  0.2929  0.2641
  247loPI   GL1 3941   8.146   4.774   9.451  0.3199  0.0517  0.0591
  247loPI   GL2 3942   8.426   4.691   9.576  0.1218  0.0164  0.1531
  247loPI   C1A 3943   8.408   4.640   9.062  0.2411  0.0512  0.4207
  247loPI   C2A 3944   8.419   4.653   8.594 -0.3164  0.2467  0.2194
  247loPI   C3A 3945   8.512   4.795   8.177  0.0709 -0.2966  0.2175
  247loPI   C4A 3946   8.768   4.865   7.853 -0.0862  0.0772 -0.1735
  247loPI   C5A 3947   9.074   4.772   7.570  0.0113  0.0586 -0.1594
  247loPI   C6A 3948   9.417   4.905   7.345 -0.0075  0.1066  0.0105
  247loPI   C1B 3949   8.633   4.920   9.374 -0.0411 -0.3008 -0.0459
  247loPI   C2B 3950   9.043   4.919   9.100  0.2123  0.0240 -0.0196
  247loPI   C3B 3951   9.223   4.978   8.651  0.2302 -0.0987 -0.0586
  247loPI   C4B 3952   9.248   4.835   8.305  0.1334 -0.0501  0.0465
  248loPI    C1 3953  18.743  18.167  10.541  0.0390  0.0123  0.0860
  248loPI    C2 3954  18.859  17.806  10.414 -0.0682  0.0342 -0.0765
  248loPI    C3 3955  19.132  18.075  10.529  0.0173 -0.0637 -0.0491
  248loPI   PO4 3956  18.570  18.221  10.419  0.1830  0.1304 -0.0954
  248loPI   GL1 3957  18.357  18.122  10.034  0.0401  0.0870 -0.0358
  248loPI   GL2 3958  18.175  17.901   9.845  0.2004 -0.1680 -0.1575
  248loPI   C1A 3959  18.071  18.387   9.776  0.1493 -0.0619  0.1202
  248loPI   C2A 3960  18.034  18.500   9.396 -0.0319  0.1607 -0.1283
  248loPI   C3A 3961  18.177  18.472   8.956 -0.2225  0.1852  0.0170
  248loPI   C4A 3962  18.039  18.638   8.636 -0.4078  0.1791 -0.3059
  248loPI   C5A 3963  18.062  18.852   8.258  0.1123 -0.0917 -0.0530
  248loPI   C6A 3964  18.254  18.888   7.879 -0.0772  0.0255  0.0233
  248loPI   C1B 3965  18.193  18.076   9.379 -0.2263 -0.0957 -0.1179
  248loPI   C2B 3966  18.056  17.967   8.973  0.0677 -0.1850 -0.3354
  248loPI   C3B 3967  18.215  18.066   8.614  0.0976 -0.0154  0.3394
  248loPI   C4B 3968  18.478  18.056   8.242  0.1462  0.1339 -0.0616
  249loPI    C1 3969   1.226  12.688  10.437 -0.3133  0.1040  0.0293
  249loPI    C2 3970   1.447  12.370  10.337  0.0643  0.3975 -0.0930
  249loPI    C3 3971   1.212  12.357  10.661  0.0982  0.0071 -0.0800
  249loPI   PO4 3972   1.269  12.762  10.162 -0.0548  0.1222 -0.1373
  249loPI   GL1 3973   0.987  12.701   9.826  0.0742 -0.0196 -0.2333
  249loPI   GL2 3974   1.078  13.060   9.834 -0.3673 -0.4057  0.0120
  249loPI   C1A 3975   1.116  12.525   9.442  0.1954  0.0510  0.3192
  249loPI   C2A 3976   1.062  12.716   9.027 -0.0453 -0.1453 -0.1476
  249loPI   C3A 3977   0.835  12.919   8.674 -0.5645 -0.0830 -0.0399
  249loPI   C4A 3978   0.709  13.094   8.380  0.1347  0.0904 -0.1830
  249loPI   C5A 3979   0.433  13.437   8.173  0.0173  0.3917  0.0442
  249loPI   C6A 3980   0.195  13.794   8.097 -0.0064  0.2721 -0.2038
  249loPI   C1B 3981   0.961  13.052   9.401  0.1317 -0.0247 -0.2390
  249loPI   C2B 3982   0.691  13.115   9.066  0.1925  0.0285  0.1283
  249loPI   C3B 3983   0.541  13.423   8.813  0.0533  0.2159  0.2131
  249loPI   C4B 3984   0.458  13.682   8.636 -0.0826  0.0617 -0.6138
  250loPI    C1 3985   1.339   7.987  10.081 -0.2945 -0.0581  0.1267
  250loPI    C2 3986   1.685   7.789  10.119 -0.1513  0.2006  0.1966
  250loPI    C3 3987   1.338   7.602  10.189 -0.0274 -0.0617  0.1230
  250loPI   PO4 3988   1.332   8.033   9.813  0.0670  0.0070 -0.0614
  250loPI   GL1 3989   1.225   7.900   9.359  0.1599 -0.1815  0.2797
  250loPI   GL2 3990   1.453   8.079   9.316  0.1009 -0.0774  0.1669
  250loPI   C1A 3991   0.989   8.035   8.988  0.0701  0.2140  0.0914
  250loPI   C2A 3992   1.173   8.019   8.554 -0.1991  0.0325 -0.1541
  250loPI   C3A 3993   1.227   7.978   8.096 -0.0257 -0.0333 -0.0247
  250loPI   C4A 3994   1.385   7.899   7.567 -0.0061 -0.0078 -0.1526
  250loPI   C5A 3995   1.735   7.665   7.375  0.3947  0.1817 -0.1092
  250loPI   C6A 3996   2.204   7.487   7.324 -0.3166 -0.0909  0.1381
  250loPI   C1B 3997   1.680   8.138   9.000 -0.0862  0.0182  0.0809
  250loPI   C2B 3998   1.691   8.210   8.612  0.1327  0.0781  0.0045
  250loPI   C3B 3999   1.753   8.093   8.224 -0.3357  0.0744  0.0604
  250loPI   C4B 4000   1.841   8.070   7.821  0.0707 -0.0550 -0.1298
  251loPI    C1 4001  11.192   2.026   9.768 -0.0775 -0.1715 -0.1907
  251loPI    C2 4002  10.960   1.796   9.999 -0.0584  0.0665  0.0713
  251loPI    C3 4003  11.343   1.857  10.097 -0.0574  0.1913 -0.0082
  251loPI   PO4 4004  11.054   2.365   9.751  0.1321 -0.0557 -0.1856
  251loPI   GL1 4005  11.083   2.512   9.446  0.0971  0.2223 -0.0023
  251loPI   GL2 4006  10.832   2.601   9.456  0.0472 -0.3439  0.2741
  251loPI   C1A 4007  11.354   2.340   9.087 -0.0380 -0.1106  0.1146
  251loPI   C2A 4008  11.347   2.254   8.686 -0.3366  0.1044  0.2424
  251loPI   C3A 4009  11.476   2.019   8.370  0.2270  0.0509  0.0961
  251loPI   C4A 4010  11.619   2.053   7.977  0.0787  0.1733 -0.0056
  251loPI   C5A 4011  11.996   1.869   7.669  0.2302  0.0338 -0.2243
  251loPI   C6A 4012  12.335   1.519   7.734 -0.1743  0.3242 -0.2610
  251loPI   C1B 4013  10.544   2.650   9.176  0.1620 -0.4713 -0.1950
  251loPI   C2B 4014  10.440   2.449   8.806 -0.2467  0.1849 -0.1174
  251loPI   C3B 4015  10.467   2.395   8.362 -0.3878 -0.1068  0.0041
  251loPI   C4B 4016  10.485   2.062   8.003 -0.0559 -0.0582 -0.0263
  252loPI    C1 4017   9.980   3.459  10.119 -0.0442 -0.0663 -0.0539
  252loPI    C2 4018   9.714   3.685  10.313  0.0625  0.0803 -0.0771
  252loPI    C3 4019  10.094   3.674  10.436  0.0111 -0.2619  0.0607
  252loPI   PO4 4020   9.791   3.470   9.873 -0.0130  0.0174  0.1350
  252loPI   GL1 4021   9.815   3.683   9.492 -0.2300  0.1839  0.3653
  252loPI   GL2 4022  10.145   3.545   9.549  0.2910 -0.2180  0.0271
  252loPI   C1A 4023   9.710   3.752   9.133  0.0593 -0.0344  0.1807
  252loPI   C2A 4024   9.567   3.836   8.699  0.2129  0.0250 -0.4412
  252loPI   C3A 4025   9.444   3.538   8.366  0.0147  0.0225  0.0352
  252loPI   C4A 4026   9.351   3.232   8.079  0.3886 -0.0370  0.0015
  252loPI   C5A 4027   9.334   2.774   8.054  0.0174  0.1414  0.0784
  252loPI   C6A 4028   9.523   2.408   8.261  0.0620 -0.0302  0.1165
  252loPI   C1B 4029   9.820   3.223   9.297  0.2646 -0.3878 -0.0358
  252loPI   C2B 4030   9.632   3.134   8.977  0.2763  0.0328 -0.1845
  252loPI   C3B 4031   9.803   3.238   8.594  0.0095 -0.1536  0.0906
  252loPI   C4B 4032   9.779   3.106   8.207  0.4509 -0.1083 -0.2598
  253loPI    C1 4033   4.570  11.833   9.902 -0.0264  0.1618  0.0034
  253loPI    C2 4034   4.592  12.033  10.248  0.1710  0.1992 -0.0294
  253loPI    C3 4035   4.840  11.727  10.177 -0.1267 -0.0594  0.0188
  253loPI   PO4 4036   4.627  12.037   9.703  0.4986  0.3080 -0.0475
  253loPI   GL1 4037   4.498  12.032   9.366 -0.1207  0.0403 -0.1059
  253loPI   GL2 4038   4.350  12.217   9.246  0.2535 -0.0258 -0.1712
  253loPI   C1A 4039   4.639  11.824   9.057  0.1132 -0.0442 -0.2467
  253loPI   C2A 4040   4.937  11.588   8.736 -0.0675  0.1388  0.0750
  253loPI   C3A 4041   4.775  11.575   8.386 -0.5935  0.0231  0.3021
  253loPI   C4A 4042   4.808  11.516   7.948  0.3973 -0.2290  0.3364
  253loPI   C5A 4043   4.888  11.375   7.640 -0.1778  0.0554 -0.0107
  253loPI   C6A 4044   4.758  11.034   7.334 -0.0193  0.1364  0.0071
  253loPI   C1B 4045   4.071  12.190   8.942 -0.1231  0.1732 -0.0335
  253loPI   C2B 4046   3.932  12.116   8.491 -0.2250 -0.0786 -0.3916
  253loPI   C3B 4047   4.104  12.008   8.113 -0.1799 -0.0277  0.0817
  253loPI   C4B 4048   4.376  11.779   7.791 -0.0092 -0.2930 -0.0800
  254loPI    C1 4049   5.852  17.761  10.645  0.1338 -0.0242  0.4061
  254loPI    C2 4050   5.559  17.781  10.917  0.0414  0.2634  0.2889
  254loPI    C3 4051   5.872  18.029  10.941  0.0932  0.2074  0.2018
  254loPI   PO4 4052   5.674  17.775  10.428  0.0908  0.1686  0.0134
  254loPI   GL1 4053   5.749  18.018  10.043  0.0052  0.1432  0.1196
  254loPI   GL2 4054   5.367  17.968   9.977 -0.1010 -0.3416  0.3361
  254loPI   C1A 4055   5.802  18.251   9.764  0.2661  0.1630  0.0413
  254loPI   C2A 4056   5.690  18.538   9.343 -0.0609 -0.1651  0.1964
  254loPI   C3A 4057   5.808  18.876   9.016 -0.0851  0.0902 -0.0314
  254loPI   C4A 4058   5.602  19.096   8.647 -0.1443  0.2724 -0.2450
  254loPI   C5A 4059   5.632  18.923   8.220 -0.2857  0.1732  0.1392
  254loPI   C6A 4060   5.550  19.097   7.874  0.2903 -0.3416 -0.2343
  254loPI   C1B 4061   5.497  17.992   9.469  0.0291  0.1093  0.1642
  254loPI   C2B 4062   5.532  18.084   9.067 -0.4315  0.1246 -0.1610
  254loPI   C3B 4063   5.427  18.062   8.653  0.2311  0.0806  0.1053
  254loPI   C4B 4064   5.111  17.835   8.395  0.0683  0.2196 -0.0550
  255loPI    C1 4065   7.532   5.622   9.723  0.1808  0.0100  0.1104
  255loPI    C2 4066   7.510   6.013   9.642 -0.1487  0.0050  0.1637
  255loPI    C3 4067   7.627   5.890  10.004  0.0677  0.0501  0.1106
  255loPI   PO4 4068   7.286   5.480   9.678  0.1277  0.2950 -0.1411
  255loPI   GL1 4069   7.266   5.299   9.364 -0.0430 -0.0099  0.0617
  255loPI   GL2 4070   7.602   5.296   9.293 -0.1476  0.2449  0.1567
  255loPI   C1A 4071   7.159   5.007   8.962 -0.0393  0.0418 -0.0236
  255loPI   C2A 4072   7.135   4.861   8.564  0.4180  0.0771  0.0441
  255loPI   C3A 4073   7.434   4.788   8.328  0.0254 -0.0607 -0.2024
  255loPI   C4A 4074   7.839   4.918   8.367  0.1749  0.4434 -0.1504
  255loPI   C5A 4075   8.216   5.143   8.448 -0.3781 -0.2302 -0.1672
  255loPI   C6A 4076   8.464   5.596   8.541  0.0595 -0.0381  0.1514
  255loPI   C1B 4077   7.507   5.300   8.870  0.3381  0.0342  0.0309
  255loPI   C2B 4078   7.441   5.229   8.490  0.1055  0.0507 -0.0644
  255loPI   C3B 4079   7.586   5.213   8.061 -0.1673  0.0427  0.0501
  255loPI   C4B 4080   7.338   4.958   7.755  0.2686 -0.0280 -0.1120
  256loPI    C1 4081  16.136   2.670  10.009 -0.0264 -0.0406  0.2086
  256loPI    C2 4082  16.340   2.998  10.112 -0.1041  0.0349  0.1250
  256loPI    C3 4083  15.940   3.007  10.101 -0.0980  0.0257 -0.1695
  256loPI   PO4 4084  16.199   2.427  10.139  0.1480  0.2366 -0.1239
  256loPI   GL1 4085  16.469   2.210   9.873 -0.3835 -0.0789 -0.2637
  256loPI   GL2 4086  16.757   2.248   9.731  0.0101 -0.3129 -0.0853
  256loPI   C1A 4087  16.352   2.264   9.456 -0.0165  0.0849  0.1181
  256loPI   C2A 4088  15.923   2.493   9.261 -0.1054  0.3464 -0.1232
  256loPI   C3A 4089  15.923   2.955   9.008 -0.0921 -0.1360 -0.0953
  256loPI   C4A 4090  15.913   3.185   8.582 -0.2196 -0.1437  0.0921
  256loPI   C5A 4091  15.795   3.468   8.202 -0.0535 -0.0467 -0.2208
  256loPI   C6A 4092  15.611   3.722   7.899 -0.0077  0.0810 -0.2610
  256loPI   C1B 4093  16.852   2.310   9.313 -0.2831 -0.0768  0.0988
  256loPI   C2B 4094  16.771   2.416   8.835  0.0883  0.0860  0.2305
  256loPI   C3B 4095  17.016   2.364   8.478  0.1292 -0.1349  0.3668
  256loPI   C4B 4096  16.794   2.561   8.098 -0.2558  0.0864  0.4045
  257loPI    C1 4097  10.821  13.598  10.494  0.0923 -0.0149 -0.0852
  257loPI    C2 4098  10.567  13.380  10.712 -0.1284  0.0040 -0.3187
  257loPI    C3 4099  10.578  13.777  10.756  0.1510 -0.0332 -0.0182
  257loPI   PO4 4100  10.788  13.564  10.195  0.1182  0.2425  0.1140
  257loPI   GL1 4101  10.840  13.744   9.832 -0.1518 -0.1744 -0.0305
  257loPI   GL2 4102  10.464  13.602   9.794  0.2892  0.0153  0.4552
  257loPI   C1A 4103  10.929  13.790   9.331 -0.0918 -0.2206 -0.3335
  257loPI   C2A 4104  10.638  13.806   9.026 -0.0687 -0.1262 -0.0513
  257loPI   C3A 4105  10.744  13.801   8.629  0.0498 -0.0123 -0.1185
  257loPI   C4A 4106  10.681  13.789   8.221  0.0223 -0.1229 -0.2281
  257loPI   C5A 4107  10.304  13.705   7.807  0.3802 -0.1438 -0.5091
  257loPI   C6A 4108  10.055  13.603   7.371 -0.1546 -0.2941 -0.1398
  257loPI   C1B 4109  10.478  13.511   9.413  0.0726 -0.0814 -0.0918
  257loPI   C2B 4110  10.535  13.300   8.951 -0.1632  0.0417 -0.3951
  257loPI   C3B 4111  10.568  13.179   8.513 -0.3133  0.1640 -0.1483
  257loPI   C4B 4112  10.537  13.261   8.134  0.2602 -0.2735  0.1768
  258loPI    C1 4113  18.347  16.182  10.575  0.0675 -0.1658 -0.0659
  258loPI    C2 4114  18.422  16.038  10.941 -0.0615 -0.1249 -0.0229
  258loPI    C3 4115  18.362  16.430  10.888  0.0708 -0.1152 -0.1061
  258loPI   PO4 4116  18.119  16.084  10.504 -0.2063 -0.0798 -0.0766
  258loPI   GL1 4117  17.950  16.080  10.215 -0.0509 -0.2039  0.1676
  258loPI   GL2 4118  17.692  15.834  10.048 -0.0450  0.0458 -0.0431
  258loPI   C1A 4119  18.194  16.123   9.771 -0.0627  0.1229  0.1697
  258loPI   C2A 4120  18.450  15.845   9.561 -0.0257 -0.1802  0.4653
  258loPI   C3A 4121  18.576  15.674   9.165  0.3202 -0.0951 -0.2098
  258loPI   C4A 4122  18.655  15.634   8.691 -0.1002  0.3375 -0.2777
  258loPI   C5A 4123  18.592  15.583   8.219 -0.0883  0.1335 -0.0486
  258loPI   C6A 4124  18.798  15.649   7.909  0.0879  0.1809 -0.1681
  258loPI   C1B 4125  17.618  15.997   9.639  0.1199  0.0430 -0.1932
  258loPI   C2B 4126  17.512  15.735   9.418  0.0389  0.2867 -0.1644
  258loPI   C3B 4127  17.411  15.758   8.942 -0.0678  0.1969  0.0726
  258loPI   C4B 4128  17.161  15.767   8.563 -0.1957  0.0318 -0.0080
  259loPI    C1 4129   6.637  10.549  10.159  0.1136 -0.1246 -0.0865
  259loPI    C2 4130   6.672  10.318  10.483 -0.2309 -0.0722 -0.0076
  259loPI    C3 4131   6.449  10.196  10.175 -0.0591 -0.0368 -0.1471
  259loPI   PO4 4132   7.021  10.689   9.902 -0.1933  0.2062 -0.1003
  259loPI   GL1 4133   7.007  10.690   9.424 -0.1973 -0.1779 -0.0581
  259loPI   GL2 4134   6.761  10.875   9.381  0.2827 -0.2165  0.1247
  259loPI   C1A 4135   7.339  10.619   9.047 -0.1146  0.0931  0.1471
  259loPI   C2A 4136   7.376  10.580   8.588 -0.2722 -0.0413  0.1498
  259loPI   C3A 4137   7.458  10.505   8.107 -0.0953 -0.2071  0.2446
  259loPI   C4A 4138   7.183  10.544   7.618  0.1856 -0.4317 -0.2755
  259loPI   C5A 4139   6.979  10.456   7.175  0.1444 -0.1132 -0.2283
  259loPI   C6A 4140   6.963  10.443   6.743 -0.1314  0.1472 -0.1606
  259loPI   C1B 4141   6.850  10.752   8.933  0.0856  0.2414  0.1057
  259loPI   C2B 4142   6.927  10.748   8.467 -0.1844  0.1026  0.0959
  259loPI   C3B 4143   7.152  10.871   8.158 -0.2731  0.0841  0.2292
  259loPI   C4B 4144   7.582  10.968   7.873 -0.1922 -0.0253  0.1146
  260loPI    C1 4145   7.931  18.611   9.938 -0.0651  0.1479 -0.0015
  260loPI    C2 4146   7.533  18.582   9.970 -0.0498 -0.1724 -0.0668
  260loPI    C3 4147   7.768  18.457  10.269  0.0051 -0.0705 -0.0669
  260loPI   PO4 4148   8.035  18.453   9.811 -0.3002  0.1487 -0.1111
  260loPI   GL1 4149   7.706  18.349   9.518  0.0960  0.0071 -0.2948
  260loPI   GL2 4150   7.613  18.688   9.495 -0.1853 -0.1508  0.1264
  260loPI   C1A 4151   7.711  18.157   9.237 -0.0394 -0.0492  0.1486
  260loPI   C2A 4152   7.697  18.070   8.740 -0.3485 -0.0946  0.0795
  260loPI   C3A 4153   7.832  18.181   8.296 -0.0116 -0.0723 -0.0288
  260loPI   C4A 4154   8.091  18.231   8.059  0.2238  0.1019 -0.2697
  260loPI   C5A 4155   8.290  17.998   7.728 -0.1272  0.0416 -0.0252
  260loPI   C6A 4156   8.120  17.669   7.668  0.1589  0.0323  0.1851
  260loPI   C1B 4157   7.506  18.606   9.059 -0.0850  0.3052  0.0311
  260loPI   C2B 4158   7.515  18.907   8.763  0.6391  0.1937  0.2781
  260loPI   C3B 4159   7.807  18.955   8.477 -0.0538 -0.0635  0.2430
  260loPI   C4B 4160   7.895  19.181   8.069 -0.2102 -0.2271  0.1201
  261loPI    C1 4161   5.615  16.515  10.038 -0.1034 -0.0763  0.0088
  261loPI    C2 4162   6.010  16.557  10.079 -0.0966  0.1193 -0.2317
  261loPI    C3 4163   5.768  16.638  10.387  0.0733 -0.4430  0.0654
  261loPI   PO4 4164   5.578  16.606   9.812  0.0357 -0.3168  0.2076
  261loPI   GL1 4165   5.517  16.927   9.493  0.3042 -0.3946  0.1070
  261loPI   GL2 4166   5.413  17.087   9.689 -0.1693  0.1367 -0.0960
  261loPI   C1A 4167   5.526  17.008   9.129 -0.1089  0.4763  0.3055
  261loPI   C2A 4168   5.411  17.225   8.749  0.5561 -0.0184 -0.3231
  261loPI   C3A 4169   5.149  17.398   8.612  0.0797 -0.1336  0.1033
  261loPI   C4A 4170   4.762  17.727   8.690 -0.0934  0.1735 -0.2115
  261loPI   C5A 4171   4.602  17.937   8.535 -0.3404  0.0290 -0.2135
  261loPI   C6A 4172   4.700  18.181   8.203 -0.0148 -0.0674  0.4511
  261loPI   C1B 4173   5.293  17.392   9.283 -0.1322 -0.3302  0.0505
  261loPI   C2B 4174   5.163  17.723   8.980 -0.3974  0.1098 -0.0131
  261loPI   C3B 4175   5.003  18.041   8.963  0.2788 -0.3564 -0.0538
  261loPI   C4B 4176   4.947  18.377   8.794 -0.3952 -0.2008 -0.3257
  262loPI    C1 4177   5.144  12.081   9.544  0.2019 -0.0822  0.1301
  262loPI    C2 4178   5.330  12.327   9.799 -0.0186  0.0213  0.1928
  262loPI    C3 4179   5.157  11.992   9.934  0.3027 -0.1847  0.1041
  262loPI   PO4 4180   4.989  12.239   9.374  0.2554 -0.2765 -0.1096
  262loPI   GL1 4181   4.970  12.348   8.930  0.0057  0.0343  0.2072
  262loPI   GL2 4182   4.871  12.078   8.743  0.2372  0.0528  0.2160
  262loPI   C1A 4183   4.909  12.717   8.840 -0.0855  0.1241 -0.3001
  262loPI   C2A 4184   5.245  12.996   8.670  0.2273 -0.0325 -0.3096
  262loPI   C3A 4185   5.246  13.046   8.204  0.0415  0.0296  0.0401
  262loPI   C4A 4186   5.332  13.139   7.776  0.3505  0.0923  0.0130
  262loPI   C5A 4187   5.565  13.505   7.587 -0.1744 -0.0750  0.1045
  262loPI   C6A 4188   5.472  13.917   7.489 -0.1548  0.1156  0.0492
  262loPI   C1B 4189   4.926  12.367   8.385  0.1172  0.2636  0.1639
  262loPI   C2B 4190   4.879  12.809   8.335 -0.0427  0.2075 -0.1752
  262loPI   C3B 4191   4.421  12.942   8.120 -0.2389 -0.0555 -0.0575
  262loPI   C4B 4192   4.071  12.923   7.899  0.0536 -0.1886  0.2383
  263loPI    C1 4193  15.745  13.088  10.742 -0.0029  0.0147  0.2133
  263loPI    C2 4194  16.124  12.998  10.655 -0.0907 -0.0945 -0.0676
  263loPI    C3 4195  16.043  13.280  10.926  0.1900 -0.0641 -0.0118
  263loPI   PO4 4196  15.624  13.124  10.445 -0.0966  0.4206 -0.0089
  263loPI   GL1 4197  15.154  13.035  10.288  0.2195 -0.1374 -0.1325
  263loPI   GL2 4198  14.926  13.260  10.213 -0.3113 -0.1337 -0.0962
  263loPI   C1A 4199  15.181  13.063   9.848 -0.0357 -0.0527  0.1215
  263loPI   C2A 4200  15.306  13.184   9.432  0.0170 -0.0706 -0.0449
  263loPI   C3A 4201  15.331  13.510   9.120  0.3734 -0.2324 -0.4696
  263loPI   C4A 4202  15.455  13.713   8.755  0.4229 -0.2961  0.0113
  263loPI   C5A 4203  15.232  13.701   8.340  0.1551 -0.4255 -0.0190
  263loPI   C6A 4204  14.770  13.674   8.268  0.0928 -0.4329  0.2505
  263loPI   C1B 4205  14.826  13.415   9.849  0.1488  0.1855  0.2816
  263loPI   C2B 4206  14.854  13.360   9.400 -0.2232 -0.1189 -0.0106
  263loPI   C3B 4207  14.835  13.549   9.040 -0.1120  0.3813 -0.0938
  263loPI   C4B 4208  14.966  13.722   8.752  0.1308 -0.0466 -0.2322
  264loPI    C1 4209   5.343  10.161   9.908 -0.2886  0.0550 -0.2595
  264loPI    C2 4210   5.652  10.328   9.717  0.0148 -0.1752  0.0181
  264loPI    C3 4211   5.634  10.340  10.116 -0.4112 -0.0421 -0.0008
  264loPI   PO4 4212   5.145  10.212   9.762  0.0514 -0.1855  0.0456
  264loPI   GL1 4213   5.129  10.381   9.305 -0.3199 -0.1813 -0.1049
  264loPI   GL2 4214   5.210  10.048   9.222 -0.0375  0.0259  0.2048
  264loPI   C1A 4215   5.071  10.596   8.956 -0.0970 -0.0808  0.1706
  264loPI   C2A 4216   4.753  10.655   8.496  0.2112 -0.0546  0.0315
  264loPI   C3A 4217   4.558  10.652   8.146  0.0054 -0.1699  0.1471
  264loPI   C4A 4218   4.773  10.692   7.695  0.0317 -0.0432  0.0073
  264loPI   C5A 4219   5.140  10.888   7.651  0.2279  0.1818 -0.0610
  264loPI   C6A 4220   5.514  10.800   7.251  0.0338 -0.0711 -0.2457
  264loPI   C1B 4221   5.422   9.880   8.819 -0.1286 -0.2684 -0.1069
  264loPI   C2B 4222   5.597   9.907   8.396 -0.0283  0.3481  0.1124
  264loPI   C3B 4223   5.632  10.219   8.079 -0.1444 -0.2379  0.0694
  264loPI   C4B 4224   5.634  10.538   7.691  0.0160  0.0504 -0.0249
  265loPI    C1 4225  12.332   9.427  10.854  0.0789  0.1518  0.0013
  265loPI    C2 4226  12.419   9.804  10.754  0.2692  0.0605 -0.1843
  265loPI    C3 4227  12.666   9.598  10.992  0.2768 -0.0164 -0.2582
  265loPI   PO4 4228  12.237   9.318  10.541  0.1369  0.1822  0.1144
  265loPI   GL1 4229  12.540   9.198  10.157  0.0451  0.0101 -0.2271
  265loPI   GL2 4230  12.743   9.406   9.907  0.0621 -0.0001 -0.3477
  265loPI   C1A 4231  12.628   8.882   9.838 -0.0190 -0.1534  0.0062
  265loPI   C2A 4232  12.761   8.491   9.640  0.0032  0.0953 -0.0266
  265loPI   C3A 4233  12.842   8.454   9.261  0.1261  0.3394  0.1543
  265loPI   C4A 4234  13.004   8.274   8.816  0.3330 -0.0231 -0.0048
  265loPI   C5A 4235  12.803   7.997   8.451 -0.1144  0.1135 -0.2058
  265loPI   C6A 4236  12.553   7.846   8.032  0.1038 -0.0793 -0.0814
  265loPI   C1B 4237  12.683   9.225   9.471  0.0172  0.1099 -0.1761
  265loPI   C2B 4238  12.519   8.902   9.323 -0.0542 -0.0358 -0.0847
  265loPI   C3B 4239  12.422   8.879   8.822 -0.1631  0.1772 -0.0375
  265loPI   C4B 4240  12.682   8.973   8.458  0.0297  0.2380  0.1330
  266loPI    C1 4241   9.403  12.201  10.558  0.1324  0.0076  0.1658
  266loPI    C2 4242   9.037  12.270  10.413  0.0732 -0.4511  0.0810
  266loPI    C3 4243   9.117  12.344  10.798 -0.0777 -0.2561  0.0769
  266loPI   PO4 4244   9.492  11.927  10.523 -0.1360  0.0943  0.0086
  266loPI   GL1 4245   9.635  11.858  10.054  0.2584  0.4701 -0.0715
  266loPI   GL2 4246   9.545  12.201  10.026 -0.2765 -0.3404 -0.3248
  266loPI   C1A 4247   9.612  11.901   9.577 -0.3238 -0.2091  0.1343
  266loPI   C2A 4248   9.440  12.063   9.107  0.0733  0.4026 -0.1642
  266loPI   C3A 4249   9.549  12.275   8.728 -0.2774 -0.0721 -0.4080
  266loPI   C4A 4250   9.369  12.392   8.325 -0.1087  0.0737  0.2643
  266loPI   C5A 4251   9.204  12.392   7.951 -0.2407 -0.2134  0.0261
  266loPI   C6A 4252   9.483  12.638   7.648 -0.0526  0.0937 -0.3068
  266loPI   C1B 4253   9.577  12.421   9.607  0.1584  0.1656  0.1696
  266loPI   C2B 4254   9.449  12.522   9.206  0.1117 -0.1785  0.1770
  266loPI   C3B 4255   9.232  12.711   8.978  0.2104  0.0273  0.0320
  266loPI   C4B 4256   9.338  12.784   8.595  0.3330  0.0206  0.1847
  267loPI    C1 4257   3.182   5.912   9.854  0.0619 -0.2706 -0.1866
  267loPI    C2 4258   2.914   5.787  10.125  0.0915 -0.3115 -0.1761
  267loPI    C3 4259   3.279   5.902  10.242 -0.0746  0.1982 -0.1348
  267loPI   PO4 4260   3.129   5.756   9.633  0.0679  0.1159  0.1159
  267loPI   GL1 4261   2.869   5.819   9.257 -0.2300 -0.0049  0.1058
  267loPI   GL2 4262   2.756   5.509   9.254 -0.0447  0.3068 -0.1340
  267loPI   C1A 4263   2.919   5.986   8.944 -0.1141 -0.1359  0.0359
  267loPI   C2A 4264   2.935   6.087   8.461 -0.0340  0.0850  0.3428
  267loPI   C3A 4265   2.969   6.032   8.082 -0.2342  0.4098  0.1391
  267loPI   C4A 4266   3.124   5.919   7.597 -0.1947 -0.3453 -0.3583
  267loPI   C5A 4267   3.475   5.662   7.430 -0.1299 -0.0283 -0.1161
  267loPI   C6A 4268   3.842   5.561   7.626  0.1721 -0.2276  0.0752
  267loPI   C1B 4269   2.509   5.692   8.834 -0.0833  0.0084  0.0407
  267loPI   C2B 4270   2.538   5.736   8.388 -0.2276 -0.1265 -0.0808
  267loPI   C3B 4271   2.710   5.631   7.972  0.0251 -0.0368 -0.2288
  267loPI   C4B 4272   2.704   5.735   7.670 -0.4191 -0.0256  0.2785
  268loPI    C1 4273   0.164  14.019  10.390 -0.1513  0.0399 -0.0212
  268loPI    C2 4274   0.359  13.957  10.734 -0.0178  0.1946 -0.0684
  268loPI    C3 4275   0.417  13.711  10.424 -0.1531  0.0434  0.0249
  268loPI   PO4 4276   0.222  14.387  10.400 -0.4301  0.1604  0.0012
  268loPI   GL1 4277   0.043  14.597  10.133  0.0852 -0.5306 -0.2113
  268loPI   GL2 4278  -0.254  14.812   9.981 -0.2654  0.0506 -0.0154
  268loPI   C1A 4279   0.260  14.643   9.727  0.0560  0.3563  0.1230
  268loPI   C2A 4280   0.246  14.677   9.307  0.2288  0.0796  0.1755
  268loPI   C3A 4281   0.219  14.866   8.978  0.4290 -0.0797 -0.0982
  268loPI   C4A 4282   0.204  14.835   8.546  0.0622  0.1944  0.2228
  268loPI   C5A 4283   0.068  14.501   8.167 -0.1692 -0.1231  0.2968
  268loPI   C6A 4284  -0.213  14.295   8.040 -0.0402 -0.1390 -0.1226
  268loPI   C1B 4285  -0.556  14.898   9.675 -0.1129 -0.1755 -0.1968
  268loPI   C2B 4286  -0.768  14.864   9.361  0.0462  0.2137  0.0172
  268loPI   C3B 4287  -0.777  14.554   8.925  0.1378 -0.1914 -0.0081
  268loPI   C4B 4288  -0.938  14.451   8.645  0.0528 -0.0424  0.3774
  269loPI    C1 4289  18.058  16.933  10.590  0.0362  0.0463  0.0866
  269loPI    C2 4290  18.438  16.809  10.613  0.0407  0.1045  0.3613
  269loPI    C3 4291  18.251  16.944  10.940 -0.3059 -0.1825  0.2893
  269loPI   PO4 4292  18.005  17.014  10.253 -0.1765 -0.1158  0.0339
  269loPI   GL1 4293  17.729  17.084   9.990  0.2603 -0.0616 -0.0313
  269loPI   GL2 4294  17.434  16.939  10.094  0.1714 -0.0209 -0.1189
  269loPI   C1A 4295  17.517  17.283   9.683 -0.3075  0.4302  0.2269
  269loPI   C2A 4296  17.441  17.249   9.235  0.2412  0.0406 -0.2069
  269loPI   C3A 4297  17.135  17.074   8.991  0.0043 -0.1152  0.1891
  269loPI   C4A 4298  16.868  16.807   8.767  0.3333  0.1019 -0.2657
  269loPI   C5A 4299  16.688  16.728   8.343  0.1734 -0.2486 -0.0053
  269loPI   C6A 4300  16.443  16.688   7.916  0.0557 -0.1106 -0.0372
  269loPI   C1B 4301  17.237  16.840   9.722  0.0971 -0.0473 -0.0302
  269loPI   C2B 4302  17.405  16.783   9.314  0.0934 -0.0446  0.1302
  269loPI   C3B 4303  17.509  16.716   8.864  0.0297 -0.1918 -0.3329
  269loPI   C4B 4304  17.197  16.744   8.446 -0.3198  0.2282  0.0664
  270loPI    C1 4305   0.749  16.425  10.168 -0.1088  0.0142 -0.0916
  270loPI    C2 4306   0.436  16.282  10.372  0.1207 -0.3512  0.0151
  270loPI    C3 4307   0.524  16.672  10.387 -0.1584 -0.2925  0.2130
  270loPI   PO4 4308   0.918  16.188  10.205  0.1079 -0.1994  0.3188
  270loPI   GL1 4309   1.011  15.649  10.163 -0.1155 -0.2120 -0.2798
  270loPI   GL2 4310   1.171  15.406  10.100 -0.0075 -0.3282 -0.0316
  270loPI   C1A 4311   1.221  15.819   9.784  0.0094  0.1813  0.1687
  270loPI   C2A 4312   1.061  16.091   9.423 -0.3003 -0.4230 -0.0106
  270loPI   C3A 4313   1.207  16.361   9.199  0.0122 -0.2259 -0.1905
  270loPI   C4A 4314   1.287  16.336   8.789 -0.2640 -0.0694 -0.1136
  270loPI   C5A 4315   1.351  16.381   8.410  0.1801  0.1409 -0.0707
  270loPI   C6A 4316   1.067  16.326   8.040  0.1404 -0.1544 -0.0177
  270loPI   C1B 4317   1.108  15.238   9.739 -0.4171  0.0861 -0.1161
  270loPI   C2B 4318   1.151  15.058   9.329  0.2948  0.1294  0.5319
  270loPI   C3B 4319   1.131  14.815   8.936 -0.1368 -0.1925 -0.0379
  270loPI   C4B 4320   1.381  14.958   8.546  0.0202  0.0639  0.1461
  271loPI    C1 4321   2.953  10.229   9.805 -0.0257  0.0839  0.0925
  271loPI    C2 4322   2.594  10.083   9.904 -0.0852  0.2729  0.1617
  271loPI    C3 4323   2.865  10.157  10.189 -0.0065  0.1723  0.1139
  271loPI   PO4 4324   3.153  10.002   9.576 -0.0542  0.2176  0.0449
  271loPI   GL1 4325   3.106   9.810   9.131 -0.1868 -0.0846 -0.3625
  271loPI   GL2 4326   3.239   9.539   9.159 -0.0235 -0.3089 -0.2104
  271loPI   C1A 4327   3.595   9.751   8.905 -0.3905 -0.1185 -0.1214
  271loPI   C2A 4328   3.626   9.936   8.562 -0.2308 -0.2160  0.2343
  271loPI   C3A 4329   3.542   9.953   8.123  0.1253 -0.0684  0.4306
  271loPI   C4A 4330   3.274   9.934   7.725  0.1875 -0.0942  0.0528
  271loPI   C5A 4331   3.109  10.324   7.493 -0.8033 -0.2040 -0.0088
  271loPI   C6A 4332   3.139  10.529   7.203  0.0873  0.1104  0.1938
  271loPI   C1B 4333   3.360   9.270   8.918 -0.0369 -0.1385 -0.0491
  271loPI   C2B 4334   3.705   8.932   8.656 -0.0746 -0.0754 -0.0466
  271loPI   C3B 4335   4.149   8.978   8.860  0.0820  0.0633 -0.0162
  271loPI   C4B 4336   4.572   8.676   8.875 -0.0451 -0.3536 -0.2162
  272loPI    C1 4337   4.724  14.032  10.360  0.1674  0.1076  0.0663
  272loPI    C2 4338   4.717  14.367  10.580  0.0271  0.1767 -0.0419
  272loPI    C3 4339   4.877  14.032  10.730  0.0556  0.2591  0.1135
  272loPI   PO4 4340   4.625  14.179  10.113 -0.1948  0.1085 -0.1050
  272loPI   GL1 4341   4.692  14.118   9.688 -0.3382 -0.0098 -0.1872
  272loPI   GL2 4342   4.301  14.039   9.762 -0.3054  0.0276  0.3067
  272loPI   C1A 4343   4.707  14.264   9.310  0.0104  0.2293  0.1249
  272loPI   C2A 4344   4.800  14.317   8.859 -0.0802 -0.0809  0.0354
  272loPI   C3A 4345   4.813  14.470   8.340  0.1877 -0.1784 -0.2089
  272loPI   C4A 4346   4.786  14.459   7.808  0.0482  0.1407 -0.1273
  272loPI   C5A 4347   4.363  14.617   7.710 -0.0341  0.0852  0.0685
  272loPI   C6A 4348   4.055  14.670   7.412 -0.0127  0.0681 -0.0040
  272loPI   C1B 4349   4.140  14.191   9.305  0.1252 -0.3526  0.0539
  272loPI   C2B 4350   4.305  14.256   8.897  0.0922 -0.1627  0.3597
  272loPI   C3B 4351   4.288  14.376   8.574  0.1975 -0.0565  0.3111
  272loPI   C4B 4352   4.478  14.791   8.505  0.0939 -0.2704  0.0904
  273loPI    C1 4353  16.905  18.650  10.309  0.2983  0.1015 -0.1540
  273loPI    C2 4354  16.848  18.285  10.462  0.0667  0.1882 -0.0277
  273loPI    C3 4355  17.210  18.454  10.478  0.1882 -0.0557 -0.1350
  273loPI   PO4 4356  16.582  18.735  10.228 -0.1202 -0.1591 -0.1403
  273loPI   GL1 4357  16.589  18.805   9.743  0.3743 -0.0558 -0.0244
  273loPI   GL2 4358  16.861  18.740   9.726  0.0717 -0.1320  0.2455
  273loPI   C1A 4359  16.225  18.808   9.457 -0.0928 -0.3258 -0.0175
  273loPI   C2A 4360  15.797  18.895   9.293  0.1340 -0.1904  0.1109
  273loPI   C3A 4361  15.578  18.890   8.962 -0.2213 -0.0687  0.0109
  273loPI   C4A 4362  15.625  19.077   8.589  0.1856 -0.0725  0.0031
  273loPI   C5A 4363  15.890  19.304   8.304  0.2354 -0.1669  0.0867
  273loPI   C6A 4364  16.298  19.378   8.123  0.0801 -0.1538 -0.0440
  273loPI   C1B 4365  16.879  18.794   9.300 -0.0734  0.0468 -0.0768
  273loPI   C2B 4366  16.950  18.638   8.831  0.0002  0.1454 -0.0380
  273loPI   C3B 4367  16.778  18.421   8.486 -0.0209 -0.0342 -0.0120
  273loPI   C4B 4368  16.495  18.116   8.383  0.0971  0.1259 -0.0952
  274loPI    C1 4369  17.239  12.064  10.387 -0.0502  0.1173  0.0630
  274loPI    C2 4370  17.561  12.009  10.618  0.0536  0.4440  0.0007
  274loPI    C3 4371  17.239  12.196  10.765 -0.0768  0.1964  0.0355
  274loPI   PO4 4372  17.402  12.036  10.148 -0.1809  0.0126  0.1432
  274loPI   GL1 4373  17.275  12.076   9.787  0.2150 -0.1055  0.0416
  274loPI   GL2 4374  17.203  11.818   9.591 -0.2077 -0.1121  0.2120
  274loPI   C1A 4375  17.484  12.434   9.403 -0.1640  0.1017  0.0194
  274loPI   C2A 4376  17.433  12.471   8.990 -0.1186 -0.0233  0.1231
  274loPI   C3A 4377  17.164  12.664   8.635 -0.1476 -0.0154  0.1495
  274loPI   C4A 4378  16.861  12.754   8.325  0.2173 -0.2067 -0.0946
  274loPI   C5A 4379  16.597  12.971   8.104  0.0490 -0.1034  0.2139
  274loPI   C6A 4380  16.170  13.144   8.156 -0.1786 -0.0304 -0.1350
  274loPI   C1B 4381  17.287  12.048   9.184 -0.1002 -0.2422 -0.1930
  274loPI   C2B 4382  17.553  12.011   8.856 -0.1737 -0.0293 -0.2425
  274loPI   C3B 4383  17.482  12.158   8.469  0.5075 -0.1729  0.5030
  274loPI   C4B 4384  17.492  12.623   8.276  0.1201 -0.0339 -0.1458
  275loPI    C1 4385   1.579   6.630  10.232 -0.0067 -0.2196  0.2261
  275loPI    C2 4386   1.759   6.974  10.134 -0.1721 -0.2368 -0.1553
  275loPI    C3 4387   1.417   6.979  10.341 -0.2310 -0.1651 -0.2533
  275loPI   PO4 4388   1.657   6.463   9.982  0.2836  0.1665  0.2066
  275loPI   GL1 4389   1.586   6.381   9.606  0.0631 -0.0466 -0.1788
  275loPI   GL2 4390   1.209   6.398   9.718 -0.3100 -0.0174  0.3963
  275loPI   C1A 4391   1.537   6.439   9.183  0.1398  0.0552  0.0181
  275loPI   C2A 4392   1.554   6.216   8.814 -0.1022 -0.3596 -0.2619
  275loPI   C3A 4393   1.328   6.160   8.502 -0.3708 -0.2515 -0.1836
  275loPI   C4A 4394   1.034   6.274   8.123 -0.4014 -0.0820  0.3460
  275loPI   C5A 4395   0.736   6.295   7.845  0.3055 -0.0461  0.0683
  275loPI   C6A 4396   0.442   6.225   7.527  0.1666 -0.0227 -0.0388
  275loPI   C1B 4397   0.986   6.527   9.300 -0.2295  0.1457 -0.0893
  275loPI   C2B 4398   1.137   6.573   8.929 -0.0210 -0.2237  0.2646
  275loPI   C3B 4399   1.082   6.701   8.535 -0.0127 -0.0789 -0.1538
  275loPI   C4B 4400   0.832   6.806   8.148 -0.3452  0.0470 -0.3487
  276loPI    C1 4401   2.777  17.670  10.744 -0.1207  0.0019 -0.0181
  276loPI    C2 4402   3.133  17.767  10.589 -0.1096  0.1923  0.1237
  276loPI    C3 4403   3.109  17.620  10.960 -0.1491 -0.1336 -0.0049
  276loPI   PO4 4404   2.676  17.485  10.439 -0.1125 -0.2462 -0.2434
  276loPI   GL1 4405   2.712  17.310   9.988 -0.0085  0.0356 -0.0671
  276loPI   GL2 4406   2.629  17.456   9.817  0.4110  0.1875  0.3582
  276loPI   C1A 4407   2.969  17.152   9.594  0.1243 -0.2170  0.0244
  276loPI   C2A 4408   3.371  17.100   9.418  0.0253  0.0146 -0.1461
  276loPI   C3A 4409   3.709  17.135   9.124 -0.3424 -0.0210  0.0711
  276loPI   C4A 4410   3.790  17.299   8.655  0.2087 -0.1326  0.0430
  276loPI   C5A 4411   3.704  17.487   8.202 -0.2135  0.1985  0.2047
  276loPI   C6A 4412   3.418  17.204   8.020 -0.0864 -0.0258 -0.2484
  276loPI   C1B 4413   2.478  17.357   9.359  0.0144 -0.0908  0.1453
  276loPI   C2B 4414   2.177  17.469   8.982  0.1662  0.0678  0.1258
  276loPI   C3B 4415   2.147  17.251   8.581 -0.1167  0.2407  0.1542
  276loPI   C4B 4416   2.353  17.264   8.197 -0.0558  0.0898  0.0225
  277loPI    C1 4417  15.560   2.042  10.563 -0.0193  0.1742 -0.1667
  277loPI    C2 4418  15.162   2.070  10.598 -0.0394 -0.1435 -0.1028
  277loPI    C3 4419  15.400   2.305  10.818 -0.1900 -0.0158 -0.0743
  277loPI   PO4 4420  15.557   1.782  10.359 -0.2270 -0.1242  0.0889
  277loPI   GL1 4421  15.477   1.405  10.100  0.0535 -0.1743  0.0587
  277loPI   GL2 4422  15.195   1.244   9.913 -0.0848 -0.0993 -0.4195
  277loPI   C1A 4423  15.645   1.411   9.651  0.1055  0.0224 -0.3309
  277loPI   C2A 4424  15.681   1.551   9.220 -0.0177  0.0687  0.2758
  277loPI   C3A 4425  15.621   1.610   8.845 -0.0965 -0.1669  0.0458
  277loPI   C4A 4426  15.701   1.392   8.405  0.0896 -0.2290 -0.1237
  277loPI   C5A 4427  15.795   1.128   8.207 -0.0854 -0.1469 -0.2816
  277loPI   C6A 4428  15.921   0.934   7.806  0.2725 -0.0645 -0.2406
  277loPI   C1B 4429  14.848   1.370   9.718  0.0436  0.2814  0.2900
  277loPI   C2B 4430  14.761   1.414   9.394  0.2358 -0.2468 -0.1960
  277loPI   C3B 4431  14.729   1.697   9.206 -0.0409  0.1899  0.1421
  277loPI   C4B 4432  14.457   1.951   9.274 -0.0593 -0.2921 -0.0247
  278loPI    C1 4433   5.122   7.511   9.760 -0.0271 -0.1603  0.1684
  278loPI    C2 4434   5.186   7.356  10.123  0.1218 -0.2645  0.0985
  278loPI    C3 4435   5.494   7.421   9.876  0.0709  0.2044  0.1491
  278loPI   PO4 4436   4.953   7.271   9.625 -0.2880  0.0190  0.1283
  278loPI   GL1 4437   4.967   7.106   9.248 -0.2266  0.2134  0.1616
  278loPI   GL2 4438   4.757   7.326   9.163 -0.0910  0.5457  0.0501
  278loPI   C1A 4439   5.006   7.120   8.776 -0.1433 -0.0432  0.1255
  278loPI   C2A 4440   4.979   7.203   8.331 -0.0688 -0.0607  0.0540
  278loPI   C3A 4441   4.733   7.443   7.965 -0.1228  0.1818  0.0360
  278loPI   C4A 4442   4.811   7.855   7.819  0.1107  0.1292 -0.2000
  278loPI   C5A 4443   4.643   8.272   7.834 -0.0138  0.0358 -0.3169
  278loPI   C6A 4444   4.879   8.738   7.856  0.1706  0.3006 -0.3021
  278loPI   C1B 4445   4.650   7.719   8.967  0.1560  0.0855  0.0880
  278loPI   C2B 4446   4.416   8.062   8.691 -0.4759  0.2213 -0.0912
  278loPI   C3B 4447   4.061   8.135   8.676 -0.1841 -0.3816 -0.0037
  278loPI   C4B 4448   3.812   8.068   8.976  0.0237  0.3023 -0.0694
  279loPI    C1 4449   8.171  16.702  10.200  0.0298  0.1127 -0.0256
  279loPI    C2 4450   8.197  16.448   9.891  0.0102  0.0881 -0.0070
  279loPI    C3 4451   8.123  16.309  10.259 -0.0302  0.1236 -0.0015
  279loPI   PO4 4452   8.078  16.952   9.954  0.0623 -0.3364  0.1494
  279loPI   GL1 4453   8.070  17.366   9.706 -0.0481  0.0449 -0.1997
  279loPI   GL2 4454   8.047  17.149   9.417  0.0813  0.4054  0.2896
  279loPI   C1A 4455   7.885  17.583   9.355 -0.0839  0.1558 -0.1573
  279loPI   C2A 4456   7.893  17.662   8.982 -0.0881  0.0231  0.3169
  279loPI   C3A 4457   7.984  17.754   8.486  0.1045  0.1407 -0.2546
  279loPI   C4A 4458   7.765  17.798   8.018  0.1769 -0.3457  0.0450
  279loPI   C5A 4459   7.701  18.059   7.687  0.1342 -0.0388  0.0130
  279loPI   C6A 4460   7.905  18.015   7.337 -0.0443  0.1726  0.1656
  279loPI   C1B 4461   8.210  17.301   9.080 -0.1855 -0.0428  0.3049
  279loPI   C2B 4462   8.278  17.438   8.686 -0.4113  0.0900  0.0793
  279loPI   C3B 4463   8.296  17.345   8.358 -0.1073 -0.4266 -0.0718
  279loPI   C4B 4464   8.315  17.580   8.107  0.1073  0.2158  0.0403
  280loPI    C1 4465  15.104  14.337  10.836 -0.0641  0.0918 -0.0212
  280loPI    C2 4466  14.715  14.244  10.834 -0.0312 -0.0531  0.1279
  280loPI    C3 4467  14.847  14.546  11.060 -0.0582  0.0027  0.0694
  280loPI   PO4 4468  15.165  14.282  10.567 -0.1217 -0.0208  0.1726
  280loPI   GL1 4469  15.480  14.261  10.107  0.0972  0.1889  0.5372
  280loPI   GL2 4470  15.233  14.258  10.032 -0.1593  0.3270  0.0983
  280loPI   C1A 4471  15.764  14.293   9.754 -0.2324 -0.0281 -0.1304
  280loPI   C2A 4472  15.977  14.345   9.513  0.1347  0.1070  0.1262
  280loPI   C3A 4473  16.136  14.320   9.152 -0.0062 -0.0383 -0.1812
  280loPI   C4A 4474  16.189  14.515   8.752  0.3229 -0.1222  0.2065
  280loPI   C5A 4475  16.244  14.570   8.233 -0.1612 -0.0730  0.2864
  280loPI   C6A 4476  16.292  14.434   7.749  0.0941 -0.1870  0.1086
  280loPI   C1B 4477  15.361  14.140   9.485  0.1287 -0.1646  0.0025
  280loPI   C2B 4478  15.274  13.981   9.147  0.0480  0.1023 -0.0255
  280loPI   C3B 4479  15.141  14.174   8.783 -0.0350  0.0016  0.2565
  280loPI   C4B 4480  14.951  14.103   8.352 -0.0468  0.2271 -0.0066
  281loPI    C1 4481  12.755   5.301   9.971 -0.0800  0.1776 -0.0184
  281loPI    C2 4482  12.722   5.026  10.260 -0.0515 -0.1736 -0.3413
  281loPI    C3 4483  12.403   5.121  10.037 -0.0764  0.1049 -0.1918
  281loPI   PO4 4484  12.915   5.230   9.764  0.0864  0.3942  0.2048
  281loPI   GL1 4485  13.208   5.296   9.415  0.4281 -0.2588  0.1161
  281loPI   GL2 4486  13.259   4.940   9.235 -0.1200 -0.1893 -0.0937
  281loPI   C1A 4487  13.430   5.491   9.177  0.1446 -0.0752  0.2981
  281loPI   C2A 4488  13.646   5.530   8.875  0.1775  0.1365  0.2342
  281loPI   C3A 4489  13.702   5.517   8.427  0.1202  0.0687 -0.0862
  281loPI   C4A 4490  13.526   5.467   8.072 -0.2931  0.1238 -0.2280
  281loPI   C5A 4491  13.420   5.709   7.644  0.2813  0.0776  0.2471
  281loPI   C6A 4492  13.172   5.684   7.287  0.1632  0.0943 -0.2483
  281loPI   C1B 4493  13.086   4.812   8.899  0.1940 -0.0138  0.0805
  281loPI   C2B 4494  13.033   4.875   8.494  0.3724 -0.0553 -0.1431
  281loPI   C3B 4495  13.117   4.688   8.159  0.1224  0.3033 -0.2765
  281loPI   C4B 4496  13.205   4.735   7.626 -0.2228 -0.0818  0.1073
  282loPI    C1 4497  11.577  12.806  10.312 -0.0887 -0.0850 -0.2618
  282loPI    C2 4498  11.334  12.988  10.573 -0.1022 -0.1332 -0.2404
  282loPI    C3 4499  11.435  12.605  10.627  0.2266 -0.0276 -0.0800
  282loPI   PO4 4500  11.647  13.028  10.169  0.1910  0.1084  0.2579
  282loPI   GL1 4501  11.472  13.177   9.795  0.1394  0.0208  0.1414
  282loPI   GL2 4502  11.270  12.938   9.616 -0.0182 -0.3206 -0.2887
  282loPI   C1A 4503  11.806  13.069   9.481  0.2574  0.1826  0.0466
  282loPI   C2A 4504  11.843  13.164   9.058 -0.1706 -0.2197 -0.2009
  282loPI   C3A 4505  12.072  13.361   8.707  0.1523  0.0807  0.1947
  282loPI   C4A 4506  11.870  13.185   8.222 -0.0327 -0.0605 -0.1213
  282loPI   C5A 4507  11.650  13.121   7.903  0.0033 -0.1554  0.0354
  282loPI   C6A 4508  11.407  13.057   7.667 -0.0407 -0.2316 -0.3613
  282loPI   C1B 4509  11.473  12.829   9.203 -0.0502  0.2454  0.3160
  282loPI   C2B 4510  11.351  12.848   8.673  0.0082 -0.1765  0.3128
  282loPI   C3B 4511  11.392  12.987   8.273  0.0228 -0.3133  0.3801
  282loPI   C4B 4512  11.374  12.616   7.963  0.1782 -0.1853  0.1346
  283loPI    C1 4513   7.095  17.466  10.153 -0.1828 -0.0254  0.1969
  283loPI    C2 4514   7.171  17.859  10.151  0.0180 -0.0563 -0.4251
  283loPI    C3 4515   7.407  17.611  10.357 -0.0238  0.1301 -0.1479
  283loPI   PO4 4516   6.962  17.526   9.845 -0.1700  0.0554  0.3469
  283loPI   GL1 4517   7.085  17.811   9.661  0.3161 -0.1268 -0.0178
  283loPI   GL2 4518   7.437  17.906   9.530  0.2054 -0.3369 -0.0054
  283loPI   C1A 4519   6.967  17.756   9.202  0.1563 -0.2305  0.3350
  283loPI   C2A 4520   6.867  18.023   8.768 -0.0815  0.1857 -0.2154
  283loPI   C3A 4521   6.900  18.349   8.409  0.0436  0.2169  0.0829
  283loPI   C4A 4522   6.521  18.599   8.385 -0.2496 -0.1383 -0.1954
  283loPI   C5A 4523   6.607  19.025   8.349  0.1807 -0.1704  0.0655
  283loPI   C6A 4524   6.602  19.364   8.104  0.1541  0.3051 -0.1341
  283loPI   C1B 4525   7.273  18.105   9.009 -0.1620  0.3149  0.0241
  283loPI   C2B 4526   7.382  18.426   8.586  0.1469 -0.0912 -0.1816
  283loPI   C3B 4527   7.547  18.573   8.211 -0.0866  0.1167 -0.1917
  283loPI   C4B 4528   7.614  18.790   7.798 -0.2111  0.1065  0.0701
  284loPI    C1 4529  12.160  12.833  10.712  0.0472  0.0568  0.0893
  284loPI    C2 4530  11.831  12.688  10.887 -0.1824  0.3955 -0.0524
  284loPI    C3 4531  12.044  12.976  11.067  0.2444 -0.0659  0.2055
  284loPI   PO4 4532  12.102  12.934  10.494  0.1702  0.2038  0.1423
  284loPI   GL1 4533  12.118  12.852  10.054 -0.3139  0.1887  0.1598
  284loPI   GL2 4534  12.384  12.635  10.101 -0.2801 -0.1854  0.3439
  284loPI   C1A 4535  12.275  13.064   9.638  0.0243  0.0937 -0.0432
  284loPI   C2A 4536  12.306  13.032   9.212  0.0176  0.2776 -0.0254
  284loPI   C3A 4537  12.323  12.970   8.879 -0.0012 -0.1353  0.1534
  284loPI   C4A 4538  12.339  12.923   8.441  0.0563 -0.0210  0.2726
  284loPI   C5A 4539  12.299  12.973   7.993 -0.0303 -0.0799 -0.0843
  284loPI   C6A 4540  12.384  12.982   7.495 -0.2490  0.0160 -0.1654
  284loPI   C1B 4541  12.551  12.648   9.660  0.1093  0.1230 -0.1544
  284loPI   C2B 4542  12.650  12.610   9.255  0.4774 -0.2084  0.2338
  284loPI   C3B 4543  12.720  12.631   8.895  0.0407  0.1589  0.0671
  284loPI   C4B 4544  12.608  12.533   8.433 -0.3555 -0.3149  0.0104
  285loPI    C1 4545  16.466   0.990  10.060  0.0665  0.0351 -0.2411
  285loPI    C2 4546  16.661   1.311  10.197  0.0562 -0.0818  0.0578
  285loPI    C3 4547  16.404   1.118  10.434  0.1407 -0.3733 -0.0833
  285loPI   PO4 4548  16.730   0.850   9.869 -0.1043 -0.0054  0.0725
  285loPI   GL1 4549  17.042   0.826   9.577 -0.0922  0.2425 -0.1847
  285loPI   GL2 4550  17.319   1.115   9.629  0.0615  0.0636  0.1034
  285loPI   C1A 4551  16.806   0.964   9.170  0.0943 -0.1040  0.0732
  285loPI   C2A 4552  16.708   0.922   8.640 -0.3686  0.3298 -0.1444
  285loPI   C3A 4553  16.746   0.734   8.292  0.1938 -0.3129  0.0319
  285loPI   C4A 4554  16.923   0.622   8.028  0.1528  0.0421  0.0828
  285loPI   C5A 4555  17.033   0.239   7.659  0.0103  0.4279 -0.3492
  285loPI   C6A 4556  17.062   0.046   7.226  0.0274  0.3715  0.1224
  285loPI   C1B 4557  17.335   0.972   9.204  0.2725 -0.2705 -0.0664
  285loPI   C2B 4558  17.143   0.724   8.830  0.0567 -0.1007  0.1545
  285loPI   C3B 4559  17.200   0.967   8.434  0.2887 -0.0491  0.0708
  285loPI   C4B 4560  17.150   1.060   8.037 -0.0801  0.0203 -0.3047
  286loPI    C1 4561   3.985   6.980  10.128 -0.0400 -0.0329 -0.0374
  286loPI    C2 4562   4.381   6.934  10.091 -0.0126  0.2206 -0.0781
  286loPI    C3 4563   4.211   6.917  10.452 -0.0238 -0.3138 -0.1009
  286loPI   PO4 4564   3.911   7.187   9.943 -0.0787 -0.4333 -0.1745
  286loPI   GL1 4565   3.864   7.213   9.507 -0.0596 -0.2036  0.1034
  286loPI   GL2 4566   4.141   7.279   9.330  0.1335  0.6484  0.1465
  286loPI   C1A 4567   3.702   7.662   9.391  0.1489  0.3636  0.1452
  286loPI   C2A 4568   3.583   7.647   8.991 -0.0118  0.2693  0.1393
  286loPI   C3A 4569   3.550   7.806   8.582 -0.1679  0.2689  0.1183
  286loPI   C4A 4570   3.797   7.870   8.162 -0.0078 -0.1367  0.1867
  286loPI   C5A 4571   4.079   7.948   7.813  0.0153 -0.2039 -0.2805
  286loPI   C6A 4572   4.401   7.727   7.610  0.0287  0.0438 -0.0186
  286loPI   C1B 4573   3.966   7.199   8.858  0.0656 -0.1588  0.3127
  286loPI   C2B 4574   4.070   7.095   8.353  0.0358 -0.4767 -0.0000
  286loPI   C3B 4575   4.568   6.945   8.230 -0.1442 -0.3826  0.1892
  286loPI   C4B 4576   4.796   6.923   7.982  0.0199  0.0940 -0.2256
  287loPI    C1 4577   4.407  18.389  10.110  0.0547  0.0191  0.0579
  287loPI    C2 4578   4.365  18.242   9.740 -0.0174 -0.0723  0.1019
  287loPI    C3 4579   4.658  18.502   9.821 -0.0511  0.0097 -0.0383
  287loPI   PO4 4580   4.314  18.141  10.295  0.0832  0.3358 -0.0450
  287loPI   GL1 4581   4.047  17.780  10.177 -0.0892 -0.2335  0.2503
  287loPI   GL2 4582   4.308  17.720  10.050 -0.0361 -0.1093  0.0521
  287loPI   C1A 4583   3.966  17.990   9.795 -0.2040  0.3143  0.0517
  287loPI   C2A 4584   3.990  17.963   9.364  0.1077 -0.1724 -0.0172
  287loPI   C3A 4585   3.918  17.683   9.015  0.5281  0.0783 -0.3837
  287loPI   C4A 4586   4.188  17.679   8.629 -0.0854 -0.0930 -0.1365
  287loPI   C5A 4587   4.166  18.090   8.308 -0.0530 -0.0587 -0.0615
  287loPI   C6A 4588   4.071  18.465   8.381 -0.0718 -0.2761 -0.0953
  287loPI   C1B 4589   4.263  17.556   9.528  0.2646  0.0212 -0.1821
  287loPI   C2B 4590   4.479  17.712   9.227  0.2283 -0.2641  0.0262
  287loPI   C3B 4591   4.401  18.039   9.013  0.0718  0.5167 -0.1987
  287loPI   C4B 4592   4.420  18.375   8.761  0.0211  0.2972  0.3564
  288loPI    C1 4593  18.418   0.334  10.605  0.2521  0.3495 -0.0423
  288loPI    C2 4594  18.093   0.565  10.580 -0.0231 -0.0222  0.0166
  288loPI    C3 4595  18.341   0.603  10.892 -0.1002  0.1467  0.0590
  288loPI   PO4 4596  18.550   0.356  10.305  0.0973  0.1108  0.2141
  288loPI   GL1 4597  18.569   0.155   9.837  0.0759 -0.0432 -0.0345
  288loPI   GL2 4598  18.590  -0.215   9.812  0.1877  0.3408 -0.0335
  288loPI   C1A 4599  18.576   0.280   9.436  0.1997 -0.0643  0.1082
  288loPI   C2A 4600  18.855   0.075   9.091  0.1498  0.2513  0.2242
  288loPI   C3A 4601  19.156   0.215   8.858 -0.0383 -0.1778  0.3364
  288loPI   C4A 4602  19.455   0.317   8.480 -0.2644 -0.0264 -0.3523
  288loPI   C5A 4603  19.665   0.380   8.164 -0.1249  0.2205  0.2092
  288loPI   C6A 4604  19.867   0.662   7.849 -0.3080 -0.3975  0.0316
  288loPI   C1B 4605  18.563  -0.291   9.351 -0.2723  0.2567  0.0914
  288loPI   C2B 4606  18.693  -0.390   8.978 -0.4339 -0.2382 -0.1742
  288loPI   C3B 4607  19.013  -0.217   8.659  0.0743  0.1250 -0.2463
  288loPI   C4B 4608  19.013   0.141   8.322  0.2052 -0.0279  0.2797
  289loPI    C1 4609  10.616   5.358  10.136  0.2674 -0.0193  0.2283
  289loPI    C2 4610  10.374   5.671  10.193 -0.3208 -0.4461  0.1792
  289loPI    C3 4611  10.683   5.609  10.440  0.0884  0.4107 -0.0783
  289loPI   PO4 4612  10.715   5.331   9.903  0.1423  0.0535  0.0164
  289loPI   GL1 4613  10.688   5.028   9.532  0.5888 -0.0350  0.0871
  289loPI   GL2 4614  10.424   5.218   9.423 -0.1290  0.0883 -0.1286
  289loPI   C1A 4615  10.538   4.760   9.205  0.0735 -0.0172  0.1882
  289loPI   C2A 4616  10.533   4.496   8.803 -0.1039 -0.2021  0.1237
  289loPI   C3A 4617  10.381   4.202   8.448 -0.0231  0.1356 -0.0642
  289loPI   C4A 4618  10.586   3.894   8.291  0.1936  0.0550 -0.2028
  289loPI   C5A 4619  10.601   3.776   7.913 -0.2241 -0.0789  0.2978
  289loPI   C6A 4620  10.686   3.745   7.572  0.1915 -0.0596  0.1775
  289loPI   C1B 4621  10.421   5.613   9.275 -0.2483  0.0565  0.1626
  289loPI   C2B 4622  10.806   5.799   9.255 -0.3809  0.0652 -0.2807
  289loPI   C3B 4623  11.041   6.120   9.060 -0.2039  0.0554  0.1571
  289loPI   C4B 4624  10.923   6.145   8.630  0.1634 -0.0399  0.2753
  290loPI    C1 4625  10.547   8.657  10.695  0.2044 -0.2710 -0.0343
  290loPI    C2 4626  10.729   8.407  10.949  0.1134 -0.2350  0.0670
  290loPI    C3 4627  10.444   8.270  10.704  0.1820 -0.2642  0.0035
  290loPI   PO4 4628  10.793   8.904  10.676  0.0953 -0.0147  0.1617
  290loPI   GL1 4629  10.960   9.089  10.354 -0.0497 -0.3599  0.1940
  290loPI   GL2 4630  10.920   9.369  10.173 -0.3530  0.0136  0.0972
  290loPI   C1A 4631  10.830   8.850  10.003  0.1389  0.1784  0.0573
  290loPI   C2A 4632  10.505   8.858   9.739 -0.0224 -0.0421  0.2830
  290loPI   C3A 4633  10.359   9.003   9.306 -0.1058 -0.0400 -0.2522
  290loPI   C4A 4634  10.408   8.799   8.904  0.2350 -0.2173  0.1231
  290loPI   C5A 4635  10.607   8.645   8.561  0.2032  0.0196  0.2186
  290loPI   C6A 4636  10.641   8.567   8.281  0.1841 -0.0275  0.1550
  290loPI   C1B 4637  10.995   9.702   9.821 -0.1512 -0.0455  0.2423
  290loPI   C2B 4638  10.723   9.948   9.488  0.0553  0.0468 -0.2278
  290loPI   C3B 4639  10.765   9.909   8.986 -0.5376 -0.2089 -0.0298
  290loPI   C4B 4640  10.865   9.683   8.628 -0.0512  0.0439  0.0974
  291loPI    C1 4641   4.740   1.116  10.279 -0.0493 -0.0601 -0.1770
  291loPI    C2 4642   4.430   1.297  10.456  0.1693  0.1211  0.0282
  291loPI    C3 4643   4.449   0.898  10.448  0.0578  0.1099  0.2409
  291loPI   PO4 4644   4.811   1.223  10.005 -0.5113 -0.3521  0.3146
  291loPI   GL1 4645   4.576   1.484   9.746 -0.0644  0.4476  0.1506
  291loPI   GL2 4646   4.338   1.709   9.613  0.2267 -0.0305  0.1517
  291loPI   C1A 4647   4.582   1.388   9.250 -0.0347  0.1904 -0.1650
  291loPI   C2A 4648   4.731   1.504   8.855  0.0616 -0.0381 -0.0679
  291loPI   C3A 4649   4.716   1.588   8.404  0.3784 -0.1816  0.0412
  291loPI   C4A 4650   4.662   1.267   8.053 -0.3054 -0.1753 -0.2138
  291loPI   C5A 4651   4.804   1.373   7.622 -0.0144  0.0832 -0.3662
  291loPI   C6A 4652   4.979   1.661   7.474  0.0612 -0.0187  0.0874
  291loPI   C1B 4653   4.327   2.090   9.439 -0.0683  0.0681  0.1384
  291loPI   C2B 4654   4.243   2.165   9.109 -0.0838  0.0707  0.3791
  291loPI   C3B 4655   4.205   2.276   8.690 -0.0748  0.0501 -0.0192
  291loPI   C4B 4656   4.045   2.271   8.222  0.1891 -0.1506  0.1469
  292loPI    C1 4657   4.021   8.095  10.004  0.0557  0.1689 -0.1069
  292loPI    C2 4658   4.156   8.349  10.282 -0.0942  0.0843  0.0448
  292loPI    C3 4659   4.076   7.969  10.379  0.1602 -0.0329 -0.1883
  292loPI   PO4 4660   4.072   8.196   9.791  0.1792  0.1230  0.1077
  292loPI   GL1 4661   3.866   8.184   9.436  0.1757  0.1987 -0.2741
  292loPI   GL2 4662   3.558   8.315   9.559 -0.0244  0.0933 -0.0460
  292loPI   C1A 4663   4.201   7.902   9.193 -0.0079 -0.0269 -0.4259
  292loPI   C2A 4664   4.120   7.632   8.949  0.3031  0.2048 -0.1768
  292loPI   C3A 4665   4.114   7.641   8.493 -0.1117  0.2263 -0.1707
  292loPI   C4A 4666   4.084   7.477   8.069 -0.1896 -0.1056 -0.0256
  292loPI   C5A 4667   4.169   7.113   7.857 -0.2809 -0.0060  0.3155
  292loPI   C6A 4668   3.825   6.967   7.452  0.2177  0.0176 -0.0424
  292loPI   C1B 4669   3.527   8.504   9.134 -0.0382  0.0804  0.2388
  292loPI   C2B 4670   3.623   8.431   8.688  0.1316  0.2666 -0.2373
  292loPI   C3B 4671   3.585   8.393   8.324  0.2518 -0.2161  0.0289
  292loPI   C4B 4672   3.777   8.306   7.925  0.0887 -0.0272  0.0981
  293loPI    C1 4673  12.787  11.270  10.542 -0.1317  0.0898 -0.0322
  293loPI    C2 4674  12.899  10.897  10.450  0.1803  0.1808 -0.0341
  293loPI    C3 4675  12.966  11.041  10.817 -0.1761  0.1497  0.0469
  293loPI   PO4 4676  12.830  11.362  10.284  0.1879 -0.0888  0.0341
  293loPI   GL1 4677  12.724  11.293   9.952  0.2798 -0.0737  0.2887
  293loPI   GL2 4678  12.552  11.412   9.749 -0.0472  0.0844  0.1605
  293loPI   C1A 4679  12.870  11.059   9.617  0.1295  0.0932 -0.1919
  293loPI   C2A 4680  12.886  11.003   9.173  0.1813 -0.1075  0.4386
  293loPI   C3A 4681  12.649  11.191   8.811 -0.0347  0.2177  0.1166
  293loPI   C4A 4682  12.753  11.458   8.473 -0.0517 -0.1078 -0.4406
  293loPI   C5A 4683  12.885  11.616   8.182 -0.1830  0.1327 -0.1410
  293loPI   C6A 4684  13.122  11.680   7.765  0.2209 -0.2708  0.2163
  293loPI   C1B 4685  12.656  11.610   9.423  0.0902  0.4905  0.0238
  293loPI   C2B 4686  12.818  11.663   9.011 -0.0543 -0.3964  0.0306
  293loPI   C3B 4687  13.151  11.769   8.757 -0.0492 -0.3160  0.4665
  293loPI   C4B 4688  13.501  11.538   8.585 -0.0641  0.0844 -0.2995
  294loPI    C1 4689  11.585  15.009  10.431  0.0219  0.0264 -0.0073
  294loPI    C2 4690  11.368  15.217  10.696 -0.0352  0.0091 -0.0404
  294loPI    C3 4691  11.763  15.179  10.747 -0.0830 -0.2134  0.1847
  294loPI   PO4 4692  11.559  15.123  10.110 -0.1249 -0.4393 -0.2980
  294loPI   GL1 4693  11.818  15.163   9.707  0.2420  0.0470  0.3253
  294loPI   GL2 4694  11.485  14.904   9.537 -0.1042  0.0432 -0.1804
  294loPI   C1A 4695  11.823  15.167   9.303 -0.2205 -0.1186  0.1095
  294loPI   C2A 4696  11.888  15.307   8.895 -0.1308 -0.1385  0.0423
  294loPI   C3A 4697  11.790  15.400   8.614 -0.2771 -0.3543 -0.1397
  294loPI   C4A 4698  11.959  15.269   8.162 -0.0976 -0.2597  0.0245
  294loPI   C5A 4699  11.908  14.905   7.903  0.1255  0.1310 -0.3319
  294loPI   C6A 4700  11.702  14.469   7.995 -0.0393 -0.0357  0.0721
  294loPI   C1B 4701  11.366  15.052   9.143 -0.0505 -0.1239  0.1076
  294loPI   C2B 4702  11.404  15.049   8.689 -0.1288 -0.1713 -0.1748
  294loPI   C3B 4703  11.521  14.975   8.310 -0.1245 -0.1008  0.0874
  294loPI   C4B 4704  11.431  14.927   7.731 -0.2068  0.0247  0.1873
  295loPI    C1 4705  16.473  10.279  10.469 -0.0777 -0.1278 -0.0986
  295loPI    C2 4706  16.680  10.620  10.496  0.1197 -0.2714  0.2566
  295loPI    C3 4707  16.284  10.623  10.547  0.0815 -0.0559 -0.0245
  295loPI   PO4 4708  16.555  10.185  10.225 -0.0636 -0.0380 -0.2482
  295loPI   GL1 4709  16.521  10.060   9.866 -0.1152 -0.0609  0.0443
  295loPI   GL2 4710  16.655   9.821   9.622 -0.1333  0.1708  0.0838
  295loPI   C1A 4711  16.288  10.224   9.589  0.0674  0.2056  0.0036
  295loPI   C2A 4712  16.097  10.663   9.421 -0.2980  0.2432  0.0196
  295loPI   C3A 4713  15.935  10.580   8.892 -0.0987 -0.1949  0.1120
  295loPI   C4A 4714  15.845  10.610   8.423 -0.1552  0.2719 -0.0205
  295loPI   C5A 4715  16.092  10.767   8.073  0.0676 -0.1714  0.1394
  295loPI   C6A 4716  16.351  10.580   7.750 -0.1311 -0.0958 -0.0133
  295loPI   C1B 4717  16.564  10.076   9.226  0.0528  0.0741 -0.1560
  295loPI   C2B 4718  16.397  10.154   8.880 -0.2003 -0.0324 -0.1855
  295loPI   C3B 4719  16.056  10.140   8.590  0.1616  0.0569 -0.0858
  295loPI   C4B 4720  16.157  10.220   8.184 -0.3994 -0.0824  0.3229
  296loPI    C1 4721   6.184   2.925   9.732 -0.1658 -0.1283 -0.0103
  296loPI    C2 4722   6.219   3.196  10.024  0.2868 -0.0840 -0.0978
  296loPI    C3 4723   5.891   3.190   9.794  0.2985  0.4358 -0.1395
  296loPI   PO4 4724   6.326   2.616   9.818  0.2158  0.0993  0.3184
  296loPI   GL1 4725   6.350   2.192   9.623 -0.0007 -0.0445  0.0077
  296loPI   GL2 4726   6.650   2.104   9.342 -0.0094 -0.0928 -0.3439
  296loPI   C1A 4727   6.154   1.932   9.244  0.2226  0.1028  0.0056
  296loPI   C2A 4728   6.235   1.686   8.822 -0.0576  0.0611  0.1158
  296loPI   C3A 4729   6.111   1.651   8.358 -0.1993  0.1199  0.0089
  296loPI   C4A 4730   6.228   1.729   7.914 -0.1636 -0.1116 -0.1058
  296loPI   C5A 4731   6.583   1.873   7.747  0.0068 -0.1818 -0.0832
  296loPI   C6A 4732   6.951   2.089   7.943  0.1916  0.3581 -0.0209
  296loPI   C1B 4733   6.648   2.139   8.948 -0.1353 -0.0704 -0.3785
  296loPI   C2B 4734   6.623   2.154   8.600  0.0422 -0.1831  0.3613
  296loPI   C3B 4735   6.393   2.170   8.193 -0.1049  0.1636  0.0709
  296loPI   C4B 4736   6.251   2.286   7.760  0.0693  0.1229 -0.3338
  297loPI    C1 4737   9.073  14.235  10.057  0.1555 -0.0625  0.1659
  297loPI    C2 4738   8.720  14.234  10.246  0.0296  0.3402 -0.0559
  297loPI    C3 4739   8.913  13.890  10.181 -0.2011  0.1407  0.2868
  297loPI   PO4 4740   9.151  14.463  10.068 -0.1340  0.0567 -0.0634
  297loPI   GL1 4741   9.123  14.750   9.719 -0.1855 -0.2778  0.1193
  297loPI   GL2 4742   8.957  14.514   9.629  0.3513 -0.1380  0.0848
  297loPI   C1A 4743   9.426  14.550   9.457 -0.2339  0.0551 -0.3488
  297loPI   C2A 4744   9.505  14.300   9.143 -0.0249 -0.1310  0.1177
  297loPI   C3A 4745   9.380  14.331   8.640  0.0217 -0.2739  0.2007
  297loPI   C4A 4746   9.263  14.428   8.190 -0.2459  0.0819  0.2225
  297loPI   C5A 4747   9.527  14.615   7.898 -0.1943  0.3138 -0.1345
  297loPI   C6A 4748   9.427  14.753   7.568 -0.3308  0.1166  0.1972
  297loPI   C1B 4749   9.015  14.585   9.138  0.0693 -0.2868 -0.0046
  297loPI   C2B 4750   8.929  14.575   8.636  0.5097 -0.0453 -0.0515
  297loPI   C3B 4751   8.831  14.252   8.232  0.3113 -0.0195 -0.1657
  297loPI   C4B 4752   8.858  14.052   7.865 -0.2467 -0.0144 -0.2014
  298loPI    C1 4753  14.418  17.914  10.357 -0.2704 -0.0091 -0.1399
  298loPI    C2 4754  14.512  18.276  10.499  0.0592 -0.0937 -0.1327
  298loPI    C3 4755  14.281  18.030  10.714  0.3193 -0.1116  0.1329
  298loPI   PO4 4756  14.471  17.976  10.059  0.1374 -0.1344  0.2230
  298loPI   GL1 4757  14.549  17.916   9.667  0.0009  0.0783  0.1262
  298loPI   GL2 4758  14.594  18.268   9.604  0.1261 -0.0484 -0.1636
  298loPI   C1A 4759  14.524  17.998   9.237  0.2427  0.2534  0.2145
  298loPI   C2A 4760  14.487  18.034   8.779 -0.2863  0.0630  0.2215
  298loPI   C3A 4761  14.601  18.101   8.297  0.1777 -0.1644 -0.4159
  298loPI   C4A 4762  14.717  18.352   7.990 -0.0045 -0.1776  0.0864
  298loPI   C5A 4763  14.667  18.600   7.553  0.1190  0.0072  0.0205
  298loPI   C6A 4764  14.427  18.834   7.299  0.1959  0.0028  0.0864
  298loPI   C1B 4765  14.791  18.423   9.217  0.0570  0.1166 -0.2496
  298loPI   C2B 4766  14.712  18.534   8.814  0.1025  0.1689  0.2882
  298loPI   C3B 4767  14.568  18.618   8.444 -0.0069  0.0077 -0.0953
  298loPI   C4B 4768  14.773  18.795   8.088 -0.0346  0.1787 -0.0264
  299loPI    C1 4769  11.461   1.370  10.138  0.1775  0.2296  0.2014
  299loPI    C2 4770  11.672   1.335  10.476  0.2317  0.1707  0.1615
  299loPI    C3 4771  11.317   1.518  10.481  0.1058 -0.0720  0.3041
  299loPI   PO4 4772  11.613   1.397  10.002  0.0070  0.1074 -0.2071
  299loPI   GL1 4773  11.740   1.080   9.636 -0.1108 -0.0994 -0.2988
  299loPI   GL2 4774  11.920   1.302   9.592  0.2460  0.4180 -0.3553
  299loPI   C1A 4775  11.527   1.110   9.156 -0.0498  0.2050 -0.0459
  299loPI   C2A 4776  11.368   1.129   8.750 -0.0704  0.0502  0.2410
  299loPI   C3A 4777  11.123   1.016   8.303 -0.3569  0.1346 -0.1155
  299loPI   C4A 4778  11.336   0.667   8.093  0.2799  0.1306 -0.0918
  299loPI   C5A 4779  11.372   0.489   7.639 -0.3407  0.1842 -0.0509
  299loPI   C6A 4780  11.354   0.335   7.165 -0.0204  0.0766 -0.5699
  299loPI   C1B 4781  12.006   1.376   9.093  0.2626  0.4354  0.0927
  299loPI   C2B 4782  12.066   0.996   8.804  0.3524 -0.1882  0.1160
  299loPI   C3B 4783  12.238   0.941   8.446  0.1823 -0.0270 -0.1199
  299loPI   C4B 4784  12.561   0.673   8.287 -0.0590 -0.0717  0.0943
  300loPI    C1 4785   9.198   8.417   9.900 -0.1350 -0.0099  0.0393
  300loPI    C2 4786   9.054   8.187  10.194  0.3284 -0.2402  0.0955
  300loPI    C3 4787   9.307   8.485  10.278  0.2218 -0.1089 -0.0418
  300loPI   PO4 4788   8.944   8.438   9.687  0.0719 -0.0279 -0.2203
  300loPI   GL1 4789   8.894   8.193   9.379 -0.1691  0.0491 -0.0400
  300loPI   GL2 4790   8.758   8.509   9.216 -0.2718  0.2567 -0.2202
  300loPI   C1A 4791   8.998   8.150   8.911 -0.0808 -0.0600 -0.0862
  300loPI   C2A 4792   8.999   8.095   8.547  0.0387  0.2584  0.1174
  300loPI   C3A 4793   8.857   8.073   8.149 -0.0915 -0.4047  0.1236
  300loPI   C4A 4794   8.837   7.794   7.756 -0.0583 -0.1824 -0.1916
  300loPI   C5A 4795   9.124   7.754   7.477 -0.3884 -0.1200 -0.1696
  300loPI   C6A 4796   8.924   7.755   7.112  0.1042 -0.2582 -0.1132
  300loPI   C1B 4797   8.610   8.459   8.858 -0.3284 -0.4064 -0.0436
  300loPI   C2B 4798   8.580   8.403   8.347 -0.1133 -0.1715 -0.2004
  300loPI   C3B 4799   8.413   8.345   8.031  0.1464  0.1491  0.0754
  300loPI   C4B 4800   8.509   8.170   7.624 -0.1041  0.1680 -0.0792
  301loPI    C1 4801   1.358   4.749  10.687 -0.1661  0.1648  0.0552
  301loPI    C2 4802   1.531   5.101  10.768 -0.0353  0.1361 -0.0922
  301loPI    C3 4803   1.362   4.888  11.062 -0.0158  0.2688  0.0163
  301loPI   PO4 4804   1.123   4.850  10.522  0.5278 -0.2412  0.3239
  301loPI   GL1 4805   0.923   4.909  10.089 -0.1396 -0.1930 -0.0485
  301loPI   GL2 4806   0.830   4.699   9.893 -0.3272 -0.2257 -0.0800
  301loPI   C1A 4807   1.150   5.010   9.660  0.4282 -0.1374  0.1884
  301loPI   C2A 4808   1.262   5.055   9.236 -0.0793  0.1608  0.0797
  301loPI   C3A 4809   1.434   4.901   8.904  0.0313  0.2027 -0.1092
  301loPI   C4A 4810   1.169   4.541   8.745  0.1893 -0.4612 -0.0179
  301loPI   C5A 4811   0.896   4.295   8.552  0.0956  0.1405  0.0034
  301loPI   C6A 4812   0.609   4.022   8.672 -0.0941 -0.4605 -0.0305
  301loPI   C1B 4813   0.768   4.705   9.489  0.0143  0.1239 -0.1049
  301loPI   C2B 4814   0.851   4.683   9.104  0.0972  0.0649 -0.4102
  301loPI   C3B 4815   0.689   4.768   8.759  0.1994 -0.1014  0.1790
  301loPI   C4B 4816   0.686   4.722   8.306  0.1219 -0.3016  0.0506
  302loPI    C1 4817   0.139   2.483  10.502 -0.1414 -0.1239  0.2940
  302loPI    C2 4818   0.149   2.808  10.269  0.1606 -0.2948  0.0602
  302loPI    C3 4819   0.181   2.845  10.666 -0.1233 -0.0184  0.0617
  302loPI   PO4 4820  -0.006   2.291  10.266 -0.0398  0.2865 -0.1342
  302loPI   GL1 4821  -0.063   2.157   9.939  0.2456  0.0808  0.0755
  302loPI   GL2 4822   0.210   2.385   9.844 -0.0044  0.2784 -0.0443
  302loPI   C1A 4823  -0.280   2.354   9.478  0.0158 -0.3219  0.2574
  302loPI   C2A 4824  -0.281   2.399   9.049 -0.1757  0.1033  0.1340
  302loPI   C3A 4825  -0.196   2.732   8.788  0.2166  0.1210 -0.3883
  302loPI   C4A 4826  -0.299   3.090   8.568 -0.1606  0.0979 -0.1346
  302loPI   C5A 4827  -0.306   3.491   8.483 -0.1228  0.3783  0.1134
  302loPI   C6A 4828  -0.535   3.749   8.181 -0.2970  0.4035 -0.0573
  302loPI   C1B 4829   0.202   2.388   9.391  0.0933 -0.2487  0.0995
  302loPI   C2B 4830   0.250   2.575   8.954  0.2947 -0.1043  0.1709
  302loPI   C3B 4831   0.237   2.941   8.702 -0.0750 -0.1419  0.3034
  302loPI   C4B 4832   0.136   3.162   8.367  0.1204  0.4447 -0.0330
  303loPI    C1 4833  13.849   0.627  10.090  0.0495 -0.1309 -0.1908
  303loPI    C2 4834  13.567   0.344  10.106 -0.2118  0.1377  0.1226
  303loPI    C3 4835  13.891   0.318  10.340 -0.0454 -0.0929 -0.1271
  303loPI   PO4 4836  13.829   0.689   9.840 -0.3140  0.2179  0.0196
  303loPI   GL1 4837  13.813   0.514   9.462 -0.2475  0.1102  0.3975
  303loPI   GL2 4838  13.550   0.405   9.547  0.2093  0.2498  0.2563
  303loPI   C1A 4839  13.824   0.622   8.990  0.0439 -0.5924 -0.1729
  303loPI   C2A 4840  13.887   0.717   8.666  0.1254 -0.1713  0.3383
  303loPI   C3A 4841  13.742   0.752   8.327 -0.0739 -0.3471  0.1486
  303loPI   C4A 4842  13.577   1.041   7.994 -0.0573  0.2811  0.2939
  303loPI   C5A 4843  13.514   1.388   7.704 -0.1590 -0.0669 -0.3368
  303loPI   C6A 4844  13.400   1.836   7.738 -0.1664  0.1475  0.2584
  303loPI   C1B 4845  13.527   0.243   9.126  0.1054  0.1864  0.1140
  303loPI   C2B 4846  13.603   0.233   8.662  0.1675  0.0270 -0.0784
  303loPI   C3B 4847  13.807   0.274   8.267  0.0792 -0.0504 -0.0027
  303loPI   C4B 4848  14.177   0.540   8.162  0.1678 -0.0874 -0.0228
  304loPI    C1 4849  10.461  12.388  10.189  0.1627  0.2633 -0.1347
  304loPI    C2 4850  10.515  12.489  10.573 -0.1444  0.0875 -0.0420
  304loPI    C3 4851  10.475  12.104  10.470 -0.1101  0.1368 -0.2452
  304loPI   PO4 4852  10.465  12.631  10.119  0.1333  0.2490  0.2422
  304loPI   GL1 4853  10.690  12.623   9.797  0.2312 -0.0212  0.2864
  304loPI   GL2 4854  10.493  12.374   9.658  0.0176  0.1067  0.1816
  304loPI   C1A 4855  10.947  12.572   9.403 -0.1501  0.2705  0.0832
  304loPI   C2A 4856  11.069  12.551   8.988  0.2762 -0.0032 -0.0109
  304loPI   C3A 4857  10.867  12.645   8.543  0.1091  0.1165  0.0006
  304loPI   C4A 4858  10.788  12.781   8.201  0.3177 -0.0961 -0.3656
  304loPI   C5A 4859  10.629  12.502   7.881  0.3189 -0.0075  0.1508
  304loPI   C6A 4860  10.168  12.452   7.830 -0.1145  0.1625 -0.1511
  304loPI   C1B 4861  10.534  12.353   9.311 -0.1700  0.1472 -0.1977
  304loPI   C2B 4862  10.554  12.338   8.902 -0.1368 -0.1553 -0.1170
  304loPI   C3B 4863  10.678  12.083   8.636  0.1696  0.1596 -0.2549
  304loPI   C4B 4864  10.906  12.164   8.320 -0.1307  0.1345  0.1083
  305loPI    C1 4865  13.682   6.185  10.035 -0.0634  0.2524  0.0859
  305loPI    C2 4866  13.587   6.394   9.707  0.1195  0.4158  0.1350
  305loPI    C3 4867  13.665   6.584  10.051  0.0265  0.2509  0.2490
  305loPI   PO4 4868  13.804   5.958   9.791 -0.3004  0.1513  0.0343
  305loPI   GL1 4869  13.951   6.160   9.336 -0.1112  0.0424 -0.2819
  305loPI   GL2 4870  14.108   6.460   9.292  0.2598  0.1103 -0.2543
  305loPI   C1A 4871  13.666   6.006   9.015  0.1028  0.0144 -0.0030
  305loPI   C2A 4872  13.660   6.041   8.560 -0.2106  0.0378 -0.0573
  305loPI   C3A 4873  13.718   6.262   8.178  0.0099 -0.0955 -0.0952
  305loPI   C4A 4874  13.825   6.399   7.864 -0.0433  0.2359  0.1601
  305loPI   C5A 4875  14.270   6.479   7.497 -0.1060  0.0482  0.1412
  305loPI   C6A 4876  14.280   6.536   6.969  0.0833 -0.3716  0.0783
  305loPI   C1B 4877  14.345   6.275   9.009 -0.2112  0.0324 -0.2365
  305loPI   C2B 4878  14.551   6.445   8.547 -0.0470 -0.2750  0.1016
  305loPI   C3B 4879  14.924   6.330   8.316 -0.1137  0.0888 -0.0973
  305loPI   C4B 4880  14.982   6.420   7.904 -0.0033 -0.2311 -0.1637
  306loPI    C1 4881  13.719   1.079  10.198 -0.0067 -0.3429  0.0633
  306loPI    C2 4882  13.854   1.454  10.230 -0.1761 -0.2517 -0.2594
  306loPI    C3 4883  14.093   1.148  10.323 -0.0540 -0.0648  0.0574
  306loPI   PO4 4884  13.532   1.155   9.846 -0.3254  0.0283  0.1974
  306loPI   GL1 4885  13.422   1.241   9.478  0.2020  0.1656  0.3282
  306loPI   GL2 4886  13.374   1.451   9.178 -0.0984 -0.0501  0.0489
  306loPI   C1A 4887  13.502   1.000   9.022 -0.3512  0.2214  0.0690
  306loPI   C2A 4888  13.465   1.084   8.591  0.1065  0.1165 -0.1208
  306loPI   C3A 4889  13.162   1.078   8.314 -0.2168  0.2117  0.1025
  306loPI   C4A 4890  12.804   1.045   8.017  0.0738  0.3128 -0.2832
  306loPI   C5A 4891  12.421   1.028   7.828 -0.1723 -0.0074  0.0496
  306loPI   C6A 4892  12.242   0.513   7.825 -0.1243 -0.3554  0.1962
  306loPI   C1B 4893  13.441   1.699   8.929  0.0340  0.1252  0.0219
  306loPI   C2B 4894  13.598   1.996   8.807 -0.0637 -0.1570  0.0245
  306loPI   C3B 4895  13.873   2.163   8.540 -0.1054  0.3787  0.0801
  306loPI   C4B 4896  14.000   2.513   8.459 -0.1132 -0.0459 -0.0897
  307loPI    C1 4897  17.882   4.977  10.557 -0.0182 -0.1358  0.0769
  307loPI    C2 4898  17.548   4.932  10.773  0.0732 -0.0043  0.2487
  307loPI    C3 4899  17.900   4.982  10.957  0.1785 -0.0726  0.0685
  307loPI   PO4 4900  17.821   4.753  10.409  0.2733 -0.1101  0.1365
  307loPI   GL1 4901  18.064   4.553  10.208 -0.0838 -0.0431 -0.1802
  307loPI   GL2 4902  18.319   4.570  10.298  0.2587 -0.0763  0.0826
  307loPI   C1A 4903  17.940   4.319   9.818 -0.0297  0.1070 -0.1302
  307loPI   C2A 4904  17.976   4.213   9.490  0.1107  0.2539  0.3068
  307loPI   C3A 4905  18.102   4.378   9.111  0.4013  0.1679  0.0211
  307loPI   C4A 4906  18.046   4.588   8.745  0.0696  0.3559 -0.3170
  307loPI   C5A 4907  18.032   4.502   8.300  0.1300  0.2825 -0.2310
  307loPI   C6A 4908  18.249   4.255   8.117  0.1390  0.2423  0.1018
  307loPI   C1B 4909  18.489   4.734   9.977  0.1801  0.0159  0.1194
  307loPI   C2B 4910  18.898   4.600   9.816 -0.2289  0.3605  0.1126
  307loPI   C3B 4911  19.021   4.881   9.441  0.1170 -0.0999 -0.0019
  307loPI   C4B 4912  19.041   5.160   9.063 -0.0146 -0.0224  0.0693
  308loPI    C1 4913   2.262   7.967   9.713 -0.0763  0.2908 -0.0612
  308loPI    C2 4914   2.543   7.883   9.985 -0.0722  0.0488 -0.1374
  308loPI    C3 4915   2.215   8.087  10.092 -0.0037  0.0802  0.0158
  308loPI   PO4 4916   2.503   7.980   9.510  0.1446 -0.0912 -0.2310
  308loPI   GL1 4917   2.614   7.636   9.296  0.1573  0.0823 -0.0756
  308loPI   GL2 4918   2.695   7.291   9.400  0.0032  0.0467  0.1193
  308loPI   C1A 4919   2.550   7.423   8.893 -0.1165 -0.1083 -0.0197
  308loPI   C2A 4920   2.623   7.331   8.501 -0.0267 -0.0367 -0.2578
  308loPI   C3A 4921   2.762   7.494   8.221  0.2441 -0.1177  0.1002
  308loPI   C4A 4922   2.568   7.577   7.817 -0.3557 -0.1863 -0.0954
  308loPI   C5A 4923   2.348   7.947   7.555 -0.1679  0.1634  0.1175
  308loPI   C6A 4924   2.047   8.049   7.345 -0.0991 -0.0081  0.1689
  308loPI   C1B 4925   2.894   7.100   8.927 -0.4990 -0.2825  0.1483
  308loPI   C2B 4926   3.066   7.081   8.488 -0.0156 -0.0232  0.0678
  308loPI   C3B 4927   3.159   7.133   8.075  0.0604 -0.0860 -0.0073
  308loPI   C4B 4928   2.939   7.311   7.677  0.1002  0.0322  0.0995
  309loPI    C1 4929   9.150   1.763   9.952 -0.1785  0.0736  0.1767
  309loPI    C2 4930   9.264   1.827  10.330  0.1109 -0.0326  0.1103
  309loPI    C3 4931   9.012   1.528  10.245  0.1314 -0.0776  0.2055
  309loPI   PO4 4932   9.352   1.837   9.816  0.2042  0.0615  0.2024
  309loPI   GL1 4933   9.432   1.714   9.389 -0.2944  0.2744  0.0244
  309loPI   GL2 4934   9.092   1.535   9.458  0.0222  0.0095  0.0049
  309loPI   C1A 4935   9.509   1.825   8.942 -0.0364  0.3473 -0.0452
  309loPI   C2A 4936   9.628   1.769   8.468 -0.0058 -0.1872  0.0265
  309loPI   C3A 4937   9.871   1.580   8.149 -0.5511  0.2020 -0.2023
  309loPI   C4A 4938  10.231   1.634   7.874 -0.0516  0.2438  0.0449
  309loPI   C5A 4939  10.432   1.673   7.545  0.2492  0.1597 -0.0886
  309loPI   C6A 4940  10.378   1.863   7.154 -0.1158  0.1183  0.3062
  309loPI   C1B 4941   9.017   1.616   9.024  0.2368  0.0417 -0.6726
  309loPI   C2B 4942   9.193   1.610   8.585  0.0254 -0.1208  0.2945
  309loPI   C3B 4943   9.227   1.950   8.221  0.1614  0.1079 -0.3321
  309loPI   C4B 4944   9.543   1.964   8.005 -0.2056 -0.1131 -0.1360
  310loPI    C1 4945   7.326   4.354   9.816 -0.3128  0.0683 -0.1974
  310loPI    C2 4946   7.218   4.610  10.104 -0.1904 -0.0887 -0.0091
  310loPI    C3 4947   7.271   4.223  10.190  0.1190 -0.0883 -0.1833
  310loPI   PO4 4948   7.240   4.486   9.626 -0.2560  0.1358  0.0789
  310loPI   GL1 4949   7.124   4.354   9.276 -0.1875 -0.0369  0.0279
  310loPI   GL2 4950   7.379   4.159   9.213 -0.1191 -0.0168  0.1816
  310loPI   C1A 4951   6.796   4.140   9.011  0.2457  0.1222  0.0157
  310loPI   C2A 4952   6.771   3.977   8.577  0.0274  0.1999 -0.0084
  310loPI   C3A 4953   6.638   4.127   8.207 -0.2877 -0.0011 -0.2853
  310loPI   C4A 4954   6.442   4.437   8.096  0.0582 -0.0216 -0.1153
  310loPI   C5A 4955   6.351   4.863   7.901 -0.3340  0.0558  0.0008
  310loPI   C6A 4956   6.088   4.954   7.523  0.0418 -0.1227  0.0186
  310loPI   C1B 4957   7.266   3.932   8.836 -0.2377  0.3131  0.1654
  310loPI   C2B 4958   6.958   3.561   8.781  0.0674 -0.0363 -0.0880
  310loPI   C3B 4959   6.870   3.454   8.373 -0.5297  0.0257  0.4790
  310loPI   C4B 4960   6.836   3.555   8.037 -0.0721  0.1711  0.3433
  311loPI    C1 4961   0.119   7.045  10.321  0.1303  0.1226 -0.2406
  311loPI    C2 4962   0.140   7.295  10.633 -0.0442 -0.2210  0.0535
  311loPI    C3 4963  -0.042   6.941  10.672  0.0638 -0.3330 -0.4001
  311loPI   PO4 4964   0.188   7.205  10.143 -0.2843  0.0829  0.0830
  311loPI   GL1 4965  -0.071   7.253   9.788 -0.3287  0.1004 -0.0593
  311loPI   GL2 4966  -0.257   6.928   9.807 -0.3235 -0.2694  0.1660
  311loPI   C1A 4967  -0.184   7.228   9.358 -0.0217  0.2350 -0.2444
  311loPI   C2A 4968  -0.103   7.001   8.930 -0.0333 -0.1887 -0.2194
  311loPI   C3A 4969   0.176   6.744   8.606  0.5572 -0.1449  0.2425
  311loPI   C4A 4970   0.430   6.484   8.425  0.0713  0.2343  0.0317
  311loPI   C5A 4971   0.304   6.289   8.075  0.1859 -0.1062 -0.1636
  311loPI   C6A 4972   0.031   6.094   7.755  0.2135 -0.3887  0.2567
  311loPI   C1B 4973  -0.298   6.717   9.525 -0.1551  0.5825 -0.1298
  311loPI   C2B 4974  -0.472   6.604   9.123 -0.1287  0.1076 -0.2923
  311loPI   C3B 4975  -0.431   6.787   8.713 -0.1671 -0.1890  0.0001
  311loPI   C4B 4976  -0.257   6.866   8.270 -0.2146  0.0985 -0.0001
  312loPI    C1 4977   6.901  12.795   9.865  0.0024  0.1123  0.1875
  312loPI    C2 4978   6.677  12.550  10.088 -0.1275  0.0875  0.0312
  312loPI    C3 4979   7.068  12.586  10.163 -0.0881 -0.2388 -0.0023
  312loPI   PO4 4980   6.930  12.663   9.533 -0.1524  0.0707 -0.3621
  312loPI   GL1 4981   7.095  12.831   9.207  0.0720 -0.0281 -0.1379
  312loPI   GL2 4982   7.405  12.782   9.155 -0.1300  0.0054  0.0110
  312loPI   C1A 4983   7.097  12.757   8.741 -0.5055  0.3872 -0.2688
  312loPI   C2A 4984   7.347  12.742   8.431  0.1189 -0.0266 -0.1974
  312loPI   C3A 4985   7.531  12.852   8.045 -0.2153  0.1040  0.0872
  312loPI   C4A 4986   7.492  12.884   7.648 -0.1077 -0.3981  0.1160
  312loPI   C5A 4987   7.936  12.980   7.406  0.0301 -0.0169  0.2168
  312loPI   C6A 4988   8.184  13.245   7.228  0.5745 -0.1064  0.0555
  312loPI   C1B 4989   7.705  12.555   8.813  0.2154  0.1303 -0.2934
  312loPI   C2B 4990   7.846  12.686   8.395  0.1529  0.1281  0.1828
  312loPI   C3B 4991   7.975  12.656   7.974 -0.0717  0.1085 -0.3108
  312loPI   C4B 4992   7.830  12.472   7.658 -0.0093  0.1102 -0.2331
  313loPI    C1 4993   3.712   9.986   9.818  0.0207  0.4835 -0.0595
  313loPI    C2 4994   3.713  10.098  10.202  0.0391  0.1371  0.0456
  313loPI    C3 4995   3.375   9.965  10.034  0.0999  0.0042  0.0283
  313loPI   PO4 4996   3.861  10.136   9.673  0.0217  0.0356 -0.1046
  313loPI   GL1 4997   3.481  10.362   9.359  0.1410 -0.0532  0.0705
  313loPI   GL2 4998   3.817  10.173   9.161  0.0310 -0.0597 -0.0994
  313loPI   C1A 4999   3.401  10.229   8.932  0.0465  0.2691 -0.1445
  313loPI   C2A 5000   3.441  10.348   8.443  0.0809 -0.1189 -0.0943
  313loPI   C3A 5001   3.719  10.572   8.185 -0.4858  0.0841  0.3625
  313loPI   C4A 5002   3.731  10.308   7.800  0.1776  0.2078  0.2932
  313loPI   C5A 5003   3.778   9.907   7.610 -0.2698 -0.1606  0.2119
  313loPI   C6A 5004   3.488   9.542   7.445 -0.3175  0.0154 -0.0573
  313loPI   C1B 5005   4.018   9.939   8.835 -0.1771 -0.2249 -0.1239
  313loPI   C2B 5006   4.104   9.898   8.458 -0.2146 -0.2286 -0.2115
  313loPI   C3B 5007   4.114  10.019   8.056  0.2872 -0.1168  0.2454
  313loPI   C4B 5008   4.268   9.743   7.729  0.2598  0.0064  0.1735
  314loPI    C1 5009  18.353  15.286  10.527 -0.0259 -0.1924 -0.1289
  314loPI    C2 5010  18.479  15.650  10.637  0.0028 -0.1386 -0.3362
  314loPI    C3 5011  18.548  15.335  10.873  0.2811 -0.0647 -0.3155
  314loPI   PO4 5012  18.391  15.249  10.297  0.2727 -0.4205  0.0871
  314loPI   GL1 5013  18.724  15.277   9.786  0.2270  0.1165  0.1154
  314loPI   GL2 5014  18.449  15.370   9.727  0.0702 -0.1441  0.0866
  314loPI   C1A 5015  18.685  15.038   9.387 -0.0596 -0.2418  0.0870
  314loPI   C2A 5016  18.652  15.225   8.978  0.0982 -0.0061 -0.2788
  314loPI   C3A 5017  18.585  15.158   8.613  0.1835 -0.2028  0.2144
  314loPI   C4A 5018  18.392  15.158   8.233  0.2240 -0.1517 -0.2879
  314loPI   C5A 5019  18.387  15.302   7.878  0.0454  0.0048 -0.0145
  314loPI   C6A 5020  18.561  15.407   7.482  0.3006  0.1791 -0.2317
  314loPI   C1B 5021  18.287  15.310   9.350 -0.2431 -0.0643  0.4977
  314loPI   C2B 5022  18.143  15.117   8.944 -0.4026  0.0674  0.4773
  314loPI   C3B 5023  17.976  14.961   8.536  0.1057 -0.2225 -0.0131
  314loPI   C4B 5024  17.777  14.689   8.210  0.1144  0.1649 -0.0085
  315loPI    C1 5025   5.579   5.962   9.785 -0.2314  0.0572 -0.0271
  315loPI    C2 5026   5.548   5.729  10.109  0.2655  0.1511  0.0968
  315loPI    C3 5027   5.395   6.098  10.113 -0.1524 -0.0159  0.0483
  315loPI   PO4 5028   5.492   5.773   9.590  0.1539  0.1289 -0.0684
  315loPI   GL1 5029   5.604   5.532   9.307  0.0486 -0.0464  0.0861
  315loPI   GL2 5030   5.943   5.839   9.380  0.2973  0.0704  0.3771
  315loPI   C1A 5031   5.738   5.280   8.964  0.1076 -0.0628  0.4465
  315loPI   C2A 5032   5.854   5.249   8.466 -0.0562  0.0279 -0.2543
  315loPI   C3A 5033   5.923   5.179   7.975  0.0400  0.0013  0.1205
  315loPI   C4A 5034   6.236   5.417   7.708 -0.2020 -0.1977 -0.5039
  315loPI   C5A 5035   6.548   5.742   7.602  0.2683  0.1450  0.1330
  315loPI   C6A 5036   6.326   6.136   7.704 -0.2548 -0.0251 -0.0565
  315loPI   C1B 5037   5.822   5.833   8.943 -0.0183 -0.2473  0.0801
  315loPI   C2B 5038   5.863   5.784   8.512 -0.1814 -0.3180 -0.1267
  315loPI   C3B 5039   5.836   5.626   8.077 -0.2027 -0.1752  0.1471
  315loPI   C4B 5040   5.829   5.652   7.614  0.1118 -0.2120 -0.0068
  316loPI    C1 5041   2.117  12.163  10.222  0.0267  0.0597 -0.0420
  316loPI    C2 5042   1.756  12.015  10.136  0.0884 -0.2035  0.1402
  316loPI    C3 5043   1.854  12.095  10.516 -0.0920  0.7098  0.0174
  316loPI   PO4 5044   2.212  12.298   9.951  0.1190  0.1969 -0.3418
  316loPI   GL1 5045   1.992  12.608   9.668 -0.5674  0.3951  0.0561
  316loPI   GL2 5046   1.871  12.239   9.633 -0.0078 -0.0861 -0.0226
  316loPI   C1A 5047   2.046  12.944   9.455 -0.3226 -0.0971  0.0967
  316loPI   C2A 5048   1.914  13.005   9.015 -0.0327 -0.4466  0.1016
  316loPI   C3A 5049   1.887  13.057   8.695  0.0504 -0.2012  0.1999
  316loPI   C4A 5050   2.120  12.896   8.322 -0.2745  0.2905 -0.1078
  316loPI   C5A 5051   2.148  12.595   7.945  0.2040  0.1455 -0.0628
  316loPI   C6A 5052   1.786  12.450   7.788  0.0101 -0.3554 -0.0546
  316loPI   C1B 5053   1.583  12.505   9.343 -0.1228 -0.0785  0.0155
  316loPI   C2B 5054   1.544  12.685   8.922 -0.2188  0.3768 -0.2032
  316loPI   C3B 5055   1.665  12.609   8.608  0.0893 -0.3242  0.0524
  316loPI   C4B 5056   1.595  12.503   8.232  0.0249  0.0476  0.2991
  317loPI    C1 5057  14.414   6.276  10.254 -0.0707 -0.1953 -0.1112
  317loPI    C2 5058  14.124   6.002  10.221 -0.4812  0.2137 -0.0008
  317loPI    C3 5059  14.036   6.373  10.343  0.1157  0.3098  0.1695
  317loPI   PO4 5060  14.604   6.110  10.026  0.1742 -0.0950  0.0842
  317loPI   GL1 5061  14.619   6.288   9.640  0.1083  0.1646  0.2717
  317loPI   GL2 5062  14.755   6.456   9.439 -0.1970 -0.1371  0.2901
  317loPI   C1A 5063  14.517   5.974   9.298 -0.2627  0.1129 -0.1918
  317loPI   C2A 5064  14.532   5.619   9.005 -0.0492 -0.5207 -0.1590
  317loPI   C3A 5065  14.372   5.424   8.697  0.0453  0.1421 -0.1073
  317loPI   C4A 5066  14.126   5.385   8.260 -0.0678  0.2478  0.0553
  317loPI   C5A 5067  14.070   5.167   7.953  0.0484  0.0924 -0.1056
  317loPI   C6A 5068  14.147   4.822   7.717 -0.0726  0.1246  0.0944
  317loPI   C1B 5069  14.577   6.681   9.179  0.1850  0.1220 -0.1758
  317loPI   C2B 5070  14.777   6.738   8.892 -0.1421 -0.1273 -0.0165
  317loPI   C3B 5071  15.039   6.783   8.480  0.1705 -0.0443  0.0530
  317loPI   C4B 5072  14.947   6.866   8.121 -0.1873 -0.0841 -0.0384
  318loPI    C1 5073   1.573   2.521  10.084 -0.0254 -0.1636  0.1716
  318loPI    C2 5074   1.550   2.188  10.303 -0.2069  0.0429  0.4730
  318loPI    C3 5075   1.542   2.546  10.482  0.0713  0.2106  0.1600
  318loPI   PO4 5076   1.425   2.492   9.911  0.1639 -0.0237 -0.0950
  318loPI   GL1 5077   1.380   2.432   9.538 -0.0813 -0.0737 -0.1964
  318loPI   GL2 5078   1.338   2.127   9.517 -0.0348  0.2265  0.6851
  318loPI   C1A 5079   1.400   2.587   9.258  0.2684  0.2139 -0.3211
  318loPI   C2A 5080   1.673   2.647   8.814 -0.4562  0.0861 -0.0716
  318loPI   C3A 5081   1.776   2.414   8.455 -0.0789 -0.1260 -0.2444
  318loPI   C4A 5082   1.801   1.991   8.234  0.1786 -0.1583  0.5161
  318loPI   C5A 5083   1.441   1.770   8.197  0.0011  0.0064 -0.0320
  318loPI   C6A 5084   1.178   1.507   8.441 -0.1733  0.0115  0.1612
  318loPI   C1B 5085   1.019   2.289   9.226  0.0282 -0.0104  0.2434
  318loPI   C2B 5086   0.757   2.277   8.814  0.0167 -0.0081  0.1963
  318loPI   C3B 5087   0.682   2.558   8.433  0.3308 -0.0289 -0.2314
  318loPI   C4B 5088   0.463   2.549   8.010  0.2197 -0.1096  0.0054
  319loPI    C1 5089  16.294   9.811  10.516 -0.0755  0.0738  0.0874
  319loPI    C2 5090  16.677   9.811  10.630 -0.0248 -0.0692 -0.0767
  319loPI    C3 5091  16.397   9.967  10.869  0.1347  0.0341  0.0453
  319loPI   PO4 5092  16.243   9.682  10.184  0.2386 -0.0654  0.2814
  319loPI   GL1 5093  16.113   9.751   9.803 -0.1868 -0.2121 -0.1736
  319loPI   GL2 5094  15.891  10.056   9.794 -0.0262 -0.0572 -0.4080
  319loPI   C1A 5095  16.196   9.735   9.479 -0.0721 -0.0336 -0.0511
  319loPI   C2A 5096  16.338   9.687   9.082  0.0236 -0.0586 -0.0441
  319loPI   C3A 5097  16.348   9.369   8.716 -0.0062 -0.4112  0.0024
  319loPI   C4A 5098  16.279   9.140   8.372  0.1035 -0.2492 -0.0249
  319loPI   C5A 5099  16.083   9.008   8.055  0.1387 -0.0713  0.2034
  319loPI   C6A 5100  16.115   9.281   7.750 -0.1798 -0.4807 -0.0937
  319loPI   C1B 5101  15.701  10.088   9.482 -0.2378  0.3182  0.0219
  319loPI   C2B 5102  15.644  10.470   9.337 -0.2527  0.2563 -0.4883
  319loPI   C3B 5103  15.444  10.613   8.865  0.2201  0.3162  0.2454
  319loPI   C4B 5104  15.381  10.537   8.368  0.1496  0.1489 -0.3025
  320loPI    C1 5105   5.858   2.983  10.270 -0.0205 -0.0252 -0.1267
  320loPI    C2 5106   5.484   2.994  10.129 -0.0024 -0.1647 -0.1880
  320loPI    C3 5107   5.551   2.908  10.514 -0.0362 -0.0782 -0.1625
  320loPI   PO4 5108   5.966   2.714  10.189  0.2602 -0.0621  0.1234
  320loPI   GL1 5109   5.856   2.335   9.831 -0.1739 -0.0353 -0.3240
  320loPI   GL2 5110   5.730   2.647   9.745  0.0314  0.2615  0.0602
  320loPI   C1A 5111   5.760   2.281   9.384  0.3782  0.1583 -0.3144
  320loPI   C2A 5112   5.719   2.093   8.979  0.5538  0.1011 -0.0371
  320loPI   C3A 5113   5.528   1.975   8.580 -0.0649  0.0252  0.0892
  320loPI   C4A 5114   5.510   1.779   8.238 -0.1937  0.0396 -0.0673
  320loPI   C5A 5115   5.692   1.541   8.011 -0.2277  0.0234 -0.1728
  320loPI   C6A 5116   5.844   1.533   7.604  0.2391  0.0419  0.0700
  320loPI   C1B 5117   5.411   2.718   9.436 -0.1813 -0.4043 -0.1508
  320loPI   C2B 5118   5.365   2.865   9.067 -0.2162  0.2613  0.0477
  320loPI   C3B 5119   5.394   2.900   8.637 -0.1066 -0.0963 -0.1088
  320loPI   C4B 5120   5.696   3.022   8.470 -0.2352  0.0184  0.2371
  321loPI    C1 5121  14.894   1.589  10.380  0.1714 -0.0146 -0.1180
  321loPI    C2 5122  14.937   1.634  10.775 -0.3036 -0.5165  0.0042
  321loPI    C3 5123  15.218   1.443  10.563  0.1634  0.1296  0.0126
  321loPI   PO4 5124  14.943   1.847  10.225  0.1453 -0.0434 -0.0063
  321loPI   GL1 5125  15.192   1.768   9.883 -0.1873 -0.1094  0.1907
  321loPI   GL2 5126  15.689   1.802   9.856  0.0382  0.0685 -0.1142
  321loPI   C1A 5127  15.208   1.706   9.430 -0.3200 -0.2118  0.1515
  321loPI   C2A 5128  15.137   1.820   8.941  0.0169  0.0830 -0.4625
  321loPI   C3A 5129  15.372   1.983   8.584  0.0255  0.0715 -0.0300
  321loPI   C4A 5130  15.789   1.879   8.376 -0.2307 -0.1430 -0.1452
  321loPI   C5A 5131  16.186   2.094   8.563  0.2670  0.0811  0.0468
  321loPI   C6A 5132  16.297   2.263   8.917  0.1573 -0.2704 -0.0349
  321loPI   C1B 5133  15.609   1.980   9.470  0.3529 -0.2172 -0.0364
  321loPI   C2B 5134  15.588   2.074   9.062 -0.1771 -0.1306 -0.4009
  321loPI   C3B 5135  15.796   2.329   8.774 -0.0660  0.0445 -0.0475
  321loPI   C4B 5136  15.965   2.570   8.414  0.0333 -0.0471 -0.0358
  322loPI    C1 5137   2.067  15.370  10.898  0.0350 -0.1215 -0.0867
  322loPI    C2 5138   2.465  15.329  10.904  0.0379 -0.0829  0.0128
  322loPI    C3 5139   2.257  15.309  11.245 -0.0434 -0.0811 -0.0363
  322loPI   PO4 5140   1.996  15.383  10.622 -0.0182 -0.0744  0.0642
  322loPI   GL1 5141   2.096  15.469  10.148  0.2925  0.1736 -0.0784
  322loPI   GL2 5142   2.010  15.720  10.243  0.1651  0.0493 -0.1564
  322loPI   C1A 5143   2.159  15.463   9.665 -0.0699 -0.0943 -0.1517
  322loPI   C2A 5144   1.857  15.808   9.431 -0.2043  0.0718  0.1141
  322loPI   C3A 5145   1.694  16.108   9.074  0.0471 -0.0973  0.2290
  322loPI   C4A 5146   1.723  15.959   8.670 -0.1139 -0.2025  0.2042
  322loPI   C5A 5147   1.648  15.973   8.269  0.0327 -0.0109  0.1227
  322loPI   C6A 5148   1.474  16.217   7.895 -0.2160  0.0164  0.0325
  322loPI   C1B 5149   1.862  15.846   9.931 -0.0831 -0.1504 -0.1211
  322loPI   C2B 5150   1.630  16.165   9.665  0.0055 -0.0105 -0.0128
  322loPI   C3B 5151   1.543  16.637   9.495  0.0571 -0.0689 -0.1131
  322loPI   C4B 5152   1.364  16.999   9.375 -0.3007  0.1221 -0.1091
  323loPI    C1 5153  15.295   8.425  10.276 -0.0001 -0.0618 -0.0851
  323loPI    C2 5154  14.918   8.342  10.169 -0.0657  0.1981 -0.0626
  323loPI    C3 5155  15.053   8.233  10.530 -0.1117  0.0847 -0.0793
  323loPI   PO4 5156  15.345   8.565  10.096 -0.0546 -0.0186 -0.1785
  323loPI   GL1 5157  15.238   8.311   9.749  0.0288  0.1063  0.3158
  323loPI   GL2 5158  15.227   8.663   9.642  0.0070  0.1644 -0.1359
  323loPI   C1A 5159  15.132   8.102   9.285  0.1314 -0.0521 -0.0318
  323loPI   C2A 5160  14.717   7.904   9.142  0.1320  0.1460 -0.0209
  323loPI   C3A 5161  14.449   7.764   8.867 -0.1266 -0.3210 -0.1981
  323loPI   C4A 5162  14.551   7.595   8.435  0.1381  0.0766  0.2573
  323loPI   C5A 5163  14.519   7.759   8.077  0.0149 -0.1544 -0.1585
  323loPI   C6A 5164  14.399   8.217   7.920 -0.0729 -0.0077 -0.0195
  323loPI   C1B 5165  14.714   8.810   9.580 -0.2386  0.2401 -0.0657
  323loPI   C2B 5166  14.432   8.784   9.159 -0.1452  0.2494 -0.2121
  323loPI   C3B 5167  14.155   8.616   8.709  0.0718  0.0194 -0.0894
  323loPI   C4B 5168  14.086   8.957   8.356 -0.1259 -0.1689  0.1158
  324loPI    C1 5169  15.219  15.691  10.262  0.0511  0.0531 -0.0001
  324loPI    C2 5170  15.310  15.664  10.651  0.0849 -0.0163 -0.0127
  324loPI    C3 5171  14.933  15.737  10.538  0.0404 -0.1774  0.0292
  324loPI   PO4 5172  15.382  15.866  10.094  0.0811 -0.1811 -0.2983
  324loPI   GL1 5173  15.538  16.179   9.882 -0.1139 -0.0486 -0.2708
  324loPI   GL2 5174  15.882  16.178   9.814  0.3948 -0.4521 -0.0903
  324loPI   C1A 5175  15.512  16.007   9.467 -0.3697  0.2560  0.3054
  324loPI   C2A 5176  15.733  15.947   9.100  0.0753  0.2188  0.2619
  324loPI   C3A 5177  16.016  15.851   8.738  0.0085  0.1251 -0.1728
  324loPI   C4A 5178  16.090  15.844   8.327  0.3249  0.1790 -0.2380
  324loPI   C5A 5179  15.938  15.902   7.877 -0.0899  0.0216  0.4302
  324loPI   C6A 5180  15.751  15.680   7.424  0.0883 -0.0370 -0.3563
  324loPI   C1B 5181  16.038  16.286   9.449  0.0077  0.1878 -0.2677
  324loPI   C2B 5182  16.131  16.278   8.999 -0.0867 -0.2971  0.0132
  324loPI   C3B 5183  16.269  16.368   8.526 -0.0746  0.1536  0.0880
  324loPI   C4B 5184  16.433  16.215   8.191 -0.2119 -0.2585  0.1670
  325loPI    C1 5185  10.978  18.444  10.026  0.1141 -0.1081  0.0295
  325loPI    C2 5186  10.860  18.159  10.281 -0.0766  0.1095  0.1881
  325loPI    C3 5187  11.125  18.435  10.398  0.0808  0.0200  0.0462
  325loPI   PO4 5188  10.880  18.331   9.790  0.1009  0.0626  0.0164
  325loPI   GL1 5189  10.920  18.326   9.368 -0.2071  0.1123 -0.2233
  325loPI   GL2 5190  10.700  18.568   9.256 -0.0637  0.2221 -0.0504
  325loPI   C1A 5191  11.159  18.535   9.048  0.0228  0.2247  0.3698
  325loPI   C2A 5192  11.251  18.576   8.644  0.1593 -0.0587 -0.3256
  325loPI   C3A 5193  11.315  18.957   8.410  0.2778  0.1690 -0.0172
  325loPI   C4A 5194  11.387  18.919   7.985  0.0548  0.1432  0.1824
  325loPI   C5A 5195  11.472  18.701   7.517 -0.0240 -0.1532  0.1155
  325loPI   C6A 5196  11.757  18.834   7.108 -0.2441 -0.3888 -0.0257
  325loPI   C1B 5197  10.704  18.446   8.724 -0.3512 -0.0323  0.0751
  325loPI   C2B 5198  10.892  18.354   8.421 -0.2089 -0.1246  0.0014
  325loPI   C3B 5199  11.160  18.268   8.212  0.1351  0.0213  0.0873
  325loPI   C4B 5200  11.541  18.234   7.821  0.2079  0.0711  0.0111
  326loPI    C1 5201   7.123  12.188   9.805 -0.1087  0.0476  0.0818
  326loPI    C2 5202   6.890  11.900   9.955  0.0684 -0.0940  0.0885
  326loPI    C3 5203   7.233  11.995  10.137  0.0361  0.0866  0.0574
  326loPI   PO4 5204   7.115  12.157   9.544 -0.0080 -0.1975 -0.0089
  326loPI   GL1 5205   7.081  12.314   9.155 -0.2690 -0.0052  0.0448
  326loPI   GL2 5206   6.827  12.407   9.085  0.0603  0.2342  0.3484
  326loPI   C1A 5207   7.354  12.200   8.891 -0.0545 -0.1545 -0.3887
  326loPI   C2A 5208   7.530  12.217   8.439  0.1266 -0.0353 -0.1728
  326loPI   C3A 5209   7.575  12.282   8.062 -0.1370 -0.2189 -0.1414
  326loPI   C4A 5210   7.367  12.210   7.602 -0.0823 -0.1847 -0.3167
  326loPI   C5A 5211   7.229  11.838   7.371  0.0664  0.2493 -0.1417
  326loPI   C6A 5212   6.895  11.563   7.448 -0.1685  0.0430  0.1225
  326loPI   C1B 5213   6.617  12.562   8.824  0.0236 -0.0920  0.1875
  326loPI   C2B 5214   6.648  12.659   8.371 -0.3527  0.4539  0.1166
  326loPI   C3B 5215   6.588  12.717   7.906 -0.0713  0.0228  0.0645
  326loPI   C4B 5216   6.662  13.059   7.675  0.1798 -0.1697  0.2936
  327loPI    C1 5217   0.998   7.209  10.223  0.0251 -0.1033  0.4041
  327loPI    C2 5218   0.669   6.992  10.292  0.1077 -0.3089  0.1665
  327loPI    C3 5219   0.985   6.961  10.536 -0.0882 -0.0213  0.4651
  327loPI   PO4 5220   1.007   7.175   9.943  0.1533  0.0811 -0.4381
  327loPI   GL1 5221   1.063   7.101   9.502 -0.1899 -0.1031 -0.2105
  327loPI   GL2 5222   0.823   7.124   9.423  0.4623  0.2071  0.4469
  327loPI   C1A 5223   1.217   7.284   9.106  0.0429  0.2108  0.2760
  327loPI   C2A 5224   1.208   7.183   8.640 -0.1765 -0.0544 -0.1677
  327loPI   C3A 5225   1.273   7.117   8.215  0.0091 -0.2493  0.0241
  327loPI   C4A 5226   1.158   6.981   7.819 -0.0956  0.0689  0.2428
  327loPI   C5A 5227   1.465   6.925   7.555 -0.1257  0.0299  0.1415
  327loPI   C6A 5228   1.465   6.877   7.045 -0.2064 -0.1943  0.0842
  327loPI   C1B 5229   0.783   7.052   8.963 -0.0680  0.1687  0.1151
  327loPI   C2B 5230   0.656   6.959   8.554 -0.3400 -0.1605 -0.1952
  327loPI   C3B 5231   0.538   7.242   8.165  0.0787 -0.3065  0.1021
  327loPI   C4B 5232   0.291   7.523   7.953  0.1072 -0.0455 -0.1030
  328loPI    C1 5233  13.621   2.311   9.924 -0.1462 -0.1461 -0.0063
  328loPI    C2 5234  13.368   2.551  10.120  0.0412  0.1596 -0.1321
  328loPI    C3 5235  13.392   2.164  10.217 -0.1223  0.2312  0.2078
  328loPI   PO4 5236  13.812   2.516   9.818 -0.1738 -0.0133 -0.1008
  328loPI   GL1 5237  13.965   2.554   9.479  0.1483 -0.1427 -0.0778
  328loPI   GL2 5238  13.878   2.876   9.399  0.1314 -0.0790  0.0466
  328loPI   C1A 5239  13.800   2.495   9.055  0.1216 -0.0063 -0.2267
  328loPI   C2A 5240  13.583   2.543   8.694 -0.2254 -0.2091  0.0466
  328loPI   C3A 5241  13.435   2.473   8.289  0.2463 -0.2033 -0.3857
  328loPI   C4A 5242  13.145   2.383   7.930  0.0143  0.1768  0.2345
  328loPI   C5A 5243  12.959   2.758   7.560  0.0512  0.1103 -0.1426
  328loPI   C6A 5244  12.733   2.905   7.185  0.1166  0.0615  0.0156
  328loPI   C1B 5245  14.023   2.959   8.952  0.2087 -0.1499  0.1626
  328loPI   C2B 5246  14.128   3.062   8.563  0.0635 -0.0372  0.1548
  328loPI   C3B 5247  14.188   3.214   8.110 -0.1634 -0.2426  0.0627
  328loPI   C4B 5248  13.957   3.642   7.888  0.1080  0.1704 -0.2339
  329loPI    C1 5249  14.639  10.574  10.768  0.0050 -0.0096  0.0560
  329loPI    C2 5250  14.717  10.280  11.028 -0.1884  0.1208  0.2654
  329loPI    C3 5251  14.412  10.530  11.095 -0.2510  0.1468 -0.0975
  329loPI   PO4 5252  14.590  10.434  10.551  0.0873 -0.0710 -0.2892
  329loPI   GL1 5253  14.394  10.209  10.204  0.1209  0.1234  0.1914
  329loPI   GL2 5254  14.450   9.944   9.962 -0.1891  0.0784  0.0774
  329loPI   C1A 5255  14.259  10.385   9.701  0.0366 -0.2998  0.1646
  329loPI   C2A 5256  14.252  10.186   9.314 -0.1992 -0.0805 -0.2697
  329loPI   C3A 5257  14.213  10.250   8.890 -0.2682  0.1850 -0.0641
  329loPI   C4A 5258  14.322  10.235   8.443  0.1724 -0.1590  0.0161
  329loPI   C5A 5259  14.491  10.133   8.053 -0.0407 -0.2690  0.2885
  329loPI   C6A 5260  14.281   9.951   7.729  0.0308  0.0121  0.2242
  329loPI   C1B 5261  14.666  10.134   9.628  0.0513  0.0808 -0.0097
  329loPI   C2B 5262  14.723  10.087   9.161 -0.0269  0.0114  0.0101
  329loPI   C3B 5263  14.656  10.017   8.786  0.3038 -0.4589  0.0825
  329loPI   C4B 5264  14.780   9.828   8.312  0.0357 -0.0991  0.1205
  330loPI    C1 5265  16.007   1.437  10.422  0.0526  0.2559 -0.0100
  330loPI    C2 5266  16.304   1.658  10.574  0.1297  0.1771 -0.0450
  330loPI    C3 5267  15.924   1.742  10.667  0.1668  0.2353  0.0550
  330loPI   PO4 5268  16.115   1.431  10.133 -0.1043 -0.0148  0.0511
  330loPI   GL1 5269  16.177   1.273   9.700  0.1100 -0.3248 -0.0964
  330loPI   GL2 5270  16.469   1.293   9.733  0.5185 -0.3784  0.2662
  330loPI   C1A 5271  15.907   1.145   9.299  0.1073 -0.0497 -0.1174
  330loPI   C2A 5272  15.985   1.113   8.817  0.1314 -0.2160 -0.1443
  330loPI   C3A 5273  16.217   1.068   8.563 -0.0592  0.0760 -0.3337
  330loPI   C4A 5274  16.276   1.065   8.159 -0.2928  0.0661  0.2200
  330loPI   C5A 5275  16.479   0.986   7.805 -0.1698  0.0417 -0.0016
  330loPI   C6A 5276  16.804   1.243   7.587 -0.1452 -0.2362 -0.1250
  330loPI   C1B 5277  16.455   1.345   9.271  0.0029  0.3984 -0.0812
  330loPI   C2B 5278  16.573   1.380   8.936  0.0087  0.0076  0.1556
  330loPI   C3B 5279  16.622   1.408   8.508  0.2218  0.0670  0.0039
  330loPI   C4B 5280  16.697   1.307   8.134  0.0689  0.0341 -0.0749
  331loPI    C1 5281  17.820  10.299  10.071  0.2014  0.0545 -0.1337
  331loPI    C2 5282  17.742   9.985  10.307 -0.0850  0.1342 -0.1187
  331loPI    C3 5283  17.882  10.325  10.466  0.0768  0.0664 -0.1145
  331loPI   PO4 5284  17.827  10.134   9.810 -0.3007 -0.0454 -0.2612
  331loPI   GL1 5285  17.765   9.868   9.398  0.1984  0.2346 -0.4712
  331loPI   GL2 5286  17.962  10.209   9.366  0.0541 -0.1466 -0.1063
  331loPI   C1A 5287  17.726   9.642   9.061 -0.4525  0.1732  0.0757
  331loPI   C2A 5288  17.734   9.634   8.592 -0.1717  0.0417 -0.1280
  331loPI   C3A 5289  17.678   9.474   8.152  0.0760 -0.1589  0.0105
  331loPI   C4A 5290  17.596   9.174   7.808 -0.1144 -0.0565 -0.0160
  331loPI   C5A 5291  17.553   8.832   7.513 -0.2037  0.2039  0.1734
  331loPI   C6A 5292  17.285   8.521   7.553  0.1627  0.0253  0.0238
  331loPI   C1B 5293  18.154  10.159   8.928 -0.4203  0.0835  0.0369
  331loPI   C2B 5294  18.298   9.785   8.744 -0.0144 -0.1757  0.2408
  331loPI   C3B 5295  18.151   9.699   8.304 -0.3190 -0.1595  0.0172
  331loPI   C4B 5296  18.240   9.881   7.938  0.3400  0.0532 -0.2058
  332loPI    C1 5297  15.842  11.678  10.626  0.0241  0.0712  0.0640
  332loPI    C2 5298  16.171  11.503  10.770 -0.1666 -0.3147  0.0432
  332loPI    C3 5299  15.862  11.578  11.013 -0.0413  0.1151  0.0791
  332loPI   PO4 5300  15.979  11.787  10.346 -0.1619  0.2789 -0.1730
  332loPI   GL1 5301  15.829  11.999   9.942 -0.0434 -0.1333  0.0831
  332loPI   GL2 5302  16.051  12.322   9.889  0.0771 -0.0998  0.1892
  332loPI   C1A 5303  15.746  12.237   9.519 -0.0641 -0.0888  0.3858
  332loPI   C2A 5304  15.911  12.337   9.128 -0.1684  0.5649 -0.1104
  332loPI   C3A 5305  15.892  12.477   8.734  0.0043 -0.2563  0.6366
  332loPI   C4A 5306  15.753  12.888   8.510  0.0166 -0.0481 -0.0771
  332loPI   C5A 5307  15.600  13.187   8.313 -0.4017 -0.1655 -0.0374
  332loPI   C6A 5308  15.097  13.237   8.175 -0.1962  0.0188 -0.0632
  332loPI   C1B 5309  16.431  12.372   9.551 -0.0287  0.3851  0.1794
  332loPI   C2B 5310  16.393  12.410   9.083 -0.3467 -0.2958 -0.0842
  332loPI   C3B 5311  16.318  12.199   8.766  0.2437  0.2698  0.5117
  332loPI   C4B 5312  16.520  12.284   8.380 -0.0630 -0.0856  0.3163
  333loPI    C1 5313   0.373   9.113   9.762  0.2512 -0.0089  0.1283
  333loPI    C2 5314   0.014   8.978   9.875  0.0734  0.2607 -0.1008
  333loPI    C3 5315   0.327   8.948  10.123 -0.0868 -0.0499  0.0693
  333loPI   PO4 5316   0.289   9.342   9.717 -0.0499  0.0895  0.0474
  333loPI   GL1 5317   0.193   9.608   9.366  0.2697 -0.1707 -0.1566
  333loPI   GL2 5318   0.412   9.738   9.322  0.2888  0.1439  0.0143
  333loPI   C1A 5319  -0.040   9.598   9.083 -0.0780  0.3099  0.1310
  333loPI   C2A 5320  -0.080   9.433   8.570  0.0036  0.0379  0.0925
  333loPI   C3A 5321  -0.314   9.287   8.200  0.2535 -0.1928  0.1124
  333loPI   C4A 5322  -0.675   9.162   7.902  0.2098  0.0296 -0.0582
  333loPI   C5A 5323  -0.512   9.014   7.490 -0.0536  0.1678  0.1254
  333loPI   C6A 5324  -0.247   8.760   7.431  0.0266  0.1520 -0.1952
  333loPI   C1B 5325   0.387   9.600   8.869 -0.1791  0.2379  0.1629
  333loPI   C2B 5326   0.399   9.388   8.510 -0.2578  0.0052 -0.0560
  333loPI   C3B 5327   0.230   9.139   8.168  0.0674 -0.4116 -0.2608
  333loPI   C4B 5328  -0.026   8.848   7.941  0.1287 -0.1729 -0.0604
  334loPI    C1 5329  13.841   7.617  10.180 -0.0522  0.1807  0.0056
  334loPI    C2 5330  14.221   7.741  10.167  0.0231 -0.0120  0.2878
  334loPI    C3 5331  13.926   7.991  10.066  0.2128  0.1922  0.2317
  334loPI   PO4 5332  13.860   7.371  10.074 -0.0714 -0.3815  0.1708
  334loPI   GL1 5333  13.790   7.408   9.632 -0.2901 -0.0782 -0.0383
  334loPI   GL2 5334  13.876   7.659   9.698 -0.1184 -0.3563 -0.1466
  334loPI   C1A 5335  13.733   7.282   9.208 -0.3100  0.2560 -0.1080
  334loPI   C2A 5336  13.836   7.588   8.874 -0.4146  0.0967 -0.3173
  334loPI   C3A 5337  13.789   7.618   8.400  0.2297  0.1556  0.0350
  334loPI   C4A 5338  14.066   7.526   8.108  0.0394  0.1390 -0.1250
  334loPI   C5A 5339  14.283   7.406   7.804 -0.0339  0.4274 -0.1700
  334loPI   C6A 5340  14.570   7.550   7.592 -0.0957  0.0456 -0.2195
  334loPI   C1B 5341  14.065   7.678   9.287 -0.0510  0.1096 -0.1656
  334loPI   C2B 5342  14.040   8.015   8.961  0.1447 -0.3050 -0.1084
  334loPI   C3B 5343  14.153   7.980   8.496 -0.0589  0.1835 -0.1741
  334loPI   C4B 5344  14.441   8.337   8.415 -0.0261 -0.2051  0.0165
  335loPI    C1 5345   9.955  15.503   9.994  0.0868 -0.1074 -0.4868
  335loPI    C2 5346  10.257  15.524  10.255  0.0122 -0.1852 -0.3935
  335loPI    C3 5347  10.091  15.860  10.114  0.1524 -0.1420 -0.4581
  335loPI   PO4 5348  10.090  15.161   9.947  0.1527  0.0409 -0.2311
  335loPI   GL1 5349  10.224  14.948   9.540 -0.0857  0.0706 -0.2437
  335loPI   GL2 5350   9.957  14.809   9.617  0.0141  0.0938 -0.0759
  335loPI   C1A 5351  10.509  14.845   9.227  0.0191 -0.1324 -0.0270
  335loPI   C2A 5352  10.805  14.831   8.940 -0.0480  0.0944  0.0426
  335loPI   C3A 5353  10.967  14.861   8.492 -0.2300  0.1735 -0.2763
  335loPI   C4A 5354  11.058  15.013   8.124 -0.2378  0.0503  0.2886
  335loPI   C5A 5355  11.007  15.173   7.715  0.0556 -0.3802  0.3095
  335loPI   C6A 5356  10.631  15.300   7.708 -0.0118 -0.1263 -0.0063
  335loPI   C1B 5357   9.853  14.752   9.165 -0.1861 -0.1380  0.1865
  335loPI   C2B 5358   9.742  14.601   8.781  0.3512  0.1068  0.4733
  335loPI   C3B 5359   9.679  14.637   8.344 -0.0673 -0.3976 -0.0346
  335loPI   C4B 5360   9.757  15.079   8.142 -0.0556 -0.0547  0.0750
  336loPI    C1 5361  12.390   4.621   9.876  0.1673 -0.2761 -0.1295
  336loPI    C2 5362  12.769   4.749   9.881  0.2302 -0.4645  0.0545
  336loPI    C3 5363  12.616   4.564  10.201 -0.1147 -0.1122  0.1009
  336loPI   PO4 5364  12.314   4.681   9.623  0.1363  0.4394 -0.1352
  336loPI   GL1 5365  12.619   4.536   9.418  0.0345 -0.4248  0.1463
  336loPI   GL2 5366  12.724   4.943   9.423 -0.2440  0.2013 -0.1303
  336loPI   C1A 5367  12.341   4.158   9.230  0.2575 -0.0494 -0.3222
  336loPI   C2A 5368  12.447   4.006   8.824 -0.2393 -0.0519  0.2102
  336loPI   C3A 5369  12.513   4.057   8.359 -0.0446 -0.3362  0.1124
  336loPI   C4A 5370  12.508   4.081   7.952 -0.2958 -0.2976  0.1971
  336loPI   C5A 5371  12.804   4.361   7.567  0.4618  0.4354  0.3198
  336loPI   C6A 5372  12.903   4.583   7.214  0.2639  0.1380 -0.2933
  336loPI   C1B 5373  12.462   4.733   8.977 -0.4205  0.0706  0.2241
  336loPI   C2B 5374  12.274   4.464   8.701 -0.3936 -0.2982  0.1111
  336loPI   C3B 5375  12.101   4.341   8.252  0.1029  0.4088  0.0588
  336loPI   C4B 5376  11.757   4.266   7.985  0.0827 -0.2640  0.1541
  337loPI    C1 5377   3.067  12.273  10.092 -0.2300  0.0184 -0.0452
  337loPI    C2 5378   2.963  12.032  10.394 -0.2560 -0.0969 -0.1453
  337loPI    C3 5379   3.327  12.003  10.231 -0.1359  0.1649  0.0674
  337loPI   PO4 5380   2.945  12.237   9.918 -0.1006  0.1181  0.0652
  337loPI   GL1 5381   3.093  12.240   9.450  0.0341 -0.1311 -0.1126
  337loPI   GL2 5382   2.737  12.093   9.407 -0.0270  0.1430  0.1447
  337loPI   C1A 5383   3.103  12.189   8.979 -0.2587 -0.1186 -0.0186
  337loPI   C2A 5384   2.965  11.957   8.656  0.3201 -0.2495  0.0313
  337loPI   C3A 5385   2.951  11.863   8.115 -0.0680 -0.0797  0.2171
  337loPI   C4A 5386   3.180  11.852   7.770 -0.0037 -0.2737  0.1133
  337loPI   C5A 5387   3.469  11.811   7.489 -0.3002  0.2323  0.0162
  337loPI   C6A 5388   3.804  12.002   7.224 -0.1624 -0.1882  0.0349
  337loPI   C1B 5389   2.924  11.732   9.271  0.1471  0.2996  0.3231
  337loPI   C2B 5390   3.052  11.344   9.297 -0.0690  0.0145 -0.1489
  337loPI   C3B 5391   3.294  10.923   9.067 -0.2026 -0.1729  0.3112
  337loPI   C4B 5392   3.376  10.768   8.739  0.0551 -0.0676  0.0917
  338loPI    C1 5393  17.147   6.652  10.211 -0.0028 -0.1771  0.0720
  338loPI    C2 5394  17.038   6.997  10.381  0.1416  0.0085 -0.2035
  338loPI    C3 5395  16.919   6.649  10.540 -0.1950  0.1872 -0.0529
  338loPI   PO4 5396  17.083   6.607   9.975 -0.0898  0.1341 -0.2386
  338loPI   GL1 5397  17.263   6.560   9.581  0.1136 -0.2753 -0.2537
  338loPI   GL2 5398  17.273   6.827   9.491 -0.0302  0.0280  0.1491
  338loPI   C1A 5399  17.315   6.344   9.135 -0.3722 -0.2342 -0.1686
  338loPI   C2A 5400  17.088   6.489   8.772  0.0320 -0.0855  0.1362
  338loPI   C3A 5401  17.014   6.564   8.270 -0.1815  0.2968  0.2170
  338loPI   C4A 5402  17.094   6.678   7.785  0.1471  0.0798  0.0198
  338loPI   C5A 5403  17.133   6.455   7.388  0.2411  0.1159  0.0995
  338loPI   C6A 5404  17.409   6.107   7.471 -0.0859 -0.0005  0.0767
  338loPI   C1B 5405  17.455   6.831   9.119  0.1424 -0.1414 -0.4227
  338loPI   C2B 5406  17.418   6.910   8.681 -0.1450 -0.1600  0.2447
  338loPI   C3B 5407  17.104   7.035   8.415  0.3307 -0.1457  0.1293
  338loPI   C4B 5408  16.771   7.011   8.123 -0.1972  0.1562 -0.1094
  339loPI    C1 5409   8.143  15.284   9.653  0.0967  0.1136 -0.1346
  339loPI    C2 5410   8.085  15.399  10.032 -0.1927 -0.0066 -0.1402
  339loPI    C3 5411   8.399  15.170   9.939 -0.0746  0.0913  0.0118
  339loPI   PO4 5412   8.129  15.561   9.526 -0.0709  0.0630  0.2343
  339loPI   GL1 5413   8.164  15.809   9.258  0.1845 -0.0533  0.3990
  339loPI   GL2 5414   8.443  15.845   9.186  0.1364 -0.0454  0.0814
  339loPI   C1A 5415   7.955  15.760   8.831  0.0358 -0.1342  0.5714
  339loPI   C2A 5416   7.907  15.799   8.422  0.3974 -0.0305 -0.3403
  339loPI   C3A 5417   7.996  15.891   8.075 -0.0301 -0.0548 -0.2875
  339loPI   C4A 5418   7.805  15.620   7.757  0.1364  0.2700 -0.1113
  339loPI   C5A 5419   7.518  15.673   7.372 -0.2741  0.0745  0.3874
  339loPI   C6A 5420   7.369  15.602   7.017  0.1027  0.0883  0.0522
  339loPI   C1B 5421   8.507  16.057   8.728 -0.1629 -0.2314  0.0739
  339loPI   C2B 5422   8.496  16.077   8.279 -0.1750  0.1896  0.2059
  339loPI   C3B 5423   8.683  15.896   7.892 -0.0744  0.2793 -0.0849
  339loPI   C4B 5424   8.664  15.574   7.539  0.0896  0.0997 -0.0180
  340loPI    C1 5425  10.135   0.934   9.885 -0.0790  0.0016 -0.0233
  340loPI    C2 5426  10.447   0.892  10.131 -0.0270 -0.0449 -0.0967
  340loPI    C3 5427  10.425   0.674   9.796 -0.1561 -0.0681 -0.0739
  340loPI   PO4 5428  10.063   1.150   9.900  0.1258  0.0049  0.1040
  340loPI   GL1 5429  10.267   1.451   9.534 -0.0173  0.1141  0.0482
  340loPI   GL2 5430  10.193   1.761   9.443 -0.3074  0.1644 -0.2158
  340loPI   C1A 5431  10.290   1.347   9.151  0.2451 -0.0836 -0.0657
  340loPI   C2A 5432  10.328   0.974   8.874  0.1443  0.0658  0.2065
  340loPI   C3A 5433  10.505   0.863   8.476  0.1576  0.0105 -0.2353
  340loPI   C4A 5434  10.883   0.603   8.366  0.2087 -0.0661  0.0354
  340loPI   C5A 5435  10.961   0.396   7.946  0.0913  0.0863  0.1494
  340loPI   C6A 5436  10.949   0.174   7.653  0.1799 -0.3238 -0.0971
  340loPI   C1B 5437   9.952   1.770   9.181 -0.0214  0.1951 -0.0084
  340loPI   C2B 5438  10.043   2.041   8.753  0.1825 -0.0428  0.3919
  340loPI   C3B 5439   9.964   2.119   8.314  0.1613  0.1151  0.2436
  340loPI   C4B 5440   9.996   2.117   7.877  0.2559  0.0031  0.0417
  341loPI    C1 5441   6.080  10.802   9.745 -0.0619  0.1413  0.1481
  341loPI    C2 5442   6.122  10.515  10.020  0.1040 -0.1945 -0.2191
  341loPI    C3 5443   6.162  10.899  10.125  0.0300 -0.3079  0.2480
  341loPI   PO4 5444   5.908  10.758   9.591 -0.2121  0.1760  0.3442
  341loPI   GL1 5445   5.796  10.973   9.233  0.3416  0.2255 -0.3790
  341loPI   GL2 5446   5.521  10.783   9.240  0.0686 -0.1021  0.0244
  341loPI   C1A 5447   5.917  11.134   8.842 -0.2284 -0.2213 -0.0073
  341loPI   C2A 5448   5.979  10.998   8.438 -0.0433 -0.2895  0.0086
  341loPI   C3A 5449   6.307  10.867   8.180 -0.1660 -0.0089 -0.0237
  341loPI   C4A 5450   6.698  10.834   7.990 -0.1644  0.1453 -0.1596
  341loPI   C5A 5451   6.669  10.751   7.585 -0.0522  0.2614  0.1222
  341loPI   C6A 5452   6.443  10.998   7.221 -0.2871 -0.3338 -0.4738
  341loPI   C1B 5453   5.506  10.857   8.861 -0.2599 -0.3337  0.0688
  341loPI   C2B 5454   5.478  10.990   8.390 -0.2127 -0.2655  0.0485
  341loPI   C3B 5455   5.550  10.973   7.945 -0.0632  0.3031 -0.0859
  341loPI   C4B 5456   5.892  11.027   7.615  0.0340 -0.0816 -0.1844
  342loPI    C1 5457   5.235   4.050  10.030  0.0558 -0.0411 -0.0483
  342loPI    C2 5458   5.543   3.953  10.266  0.0855  0.2825  0.0505
  342loPI    C3 5459   5.169   3.869  10.381  0.1296 -0.0628 -0.0453
  342loPI   PO4 5460   5.331   4.031   9.826  0.2031  0.1235  0.1580
  342loPI   GL1 5461   5.207   3.948   9.513  0.3373 -0.1160  0.3191
  342loPI   GL2 5462   5.476   3.866   9.313 -0.2007  0.2518  0.2528
  342loPI   C1A 5463   5.066   4.240   9.184 -0.2300  0.6887  0.0655
  342loPI   C2A 5464   4.930   4.369   8.857 -0.1826 -0.2775  0.2389
  342loPI   C3A 5465   5.038   4.178   8.420  0.0727  0.0737  0.2555
  342loPI   C4A 5466   4.999   3.891   8.029 -0.3086 -0.2501 -0.3809
  342loPI   C5A 5467   5.029   3.532   8.024  0.3496 -0.2234  0.0316
  342loPI   C6A 5468   5.440   3.579   7.838 -0.1491  0.1421  0.0092
  342loPI   C1B 5469   5.572   3.781   8.905 -0.1152  0.1073 -0.1894
  342loPI   C2B 5470   5.750   3.827   8.546 -0.0608 -0.3248 -0.0485
  342loPI   C3B 5471   5.709   3.922   8.073  0.3073  0.0498 -0.0024
  342loPI   C4B 5472   5.809   3.920   7.578  0.0712  0.0751 -0.1449
  343loPI    C1 5473  11.530   5.771   9.799 -0.0571  0.0486  0.0733
  343loPI    C2 5474  11.532   5.813  10.197 -0.0594  0.1120  0.0667
  343loPI    C3 5475  11.665   6.110   9.965  0.2801 -0.0616  0.0328
  343loPI   PO4 5476  11.412   5.529   9.774  0.1650 -0.0730 -0.0252
  343loPI   GL1 5477  11.088   5.399   9.454  0.0637 -0.1764 -0.4551
  343loPI   GL2 5478  11.313   5.674   9.297 -0.1294  0.0084  0.3874
  343loPI   C1A 5479  10.802   5.261   9.128 -0.1016 -0.0139 -0.1144
  343loPI   C2A 5480  10.553   5.088   8.789  0.1193  0.0678  0.1082
  343loPI   C3A 5481  10.389   4.687   8.324 -0.2337  0.1340  0.4055
  343loPI   C4A 5482  10.459   4.363   7.964 -0.1315  0.2109 -0.0035
  343loPI   C5A 5483  10.855   4.256   7.702  0.0280 -0.0103  0.2712
  343loPI   C6A 5484  10.969   4.512   7.270  0.5280 -0.1898  0.3711
  343loPI   C1B 5485  11.150   5.628   8.911  0.2833 -0.3914 -0.0541
  343loPI   C2B 5486  10.881   5.478   8.651 -0.1540  0.1892  0.0509
  343loPI   C3B 5487  11.004   5.515   8.422  0.2360  0.0131  0.3780
  343loPI   C4B 5488  10.821   5.782   8.121  0.5166  0.2386  0.1676
  344loPI    C1 5489  17.079   9.278  10.078 -0.1547  0.1490  0.0417
  344loPI    C2 5490  17.379   9.498  10.224 -0.2436  0.2154  0.1261
  344loPI    C3 5491  17.053   9.432  10.446 -0.3496  0.2569 -0.0153
  344loPI   PO4 5492  17.270   9.133   9.840  0.3681  0.0966 -0.5108
  344loPI   GL1 5493  17.380   8.964   9.507  0.1356 -0.1260 -0.2018
  344loPI   GL2 5494  17.275   8.598   9.584  0.1706 -0.0956  0.3676
  344loPI   C1A 5495  17.264   9.239   9.049 -0.0813  0.0373  0.0132
  344loPI   C2A 5496  17.193   9.583   8.820  0.0310  0.4614 -0.2576
  344loPI   C3A 5497  17.274   9.944   8.575 -0.3495 -0.1446 -0.0469
  344loPI   C4A 5498  17.451   9.951   8.201  0.2533 -0.3214 -0.0120
  344loPI   C5A 5499  17.680   9.970   7.827  0.0411 -0.0934  0.1238
  344loPI   C6A 5500  18.046  10.304   7.771 -0.1827  0.1314  0.2349
  344loPI   C1B 5501  17.466   8.632   9.057 -0.2948  0.0432 -0.2494
  344loPI   C2B 5502  17.530   8.529   8.577 -0.0548  0.0129 -0.0275
  344loPI   C3B 5503  17.384   8.449   8.130  0.0333 -0.0778 -0.1712
  344loPI   C4B 5504  16.981   8.428   7.865  0.1026  0.4164 -0.0006
  345loPI    C1 5505   3.121   7.153   9.937  0.1325 -0.1133  0.1042
  345loPI    C2 5506   3.446   7.018  10.128  0.2947  0.1860  0.0471
  345loPI    C3 5507   3.295   7.377  10.219  0.0386  0.0927  0.0009
  345loPI   PO4 5508   3.129   7.173   9.690  0.1167  0.1471 -0.2485
  345loPI   GL1 5509   3.190   7.449   9.343  0.3922  0.3188  0.0884
  345loPI   GL2 5510   3.423   7.258   9.285 -0.0300 -0.1129  0.0689
  345loPI   C1A 5511   3.036   7.657   9.006 -0.1755 -0.3393 -0.2849
  345loPI   C2A 5512   3.111   7.617   8.597 -0.3865 -0.2092  0.1398
  345loPI   C3A 5513   3.219   7.701   8.171 -0.4178  0.0899 -0.0939
  345loPI   C4A 5514   2.985   7.804   7.777  0.4298 -0.1339  0.0437
  345loPI   C5A 5515   2.837   8.009   7.377  0.0790 -0.0659 -0.0325
  345loPI   C6A 5516   2.597   7.913   6.931 -0.0314 -0.0194 -0.2140
  345loPI   C1B 5517   3.384   7.148   8.943  0.0003  0.2609  0.1021
  345loPI   C2B 5518   3.499   7.330   8.613 -0.1280 -0.1375 -0.0401
  345loPI   C3B 5519   3.643   7.318   8.275  0.3173 -0.0995  0.3585
  345loPI   C4B 5520   3.545   7.441   7.761 -0.1560  0.2927  0.2974
  346loPI    C1 5521   7.780   1.489  10.243  0.0660 -0.1580 -0.2096
  346loPI    C2 5522   7.736   1.190  10.505  0.0366 -0.0867 -0.1328
  346loPI    C3 5523   8.100   1.284  10.368  0.0786  0.0083  0.0396
  346loPI   PO4 5524   7.643   1.454  10.076 -0.0375  0.1097  0.1993
  346loPI   GL1 5525   7.423   1.366   9.645  0.1073  0.0019  0.1328
  346loPI   GL2 5526   7.749   1.384   9.532 -0.0463  0.2393 -0.2002
  346loPI   C1A 5527   7.370   1.194   9.210  0.1719 -0.0428 -0.0379
  346loPI   C2A 5528   7.338   1.367   8.812  0.0726  0.2683 -0.0825
  346loPI   C3A 5529   7.526   1.617   8.524 -0.0058 -0.2369  0.2080
  346loPI   C4A 5530   7.457   1.772   8.190 -0.2467  0.1321 -0.3449
  346loPI   C5A 5531   7.433   2.162   8.035  0.2291  0.0347  0.1608
  346loPI   C6A 5532   7.336   2.376   7.727 -0.2663 -0.1190  0.1532
  346loPI   C1B 5533   8.171   1.540   9.322 -0.1168 -0.0712  0.1490
  346loPI   C2B 5534   8.327   1.225   9.022 -0.0484  0.0797  0.2169
  346loPI   C3B 5535   8.135   1.341   8.724  0.0589 -0.0116 -0.0935
  346loPI   C4B 5536   8.057   1.626   8.329 -0.0450  0.0294  0.0295
  347loPI    C1 5537   7.828  11.606   9.701  0.1792  0.0225 -0.0828
  347loPI    C2 5538   7.681  11.751  10.044  0.0181  0.0549 -0.1642
  347loPI    C3 5539   8.049  11.593  10.034  0.0098  0.0213  0.0309
  347loPI   PO4 5540   7.647  11.380   9.641  0.0828  0.0461 -0.4930
  347loPI   GL1 5541   7.241  11.160   9.300  0.1956  0.0842 -0.3609
  347loPI   GL2 5542   7.516  11.009   9.316 -0.1084  0.0660  0.0722
  347loPI   C1A 5543   7.157  11.151   8.947  0.0582  0.0691  0.1047
  347loPI   C2A 5544   7.336  11.104   8.561 -0.3686 -0.3178  0.4792
  347loPI   C3A 5545   7.402  11.400   8.208 -0.0441 -0.0292 -0.1000
  347loPI   C4A 5546   7.494  11.581   7.735  0.2000  0.1927 -0.1327
  347loPI   C5A 5547   7.690  11.664   7.307  0.0796  0.0443  0.1976
  347loPI   C6A 5548   7.706  12.085   7.197 -0.0492  0.3006 -0.0339
  347loPI   C1B 5549   7.668  10.894   8.818  0.1167 -0.3371  0.1068
  347loPI   C2B 5550   7.783  10.872   8.312 -0.0078  0.1158 -0.2289
  347loPI   C3B 5551   7.897  11.311   7.997  0.2586 -0.0298  0.0566
  347loPI   C4B 5552   7.972  11.467   7.643 -0.2247  0.1694 -0.1706
  348loPI    C1 5553  16.078   6.116  10.101 -0.0532  0.0456 -0.2367
  348loPI    C2 5554  15.950   6.471  10.233 -0.0395 -0.0658  0.0840
  348loPI    C3 5555  16.100   6.203  10.490  0.1100 -0.2395 -0.1788
  348loPI   PO4 5556  16.058   6.210   9.847  0.1869  0.2047 -0.0795
  348loPI   GL1 5557  15.986   6.376   9.521 -0.0723  0.1584  0.2992
  348loPI   GL2 5558  15.719   6.461   9.329  0.3802 -0.0161 -0.4232
  348loPI   C1A 5559  16.319   6.373   9.259  0.1874 -0.0886 -0.0085
  348loPI   C2A 5560  16.565   6.378   8.949  0.2321 -0.1101  0.2553
  348loPI   C3A 5561  16.652   6.318   8.566 -0.0844 -0.0102 -0.0123
  348loPI   C4A 5562  16.779   6.036   8.258 -0.1099  0.0783 -0.1538
  348loPI   C5A 5563  16.722   5.806   7.824 -0.0309  0.1364 -0.2631
  348loPI   C6A 5564  16.764   5.515   7.395  0.3616 -0.0926 -0.0615
  348loPI   C1B 5565  15.911   6.369   9.015  0.2946  0.0035 -0.0792
  348loPI   C2B 5566  16.121   6.283   8.669  0.0794 -0.0442  0.1972
  348loPI   C3B 5567  16.305   6.493   8.262 -0.0266 -0.3522 -0.0105
  348loPI   C4B 5568  16.398   6.625   7.889 -0.1292  0.0267  0.0652
  349loPI    C1 5569  13.395  15.396  10.198  0.0525 -0.1107 -0.1765
  349loPI    C2 5570  13.711  15.220  10.368  0.1567  0.1672 -0.0766
  349loPI    C3 5571  13.428  15.386  10.597 -0.0846 -0.1153 -0.1649
  349loPI   PO4 5572  13.407  15.292   9.913  0.0607  0.2660  0.2169
  349loPI   GL1 5573  13.425  15.422   9.490  0.1723  0.0337  0.0884
  349loPI   GL2 5574  13.111  15.590   9.320 -0.1006 -0.1358  0.0846
  349loPI   C1A 5575  13.845  15.442   9.239 -0.2749 -0.3337 -0.1683
  349loPI   C2A 5576  14.056  15.640   8.994 -0.0513  0.1613 -0.1864
  349loPI   C3A 5577  14.167  15.707   8.691 -0.0333 -0.1838  0.0737
  349loPI   C4A 5578  14.205  15.827   8.361 -0.2448 -0.0801 -0.3359
  349loPI   C5A 5579  13.871  15.838   7.933  0.0607 -0.3669 -0.3910
  349loPI   C6A 5580  13.664  15.498   7.694  0.1114  0.2133  0.1580
  349loPI   C1B 5581  13.365  15.429   8.976 -0.0821 -0.0969 -0.1811
  349loPI   C2B 5582  13.715  15.465   8.623  0.0967 -0.0040 -0.1041
  349loPI   C3B 5583  13.928  15.434   8.215 -0.3521 -0.4472  0.0221
  349loPI   C4B 5584  14.138  15.122   7.945 -0.0422 -0.2466  0.1070
  350loPI    C1 5585   6.365   7.426   9.804 -0.0212 -0.1926  0.1515
  350loPI    C2 5586   6.358   7.756   9.579  0.0108 -0.3081 -0.0209
  350loPI    C3 5587   6.308   7.783   9.975 -0.0963 -0.1085 -0.0466
  350loPI   PO4 5588   6.554   7.312   9.746 -0.0392 -0.2276  0.0301
  350loPI   GL1 5589   6.830   7.416   9.477 -0.3627 -0.1514  0.1209
  350loPI   GL2 5590   7.049   7.192   9.339  0.1540 -0.0768  0.1326
  350loPI   C1A 5591   6.631   7.456   9.053 -0.1147 -0.0645 -0.3934
  350loPI   C2A 5592   6.845   7.707   8.702  0.0678 -0.1270 -0.1436
  350loPI   C3A 5593   6.959   7.703   8.303  0.2832 -0.0780  0.3074
  350loPI   C4A 5594   7.179   7.696   8.010 -0.0095 -0.0661  0.1997
  350loPI   C5A 5595   7.013   7.515   7.679  0.0249 -0.2158 -0.0650
  350loPI   C6A 5596   7.179   7.271   7.273  0.0656 -0.0179  0.6334
  350loPI   C1B 5597   7.065   7.197   8.831 -0.0564 -0.2467  0.0146
  350loPI   C2B 5598   6.807   7.233   8.459 -0.0480  0.0168 -0.6552
  350loPI   C3B 5599   6.765   6.890   8.244 -0.2157 -0.2768  0.0575
  350loPI   C4B 5600   6.833   6.614   7.900 -0.2650  0.0232 -0.1122
  351loPI    C1 5601  10.964  12.744  10.218  0.0914  0.1835  0.0725
  351loPI    C2 5602  10.815  13.098  10.333 -0.0272  0.1154  0.1304
  351loPI    C3 5603  10.864  12.804  10.600 -0.2072 -0.0098  0.0281
  351loPI   PO4 5604  11.166  12.863  10.074  0.3139  0.0658 -0.1660
  351loPI   GL1 5605  10.898  13.177   9.814 -0.1303  0.0824 -0.1008
  351loPI   GL2 5606  10.532  13.144   9.726  0.2075 -0.0476  0.0040
  351loPI   C1A 5607  10.864  13.153   9.323 -0.1600 -0.1175 -0.5723
  351loPI   C2A 5608  11.018  13.132   8.920 -0.1189 -0.2085  0.0062
  351loPI   C3A 5609  11.029  13.340   8.440  0.2104 -0.2101 -0.1710
  351loPI   C4A 5610  11.071  13.243   7.992 -0.2645  0.3397  0.0773
  351loPI   C5A 5611  10.928  12.896   7.658  0.0870 -0.3754  0.0901
  351loPI   C6A 5612  10.870  12.476   7.433 -0.2155 -0.2546  0.2718
  351loPI   C1B 5613  10.528  12.840   9.380 -0.0849  0.0338 -0.1166
  351loPI   C2B 5614  10.611  12.799   8.993  0.1105  0.0168  0.0021
  351loPI   C3B 5615  10.418  12.695   8.655  0.1801  0.0733  0.0976
  351loPI   C4B 5616  10.401  12.516   8.366  0.0287  0.5118  0.1878
  352loPI    C1 5617  17.432   8.125   9.869 -0.1179  0.0062  0.1976
  352loPI    C2 5618  17.587   8.122  10.238  0.0708  0.1231  0.1208
  352loPI    C3 5619  17.190   8.133  10.188  0.0266 -0.3289  0.3208
  352loPI   PO4 5620  17.571   8.239   9.748  0.3691 -0.2045 -0.0063
  352loPI   GL1 5621  17.958   8.332   9.507 -0.1357  0.0992 -0.5856
  352loPI   GL2 5622  18.059   7.983   9.379 -0.1392 -0.0582  0.0228
  352loPI   C1A 5623  17.964   8.446   9.141  0.1909 -0.1820  0.2024
  352loPI   C2A 5624  17.986   8.494   8.684  0.0314  0.2060  0.1389
  352loPI   C3A 5625  17.907   8.377   8.207 -0.0931  0.0853 -0.0144
  352loPI   C4A 5626  17.910   8.197   7.812 -0.1986 -0.0536 -0.0535
  352loPI   C5A 5627  17.713   8.126   7.392  0.1038  0.0027  0.2769
  352loPI   C6A 5628  17.340   7.846   7.258 -0.0130 -0.0396  0.1491
  352loPI   C1B 5629  18.065   7.988   8.876 -0.1220  0.0643 -0.1056
  352loPI   C2B 5630  18.029   7.727   8.462 -0.1682 -0.2279  0.0596
  352loPI   C3B 5631  18.050   7.700   8.005  0.0118  0.0701  0.1305
  352loPI   C4B 5632  18.167   7.414   7.556 -0.2816 -0.2172 -0.3161
  353loPI    C1 5633   3.043  10.723  10.026 -0.0772  0.0690 -0.0115
  353loPI    C2 5634   3.038  10.969  10.342  0.0223 -0.0533  0.0863
  353loPI    C3 5635   3.386  10.863  10.177 -0.0205 -0.1258  0.0420
  353loPI   PO4 5636   2.740  10.626   9.990  0.0615  0.1314  0.1143
  353loPI   GL1 5637   2.593  10.653   9.669  0.1347  0.0331 -0.1604
  353loPI   GL2 5638   2.300  10.333   9.604 -0.0007  0.1543 -0.1799
  353loPI   C1A 5639   2.678  11.043   9.463  0.2762 -0.0984 -0.0296
  353loPI   C2A 5640   2.783  10.948   8.979 -0.0581  0.0481 -0.3973
  353loPI   C3A 5641   2.809  11.061   8.627  0.0683 -0.0336  0.2748
  353loPI   C4A 5642   2.676  11.188   8.122 -0.0079 -0.1651 -0.0820
  353loPI   C5A 5643   2.617  11.473   7.757  0.0198  0.1817  0.0358
  353loPI   C6A 5644   2.126  11.682   7.786 -0.1279 -0.2304 -0.0296
  353loPI   C1B 5645   2.531  10.098   9.292 -0.1175  0.3266 -0.2237
  353loPI   C2B 5646   2.724  10.056   8.912  0.1973  0.0280 -0.1095
  353loPI   C3B 5647   2.984   9.961   8.581 -0.1067  0.0508  0.0605
  353loPI   C4B 5648   3.064  10.110   8.126 -0.1621  0.0385 -0.0728
  354loPI    C1 5649   8.511  18.673   9.744 -0.0915  0.1612 -0.0206
  354loPI    C2 5650   8.734  18.631  10.073  0.0717  0.1999 -0.1252
  354loPI    C3 5651   8.572  18.309   9.899  0.3606  0.1260 -0.2642
  354loPI   PO4 5652   8.583  18.751   9.553 -0.2250  0.1964  0.1981
  354loPI   GL1 5653   8.959  18.794   9.290 -0.1808 -0.1044 -0.0716
  354loPI   GL2 5654   8.838  19.128   9.282 -0.2469 -0.2263 -0.0214
  354loPI   C1A 5655   8.864  18.792   8.914  0.0687 -0.5785 -0.3963
  354loPI   C2A 5656   8.892  18.866   8.458  0.1346 -0.0898 -0.2105
  354loPI   C3A 5657   8.894  19.024   8.151 -0.1881 -0.2492  0.1624
  354loPI   C4A 5658   8.819  18.965   7.746 -0.1522  0.0879 -0.2932
  354loPI   C5A 5659   8.844  18.871   7.337 -0.0297 -0.2560 -0.0337
  354loPI   C6A 5660   8.710  18.949   6.917  0.1465  0.0070  0.0432
  354loPI   C1B 5661   8.902  19.310   8.960 -0.1456  0.4212 -0.0818
  354loPI   C2B 5662   8.862  19.372   8.511 -0.0055 -0.1168 -0.1047
  354loPI   C3B 5663   8.759  19.489   8.071 -0.0869 -0.5056 -0.0026
  354loPI   C4B 5664   8.936  19.858   7.904 -0.0018  0.2162  0.0395
  355loPI    C1 5665  15.391  16.842  10.329  0.0604 -0.0163 -0.2938
  355loPI    C2 5666  15.657  16.565  10.218  0.1470 -0.1584  0.2394
  355loPI    C3 5667  15.770  16.947  10.258  0.1618 -0.1413  0.0452
  355loPI   PO4 5668  15.177  16.821  10.157  0.2538  0.3406  0.1523
  355loPI   GL1 5669  15.370  16.700   9.749 -0.1444  0.0312 -0.1175
  355loPI   GL2 5670  15.691  16.685   9.684 -0.2273  0.2002  0.0354
  355loPI   C1A 5671  15.323  16.487   9.366 -0.1833 -0.1938  0.1643
  355loPI   C2A 5672  15.612  16.404   8.964  0.0544 -0.2236  0.4205
  355loPI   C3A 5673  15.800  16.280   8.577 -0.0903  0.0300  0.0738
  355loPI   C4A 5674  15.909  16.349   8.181 -0.2102 -0.1979 -0.1629
  355loPI   C5A 5675  16.066  16.362   7.783 -0.0235 -0.0804  0.2933
  355loPI   C6A 5676  16.282  16.569   7.467 -0.1864 -0.2282 -0.1224
  355loPI   C1B 5677  15.716  16.727   9.248  0.0538 -0.2841 -0.1463
  355loPI   C2B 5678  15.884  16.888   8.812  0.1271  0.1245 -0.0889
  355loPI   C3B 5679  15.940  16.822   8.425  0.1221 -0.0329  0.0409
  355loPI   C4B 5680  15.908  16.829   8.013  0.2921 -0.1792 -0.2253
  356loPI    C1 5681   8.878  16.471   9.682  0.1345  0.1851  0.1644
  356loPI    C2 5682   8.828  16.104   9.833  0.2384  0.0476 -0.1267
  356loPI    C3 5683   8.733  16.426  10.052  0.4197 -0.1423  0.2405
  356loPI   PO4 5684   9.106  16.442   9.615  0.1923 -0.0944  0.2667
  356loPI   GL1 5685   9.374  16.265   9.455  0.0683  0.5861  0.0759
  356loPI   GL2 5686   9.460  15.975   9.273  0.6775  0.0266 -0.0628
  356loPI   C1A 5687   9.234  16.327   8.990 -0.1617  0.1739 -0.1505
  356loPI   C2A 5688   9.039  16.187   8.691  0.2656  0.2074  0.2246
  356loPI   C3A 5689   9.054  16.082   8.213 -0.0960 -0.2118 -0.1282
  356loPI   C4A 5690   9.062  16.236   7.749 -0.1436  0.0224 -0.1080
  356loPI   C5A 5691   8.797  16.230   7.495 -0.3099  0.0794  0.1969
  356loPI   C6A 5692   8.545  16.305   7.149  0.1522 -0.0575  0.1446
  356loPI   C1B 5693   9.556  16.041   8.778 -0.0093  0.2398 -0.0450
  356loPI   C2B 5694   9.589  16.180   8.310  0.2590  0.1335  0.1939
  356loPI   C3B 5695   9.497  16.035   7.830 -0.2856  0.1942  0.2032
  356loPI   C4B 5696   9.364  15.953   7.428  0.1528 -0.0376  0.1893
  357loPI    C1 5697  11.805   7.425  10.195 -0.1950 -0.0788 -0.0350
  357loPI    C2 5698  11.954   7.169   9.925  0.2790  0.1068  0.0400
  357loPI    C3 5699  11.827   7.035  10.280  0.0337 -0.0858 -0.1172
  357loPI   PO4 5700  11.726   7.618   9.980 -0.0230  0.2379  0.1846
  357loPI   GL1 5701  11.718   7.463   9.583 -0.3557  0.0365 -0.0673
  357loPI   GL2 5702  11.615   7.781   9.550  0.0674 -0.1289 -0.1063
  357loPI   C1A 5703  12.106   7.319   9.300  0.1199 -0.2512  0.3190
  357loPI   C2A 5704  12.467   7.551   9.088  0.0286  0.5110 -0.2151
  357loPI   C3A 5705  12.365   7.747   8.690 -0.0600  0.2510  0.4247
  357loPI   C4A 5706  12.268   7.576   8.340 -0.2275  0.0472 -0.0069
  357loPI   C5A 5707  12.020   7.746   7.977  0.0320  0.0468 -0.3154
  357loPI   C6A 5708  12.188   7.760   7.550  0.2053  0.1722  0.0485
  357loPI   C1B 5709  11.437   7.777   9.124 -0.2012 -0.0048  0.0977
  357loPI   C2B 5710  11.420   8.093   8.781 -0.1430  0.1941 -0.1366
  357loPI   C3B 5711  11.605   8.271   8.461  0.2541  0.3020 -0.4397
  357loPI   C4B 5712  11.755   8.517   8.105 -0.0989  0.0570  0.0079
  358loPI    C1 5713  16.519  16.707  10.568  0.0872  0.1948  0.0737
  358loPI    C2 5714  16.345  16.979  10.331 -0.1721 -0.1725 -0.1677
  358loPI    C3 5715  16.137  16.663  10.461  0.1195 -0.2516  0.1237
  358loPI   PO4 5716  16.718  16.594  10.487  0.0222 -0.3775  0.2844
  358loPI   GL1 5717  16.934  16.670  10.111 -0.1662  0.2839  0.1556
  358loPI   GL2 5718  16.625  16.787   9.984  0.0653  0.1151 -0.2749
  358loPI   C1A 5719  16.978  16.440   9.692 -0.2472  0.0666 -0.1371
  358loPI   C2A 5720  17.363  16.369   9.545 -0.3329 -0.3383 -0.1916
  358loPI   C3A 5721  17.509  16.278   9.192  0.0188 -0.1380 -0.3201
  358loPI   C4A 5722  17.728  16.217   8.906  0.1618  0.2435 -0.1023
  358loPI   C5A 5723  17.922  16.163   8.609 -0.0822  0.0980  0.0378
  358loPI   C6A 5724  18.075  16.329   8.226 -0.0377 -0.0168 -0.0105
  358loPI   C1B 5725  16.375  16.693   9.596  0.2217 -0.2205 -0.3958
  358loPI   C2B 5726  16.172  16.896   9.274  0.1224  0.0116  0.1773
  358loPI   C3B 5727  16.060  17.094   9.385  0.1620 -0.4458 -0.1544
  358loPI   C4B 5728  15.701  17.194   9.401  0.0348 -0.4557 -0.1187
  359loPI    C1 5729   5.498  15.261  10.127  0.0823 -0.1458 -0.3040
  359loPI    C2 5730   5.657  15.578   9.941  0.2717 -0.1130 -0.0902
  359loPI    C3 5731   5.577  15.595  10.333  0.1877 -0.2954 -0.0982
  359loPI   PO4 5732   5.234  15.252   9.885  0.2951  0.1988 -0.0986
  359loPI   GL1 5733   5.131  15.040   9.435  0.3095 -0.2048  0.0399
  359loPI   GL2 5734   5.380  14.827   9.519 -0.0601 -0.0422  0.0357
  359loPI   C1A 5735   5.275  15.289   9.124  0.0049  0.1916 -0.1173
  359loPI   C2A 5736   5.219  15.578   8.890  0.0333 -0.0425  0.0301
  359loPI   C3A 5737   5.072  15.515   8.452 -0.3289 -0.1810 -0.0560
  359loPI   C4A 5738   4.896  15.283   8.150 -0.1465  0.2059  0.2352
  359loPI   C5A 5739   4.586  14.953   8.025  0.0175 -0.3063  0.1133
  359loPI   C6A 5740   4.269  15.106   7.793  0.0957 -0.2602  0.1358
  359loPI   C1B 5741   5.526  14.828   9.009  0.0175  0.0440 -0.2035
  359loPI   C2B 5742   5.505  15.096   8.784 -0.1488 -0.1283  0.1003
  359loPI   C3B 5743   5.444  15.237   8.302  0.1768  0.0523 -0.0032
  359loPI   C4B 5744   5.277  15.573   7.995  0.0271 -0.0715  0.4503
  360loPI    C1 5745   0.602   5.949  10.503  0.0293  0.1785 -0.3404
  360loPI    C2 5746   0.229   6.040  10.391 -0.0719  0.0838 -0.0864
  360loPI    C3 5747   0.300   5.908  10.763  0.1955 -0.0292 -0.1754
  360loPI   PO4 5748   0.657   5.829  10.226  0.3099  0.1065 -0.1525
  360loPI   GL1 5749   0.584   5.666   9.779  0.1637 -0.2614 -0.1355
  360loPI   GL2 5750   0.234   5.878   9.840  0.1321 -0.2312  0.2511
  360loPI   C1A 5751   0.732   5.693   9.326  0.1603 -0.0379 -0.0475
  360loPI   C2A 5752   0.730   6.055   9.078 -0.1559  0.0385  0.1310
  360loPI   C3A 5753   0.356   6.151   8.863 -0.1614  0.1835 -0.0770
  360loPI   C4A 5754   0.141   5.985   8.517 -0.0498  0.0125  0.0269
  360loPI   C5A 5755   0.078   5.757   8.109 -0.0342  0.0192  0.1932
  360loPI   C6A 5756   0.072   5.647   7.644 -0.2128  0.0521  0.1098
  360loPI   C1B 5757   0.240   5.938   9.406 -0.1561 -0.0051  0.0687
  360loPI   C2B 5758   0.341   5.682   8.953 -0.0700  0.0064  0.0454
  360loPI   C3B 5759   0.465   5.670   8.552 -0.2978 -0.3531  0.0516
  360loPI   C4B 5760   0.613   5.936   8.278 -0.0088 -0.0852  0.3246
  361loPI    C1 5761  14.413   1.610  10.021 -0.2931  0.0421  0.1530
  361loPI    C2 5762  14.367   1.958  10.212  0.0870  0.0398  0.2563
  361loPI    C3 5763  14.375   1.616  10.419 -0.2198 -0.0276  0.1614
  361loPI   PO4 5764  14.249   1.644   9.840  0.1165  0.0696  0.0488
  361loPI   GL1 5765  14.210   1.471   9.465 -0.1910 -0.0895  0.0723
  361loPI   GL2 5766  13.814   1.506   9.561 -0.0896  0.0583  0.0000
  361loPI   C1A 5767  14.332   1.531   8.968 -0.1245 -0.1873  0.5591
  361loPI   C2A 5768  14.646   1.770   8.674  0.2560  0.0829  0.2189
  361loPI   C3A 5769  14.697   1.791   8.206  0.0051  0.1845 -0.3896
  361loPI   C4A 5770  14.920   1.475   7.910  0.0619 -0.1108 -0.0728
  361loPI   C5A 5771  14.786   1.267   7.600  0.0606 -0.3843  0.1914
  361loPI   C6A 5772  14.719   0.999   7.313  0.2874 -0.0753  0.0744
  361loPI   C1B 5773  13.835   1.423   9.160 -0.2358  0.1504 -0.2182
  361loPI   C2B 5774  13.876   1.606   8.736 -0.1066 -0.1017  0.1026
  361loPI   C3B 5775  14.206   1.668   8.464  0.3340 -0.0459  0.2862
  361loPI   C4B 5776  14.204   1.940   8.167 -0.2491  0.0355 -0.0276
  362loPI    C1 5777   1.726  14.341  10.842 -0.0307  0.0786  0.0886
  362loPI    C2 5778   2.080  14.466  10.981  0.0931 -0.3077  0.1311
  362loPI    C3 5779   1.743  14.561  11.175  0.1708  0.0575  0.0934
  362loPI   PO4 5780   1.753  14.456  10.561  0.0219 -0.0973  0.0831
  362loPI   GL1 5781   1.803  14.594  10.222  0.0052 -0.1946  0.3506
  362loPI   GL2 5782   2.062  14.418  10.148 -0.0970 -0.3219 -0.0079
  362loPI   C1A 5783   1.586  14.446   9.902 -0.2874  0.0935 -0.1181
  362loPI   C2A 5784   1.737  14.335   9.512  0.0355  0.0793  0.1232
  362loPI   C3A 5785   1.703  14.257   9.051  0.1608 -0.0332  0.3050
  362loPI   C4A 5786   1.759  14.013   8.625  0.1063 -0.1707  0.0892
  362loPI   C5A 5787   1.879  14.253   8.251  0.1477 -0.1052  0.0111
  362loPI   C6A 5788   1.753  14.654   8.042 -0.0489  0.1752 -0.0263
  362loPI   C1B 5789   2.130  14.541   9.815  0.1640  0.2487 -0.3051
  362loPI   C2B 5790   1.885  14.893   9.620  0.2128 -0.1399  0.1784
  362loPI   C3B 5791   1.994  15.080   9.330 -0.3898 -0.0619  0.2393
  362loPI   C4B 5792   2.104  15.413   9.042 -0.1192 -0.0790 -0.0525
  363loPI    C1 5793  18.573   9.875  10.063  0.0842  0.0998 -0.0913
  363loPI    C2 5794  18.200   9.735  10.025  0.1644 -0.1478  0.0095
  363loPI    C3 5795  18.262  10.109  10.154 -0.0508 -0.0569 -0.1447
  363loPI   PO4 5796  18.713   9.943   9.850  0.3367  0.4456  0.1028
  363loPI   GL1 5797  18.709  10.088   9.401 -0.4535 -0.1394  0.1473
  363loPI   GL2 5798  18.457  10.346   9.360  0.2213  0.2918 -0.0708
  363loPI   C1A 5799  18.671  10.053   8.888 -0.0696 -0.0591 -0.1450
  363loPI   C2A 5800  18.636  10.073   8.477  0.0932 -0.0110  0.1593
  363loPI   C3A 5801  18.777  10.169   8.096  0.4185 -0.1173  0.0029
  363loPI   C4A 5802  19.218  10.158   7.937  0.0930 -0.5001 -0.0508
  363loPI   C5A 5803  19.386  10.454   8.042 -0.1151 -0.2631 -0.0408
  363loPI   C6A 5804  19.501  10.923   8.259 -0.0834 -0.2256 -0.2132
  363loPI   C1B 5805  18.664  10.525   9.035 -0.0058  0.0109 -0.0071
  363loPI   C2B 5806  18.510  10.543   8.610  0.1965 -0.3289  0.1441
  363loPI   C3B 5807  18.201  10.194   8.381 -0.2296 -0.1697  0.3478
  363loPI   C4B 5808  17.889  10.062   8.384  0.0221 -0.5010  0.1696
  364loPI    C1 5809   6.420  15.438  10.283  0.1967 -0.1493 -0.0573
  364loPI    C2 5810   6.574  15.501  10.646 -0.0089 -0.2429  0.0482
  364loPI    C3 5811   6.309  15.207  10.590 -0.0707 -0.1508 -0.1519
  364loPI   PO4 5812   6.666  15.393  10.121 -0.0233  0.3127 -0.1863
  364loPI   GL1 5813   6.723  15.187   9.704 -0.1259  0.0656  0.0816
  364loPI   GL2 5814   6.543  15.327   9.478  0.2546  0.2020 -0.0730
  364loPI   C1A 5815   7.066  15.219   9.404  0.1432 -0.0360 -0.0493
  364loPI   C2A 5816   7.093  15.195   8.887  0.2381  0.0708  0.2534
  364loPI   C3A 5817   7.257  15.083   8.468  0.0630  0.0754 -0.2685
  364loPI   C4A 5818   7.336  15.191   8.111 -0.1711  0.1204 -0.0496
  364loPI   C5A 5819   7.560  15.186   7.767 -0.3364  0.3802  0.2354
  364loPI   C6A 5820   7.512  15.007   7.387  0.0156  0.3305  0.0616
  364loPI   C1B 5821   6.460  15.464   9.053 -0.1432 -0.0169  0.1991
  364loPI   C2B 5822   6.298  15.480   8.670  0.0225  0.0812 -0.0974
  364loPI   C3B 5823   6.235  15.742   8.393  0.2241  0.3397  0.3093
  364loPI   C4B 5824   6.276  15.730   7.970 -0.0736  0.0173 -0.3359
  365loPI    C1 5825   9.558  16.011   9.902  0.1289 -0.0388 -0.0563
  365loPI    C2 5826   9.566  16.411   9.910  0.0871 -0.0387 -0.0147
  365loPI    C3 5827   9.262  16.213  10.080  0.2390 -0.0955  0.1954
  365loPI   PO4 5828   9.750  15.905   9.692 -0.1084  0.1904 -0.3817
  365loPI   GL1 5829   9.803  15.509   9.504  0.1869 -0.1830 -0.2350
  365loPI   GL2 5830   9.926  15.721   9.251  0.3886 -0.1967  0.1071
  365loPI   C1A 5831   9.795  15.240   9.208 -0.3130  0.1320  0.0971
  365loPI   C2A 5832   9.872  15.111   8.785  0.0984 -0.1372 -0.0207
  365loPI   C3A 5833  10.149  14.979   8.406 -0.2566 -0.0750  0.0135
  365loPI   C4A 5834  10.154  14.704   8.128 -0.0580 -0.2363  0.1254
  365loPI   C5A 5835  10.250  14.333   7.920 -0.0048  0.0510 -0.1796
  365loPI   C6A 5836  10.603  14.105   7.794  0.3513 -0.0373  0.0767
  365loPI   C1B 5837   9.893  15.588   8.777  0.2016  0.1983  0.3909
  365loPI   C2B 5838  10.141  15.501   8.401  0.0051 -0.3006 -0.1887
  365loPI   C3B 5839  10.189  15.320   8.070  0.1879  0.1414  0.0757
  365loPI   C4B 5840  10.059  15.195   7.709  0.0436  0.0288 -0.3121
  366loPI    C1 5841   7.072   2.704  10.178 -0.0962  0.0761 -0.0669
  366loPI    C2 5842   6.698   2.563  10.203 -0.0714  0.0238  0.0139
  366loPI    C3 5843   6.956   2.500  10.502  0.0687 -0.1330 -0.1373
  366loPI   PO4 5844   7.130   2.726   9.994 -0.0510  0.4218  0.0636
  366loPI   GL1 5845   7.248   2.750   9.565 -0.1434  0.1189 -0.0919
  366loPI   GL2 5846   7.088   2.980   9.468 -0.1119 -0.1104  0.0038
  366loPI   C1A 5847   7.583   2.577   9.236 -0.1234  0.1748  0.0361
  366loPI   C2A 5848   7.669   2.230   9.120  0.0984 -0.1556 -0.0550
  366loPI   C3A 5849   7.665   2.148   8.668  0.1761  0.0536  0.1924
  366loPI   C4A 5850   7.911   2.097   8.281  0.1983 -0.0532 -0.0607
  366loPI   C5A 5851   7.973   1.891   7.908  0.3547  0.1591  0.0590
  366loPI   C6A 5852   8.036   1.719   7.388 -0.1058 -0.0765  0.2501
  366loPI   C1B 5853   7.114   2.972   9.000 -0.1130  0.0097  0.2817
  366loPI   C2B 5854   7.151   3.063   8.596 -0.2070  0.1946 -0.0244
  366loPI   C3B 5855   7.343   3.270   8.199  0.2234  0.2351  0.0350
  366loPI   C4B 5856   7.666   3.342   7.880  0.2217  0.0339 -0.0443
  367loPI    C1 5857   1.248   4.151  10.759  0.0053  0.0114 -0.0319
  367loPI    C2 5858   1.019   3.917  10.988 -0.1926  0.3115  0.0821
  367loPI    C3 5859   1.374   4.042  11.122  0.0324 -0.1299 -0.0828
  367loPI   PO4 5860   1.210   4.004  10.495 -0.1313 -0.0936  0.0003
  367loPI   GL1 5861   1.112   3.998  10.075  0.2813 -0.1094  0.0918
  367loPI   GL2 5862   1.262   4.288   9.863  0.0402 -0.1872  0.0221
  367loPI   C1A 5863   0.948   3.943   9.651 -0.0165  0.1667  0.1484
  367loPI   C2A 5864   0.509   3.825   9.469 -0.0487  0.1843 -0.1514
  367loPI   C3A 5865   0.459   3.696   8.971 -0.2712  0.3050  0.2719
  367loPI   C4A 5866   0.470   3.535   8.573  0.1216  0.4004  0.2091
  367loPI   C5A 5867   0.445   3.440   8.070 -0.1831  0.4144 -0.1289
  367loPI   C6A 5868   0.529   3.046   8.012 -0.0688 -0.0207  0.0044
  367loPI   C1B 5869   1.482   4.171   9.537 -0.0472 -0.2938 -0.0092
  367loPI   C2B 5870   1.441   4.028   9.131 -0.2906 -0.1641  0.1013
  367loPI   C3B 5871   1.290   3.899   8.612 -0.2628 -0.0124 -0.1511
  367loPI   C4B 5872   1.285   3.886   8.099 -0.0803  0.0666  0.2319
  368loPI    C1 5873   0.201   6.425  10.702 -0.0134 -0.0176  0.1858
  368loPI    C2 5874   0.332   6.542  11.061 -0.1961 -0.0525  0.2649
  368loPI    C3 5875  -0.059   6.554  10.977 -0.1383  0.1125  0.0089
  368loPI   PO4 5876   0.296   6.573  10.422 -0.0500  0.0059  0.1637
  368loPI   GL1 5877   0.089   6.488  10.005 -0.0920 -0.1453  0.1178
  368loPI   GL2 5878   0.191   6.750   9.910 -0.2315  0.2191 -0.3031
  368loPI   C1A 5879   0.129   6.388   9.600  0.0255 -0.2422  0.0834
  368loPI   C2A 5880   0.189   6.441   9.189 -0.0599 -0.2813 -0.1237
  368loPI   C3A 5881  -0.075   6.350   8.818  0.0136 -0.2225  0.0007
  368loPI   C4A 5882  -0.230   6.333   8.480  0.0156 -0.0103  0.1382
  368loPI   C5A 5883  -0.251   6.291   8.105 -0.0703  0.1522 -0.2355
  368loPI   C6A 5884  -0.503   6.038   7.998  0.1220  0.1280  0.1222
  368loPI   C1B 5885   0.222   6.911   9.480  0.4817  0.1166 -0.2385
  368loPI   C2B 5886   0.364   6.867   9.058  0.2668 -0.0375 -0.0511
  368loPI   C3B 5887   0.586   6.578   8.917 -0.3194  0.2212  0.0911
  368loPI   C4B 5888   0.844   6.272   8.657 -0.0728 -0.0629 -0.1588
  369loPI    C1 5889   6.631  10.241   9.713 -0.0714  0.0164 -0.0120
  369loPI    C2 5890   7.019  10.244   9.614 -0.1039 -0.2515 -0.1566
  369loPI    C3 5891   6.909  10.170   9.991 -0.0157 -0.1983 -0.1202
  369loPI   PO4 5892   6.534  10.468   9.667 -0.0685  0.1393 -0.0131
  369loPI   GL1 5893   6.327  10.750   9.241  0.1019  0.3619  0.0363
  369loPI   GL2 5894   6.071  10.549   9.099  0.0664  0.0170  0.1328
  369loPI   C1A 5895   6.359  10.872   8.767  0.0144 -0.1371  0.1730
  369loPI   C2A 5896   6.501  11.092   8.576 -0.0353  0.3294 -0.0197
  369loPI   C3A 5897   6.813  11.221   8.252 -0.1429 -0.0109  0.1643
  369loPI   C4A 5898   6.839  11.310   7.858  0.0804  0.1356 -0.0879
  369loPI   C5A 5899   7.156  11.066   7.644 -0.0790  0.2020  0.0281
  369loPI   C6A 5900   7.027  10.970   7.228  0.0198  0.0923 -0.2748
  369loPI   C1B 5901   5.931  10.633   8.737 -0.2950  0.2663 -0.0192
  369loPI   C2B 5902   5.968  10.534   8.314  0.2041  0.0765  0.1246
  369loPI   C3B 5903   6.069  10.514   7.907 -0.1584 -0.0436 -0.0759
  369loPI   C4B 5904   6.125  10.619   7.481 -0.1176 -0.0440 -0.0002
  370loPI    C1 5905  18.667  17.286  10.423  0.0194 -0.1869  0.0183
  370loPI    C2 5906  18.308  17.355  10.586  0.0714  0.3656 -0.0834
  370loPI    C3 5907  18.620  17.262  10.819 -0.0914  0.0761  0.0231
  370loPI   PO4 5908  18.577  17.152  10.233  0.0406 -0.0443  0.0814
  370loPI   GL1 5909  18.468  17.146   9.790 -0.2889  0.0982  0.0297
  370loPI   GL2 5910  18.206  17.069   9.798  0.5129  0.0652  0.4720
  370loPI   C1A 5911  18.483  16.887   9.397  0.0844  0.1680  0.1937
  370loPI   C2A 5912  18.552  16.917   8.933 -0.2021 -0.0131 -0.0736
  370loPI   C3A 5913  18.224  16.980   8.637 -0.4131  0.1986 -0.0559
  370loPI   C4A 5914  17.829  16.741   8.461 -0.1495 -0.2644 -0.4727
  370loPI   C5A 5915  17.588  16.792   8.156 -0.1906  0.1267 -0.2812
  370loPI   C6A 5916  17.521  16.433   7.900 -0.1618  0.0084 -0.1166
  370loPI   C1B 5917  17.936  17.095   9.525 -0.2361 -0.0413  0.1892
  370loPI   C2B 5918  18.005  17.104   9.126  0.0654  0.0597 -0.1791
  370loPI   C3B 5919  17.809  17.162   8.773  0.1473 -0.0014  0.0249
  370loPI   C4B 5920  17.468  17.242   8.602  0.3376  0.0760 -0.2394
  371loPI    C1 5921   7.221  11.567   9.874 -0.0240  0.1375 -0.0057
  371loPI    C2 5922   7.189  11.174   9.804 -0.2075  0.1093  0.2260
  371loPI    C3 5923   7.381  11.304  10.130  0.1026  0.2219  0.0028
  371loPI   PO4 5924   7.228  11.675   9.587  0.1398  0.0153 -0.0756
  371loPI   GL1 5925   7.301  11.841   9.174 -0.2396 -0.1521 -0.1381
  371loPI   GL2 5926   7.589  11.715   9.252 -0.3462 -0.0884  0.1373
  371loPI   C1A 5927   7.287  11.668   8.711 -0.4197  0.3223 -0.1124
  371loPI   C2A 5928   7.253  11.894   8.236 -0.2155 -0.1198 -0.2885
  371loPI   C3A 5929   6.896  11.924   7.827 -0.1286  0.0021 -0.0064
  371loPI   C4A 5930   6.522  11.820   7.725  0.0915  0.1111  0.0062
  371loPI   C5A 5931   6.469  11.889   7.344  0.3320 -0.4199  0.2625
  371loPI   C6A 5932   6.332  12.341   7.161 -0.2177  0.2491  0.0729
  371loPI   C1B 5933   7.585  11.401   9.016  0.3445 -0.4083 -0.0735
  371loPI   C2B 5934   7.750  11.383   8.584 -0.2025 -0.0891  0.0879
  371loPI   C3B 5935   8.084  11.520   8.421 -0.2122 -0.0395  0.1376
  371loPI   C4B 5936   8.289  11.767   8.078  0.0830  0.4087 -0.2447
  372loPI    C1 5937  14.771   2.700  10.125  0.2464  0.1618  0.2331
  372loPI    C2 5938  14.777   2.318  10.244 -0.5020 -0.0281 -0.2710
  372loPI    C3 5939  14.640   2.603  10.490 -0.3153 -0.1378 -0.0359
  372loPI   PO4 5940  15.061   2.821  10.041 -0.0655  0.0722  0.2157
  372loPI   GL1 5941  15.173   2.480   9.677 -0.1425  0.1756  0.0557
  372loPI   GL2 5942  14.902   2.541   9.647 -0.0096 -0.1295  0.0777
  372loPI   C1A 5943  15.375   2.383   9.352 -0.0062 -0.0234  0.1088
  372loPI   C2A 5944  15.299   2.403   8.928 -0.1242 -0.0750  0.0026
  372loPI   C3A 5945  15.417   2.437   8.417  0.0001 -0.0492  0.4968
  372loPI   C4A 5946  15.301   2.501   7.948 -0.2674  0.2946  0.2057
  372loPI   C5A 5947  15.352   2.419   7.540  0.1026  0.2964  0.2234
  372loPI   C6A 5948  15.226   2.304   7.157  0.3555  0.0704 -0.1688
  372loPI   C1B 5949  14.858   2.615   9.099 -0.3603  0.0801  0.1049
  372loPI   C2B 5950  14.979   2.791   8.705 -0.0432 -0.2818 -0.2414
  372loPI   C3B 5951  15.001   2.707   8.296 -0.0012 -0.0180  0.0471
  372loPI   C4B 5952  15.042   2.917   7.889 -0.3189  0.1364 -0.3688
  373loPI    C1 5953   5.066   2.154  10.130  0.1013 -0.0308  0.0700
  373loPI    C2 5954   4.886   2.131  10.487 -0.1789 -0.3828 -0.0872
  373loPI    C3 5955   4.697   2.301  10.178  0.0781 -0.0440 -0.0646
  373loPI   PO4 5956   5.153   1.979  10.103  0.0022  0.2863  0.3356
  373loPI   GL1 5957   5.159   1.603   9.828  0.2381 -0.1450  0.0057
  373loPI   GL2 5958   5.034   1.333   9.582 -0.1608  0.3136 -0.0532
  373loPI   C1A 5959   4.889   1.790   9.537 -0.2341  0.0410 -0.1497
  373loPI   C2A 5960   4.750   1.902   9.178 -0.0504  0.0621  0.0003
  373loPI   C3A 5961   4.693   2.057   8.838 -0.1772  0.2024 -0.0603
  373loPI   C4A 5962   4.709   2.275   8.553  0.1347 -0.0272  0.1037
  373loPI   C5A 5963   4.424   2.534   8.293  0.1157  0.4305  0.2200
  373loPI   C6A 5964   4.331   2.863   8.185  0.0871 -0.1542  0.0176
  373loPI   C1B 5965   5.021   1.155   9.187  0.2939 -0.3309  0.0629
  373loPI   C2B 5966   4.870   1.108   8.633 -0.1144 -0.2235 -0.1705
  373loPI   C3B 5967   4.996   0.925   8.280  0.1861  0.0467 -0.0299
  373loPI   C4B 5968   5.221   0.704   8.129 -0.0539  0.4447 -0.0568
  374loPI    C1 5969   6.312  11.419  10.007 -0.0817  0.1234 -0.1870
  374loPI    C2 5970   6.709  11.389  10.047 -0.1279 -0.0608  0.1791
  374loPI    C3 5971   6.515  11.699  10.209 -0.1545 -0.0640  0.1534
  374loPI   PO4 5972   6.255  11.397   9.791 -0.0028 -0.1910  0.1504
  374loPI   GL1 5973   6.324  11.192   9.443 -0.0777 -0.0717  0.1052
  374loPI   GL2 5974   6.194  11.412   9.169  0.0786 -0.2546  0.0898
  374loPI   C1A 5975   6.625  11.254   9.046 -0.0856 -0.3400 -0.5391
  374loPI   C2A 5976   6.847  11.511   8.686 -0.3020  0.0160  0.3585
  374loPI   C3A 5977   6.744  11.750   8.315 -0.2716  0.3875 -0.2266
  374loPI   C4A 5978   6.570  12.229   8.052 -0.2539  0.0367 -0.0669
  374loPI   C5A 5979   6.647  12.305   7.615  0.5333  0.2200 -0.0827
  374loPI   C6A 5980   6.661  12.647   7.348  0.2206 -0.1132  0.2776
  374loPI   C1B 5981   5.874  11.697   8.991 -0.2680 -0.1734  0.0080
  374loPI   C2B 5982   5.809  11.938   8.573  0.0889 -0.1628 -0.2253
  374loPI   C3B 5983   5.608  11.953   8.117  0.0502  0.3836  0.1940
  374loPI   C4B 5984   5.644  12.159   7.697  0.4728 -0.0140 -0.1224
  375loPI    C1 5985   2.311   2.193   9.856  0.0044  0.1682 -0.0847
  375loPI    C2 5986   2.027   2.199  10.138  0.1654  0.1773  0.0787
  375loPI    C3 5987   2.413   2.169  10.242  0.2374  0.3417 -0.1334
  375loPI   PO4 5988   2.166   2.031   9.595 -0.0376  0.4402  0.1547
  375loPI   GL1 5989   1.982   1.709   9.536  0.2053  0.3028  0.1261
  375loPI   GL2 5990   2.095   1.428   9.523  0.2237  0.0982 -0.0957
  375loPI   C1A 5991   2.012   1.643   9.066 -0.1101 -0.1804 -0.0015
  375loPI   C2A 5992   2.422   1.492   8.931 -0.0058  0.0343 -0.5023
  375loPI   C3A 5993   2.661   1.269   8.599 -0.1188 -0.3238 -0.2874
  375loPI   C4A 5994   2.754   1.143   8.252  0.0958  0.0120 -0.2113
  375loPI   C5A 5995   2.813   1.068   7.861 -0.2707  0.1534 -0.0672
  375loPI   C6A 5996   3.119   1.115   7.494 -0.0035  0.2418 -0.0317
  375loPI   C1B 5997   2.255   1.065   9.229 -0.0123  0.1569 -0.0527
  375loPI   C2B 5998   2.438   0.877   8.913  0.0302 -0.2104 -0.2727
  375loPI   C3B 5999   2.656   0.751   8.634  0.2712  0.0505 -0.1545
  375loPI   C4B 6000   2.717   0.617   8.252  0.1626  0.1286  0.4724
  376loPI    C1 6001  17.561  12.919  10.418  0.1246  0.0933 -0.0553
  376loPI    C2 6002  17.359  13.264  10.417 -0.0985 -0.0357 -0.0481
  376loPI    C3 6003  17.417  13.067  10.760 -0.0299 -0.0394 -0.0617
  376loPI   PO4 6004  17.771  12.954  10.220  0.2664 -0.0498  0.0435
  376loPI   GL1 6005  17.885  13.271   9.953  0.1649  0.0321  0.2666
  376loPI   GL2 6006  17.612  13.433  10.019  0.3389  0.4056  0.1589
  376loPI   C1A 6007  17.593  13.079   9.617 -0.0942  0.1034  0.1631
  376loPI   C2A 6008  17.625  12.895   9.224 -0.4006 -0.2152 -0.3146
  376loPI   C3A 6009  17.585  12.942   8.888 -0.1710  0.1386 -0.2026
  376loPI   C4A 6010  17.570  13.172   8.445 -0.2162  0.0657 -0.0957
  376loPI   C5A 6011  17.752  13.201   8.036 -0.0196  0.1029 -0.0866
  376loPI   C6A 6012  17.877  12.736   7.854 -0.0040  0.1126  0.1419
  376loPI   C1B 6013  17.433  13.563   9.609  0.0259 -0.2305 -0.0112
  376loPI   C2B 6014  17.223  13.733   9.259 -0.1142 -0.0658 -0.1279
  376loPI   C3B 6015  16.975  14.049   8.936 -0.0407  0.1389 -0.3390
  376loPI   C4B 6016  16.664  14.326   9.082 -0.0233  0.0429 -0.0830
  377loPI    C1 6017  18.486   6.375  10.340  0.0290 -0.0365 -0.0068
  377loPI    C2 6018  18.367   6.595  10.652  0.1781  0.0621 -0.0185
  377loPI    C3 6019  18.352   6.196  10.672 -0.1041  0.0715 -0.0012
  377loPI   PO4 6020  18.428   6.622  10.173  0.1018 -0.0538 -0.1182
  377loPI   GL1 6021  18.084   6.759   9.872  0.2789  0.1256  0.2609
  377loPI   GL2 6022  18.081   6.338   9.958 -0.2859 -0.1501 -0.1257
  377loPI   C1A 6023  17.803   6.528   9.588 -0.1193 -0.2269  0.2708
  377loPI   C2A 6024  17.816   6.428   9.148  0.3886  0.1999 -0.2725
  377loPI   C3A 6025  17.667   6.411   8.682  0.1081 -0.3321  0.0932
  377loPI   C4A 6026  17.472   6.457   8.291  0.1456 -0.2590 -0.0236
  377loPI   C5A 6027  17.680   6.212   7.990 -0.3387 -0.0546 -0.1310
  377loPI   C6A 6028  17.819   5.896   7.773 -0.3451 -0.0519  0.0312
  377loPI   C1B 6029  18.250   6.316   9.633  0.2067 -0.1459  0.0991
  377loPI   C2B 6030  18.493   6.134   9.325  0.1297  0.0529 -0.3852
  377loPI   C3B 6031  18.453   5.881   9.018 -0.1360 -0.0731  0.2002
  377loPI   C4B 6032  18.407   5.790   8.517 -0.1999 -0.1556  0.2349
  378loPI    C1 6033  17.651   7.557   9.815 -0.0478 -0.0806 -0.0431
  378loPI    C2 6034  17.300   7.687   9.956 -0.1933 -0.4017 -0.1006
  378loPI    C3 6035  17.602   7.613  10.208 -0.0954  0.0720 -0.0700
  378loPI   PO4 6036  17.602   7.719   9.575  0.0323  0.2564  0.2651
  378loPI   GL1 6037  17.319   7.753   9.176  0.1073 -0.1026  0.0750
  378loPI   GL2 6038  17.544   8.100   9.272  0.1375 -0.1370  0.2135
  378loPI   C1A 6039  17.250   7.964   8.710  0.1144  0.1455  0.2184
  378loPI   C2A 6040  17.213   7.900   8.308 -0.1320  0.2311  0.2757
  378loPI   C3A 6041  16.910   7.891   7.898 -0.2384 -0.2407 -0.1220
  378loPI   C4A 6042  16.592   7.749   7.723 -0.1289  0.4604  0.0623
  378loPI   C5A 6043  16.298   7.780   7.507  0.0167 -0.1240 -0.0004
  378loPI   C6A 6044  15.828   7.790   7.597 -0.1178  0.0805 -0.2542
  378loPI   C1B 6045  17.575   8.162   8.973 -0.0595  0.1702  0.2391
  378loPI   C2B 6046  17.689   8.075   8.551 -0.1737 -0.1536 -0.0257
  378loPI   C3B 6047  17.611   7.955   8.076  0.2884  0.1465  0.0013
  378loPI   C4B 6048  17.387   8.113   7.782  0.0693 -0.0775  0.2049
  379loPI    C1 6049   0.783   1.071  10.220  0.2092 -0.1467  0.0560
  379loPI    C2 6050   0.816   1.181  10.603 -0.1650  0.5650 -0.0999
  379loPI    C3 6051   1.040   1.360  10.323 -0.0014  0.1537 -0.2393
  379loPI   PO4 6052   0.639   1.076  10.075  0.0687  0.1070 -0.0414
  379loPI   GL1 6053   0.455   0.886   9.781  0.2397  0.1119 -0.0934
  379loPI   GL2 6054   0.461   0.672   9.669  0.1534  0.0120 -0.1180
  379loPI   C1A 6055   0.605   1.023   9.387  0.0596  0.1222 -0.4440
  379loPI   C2A 6056   0.389   1.144   8.971 -0.4123 -0.2161 -0.1328
  379loPI   C3A 6057   0.167   1.310   8.647  0.1592  0.2934  0.1487
  379loPI   C4A 6058   0.143   1.378   8.179 -0.1365 -0.0264  0.0345
  379loPI   C5A 6059   0.035   1.606   7.752 -0.0288 -0.0582  0.0530
  379loPI   C6A 6060   0.110   1.441   7.337 -0.0797 -0.0647 -0.1232
  379loPI   C1B 6061   0.375   0.553   9.267 -0.1330  0.2082 -0.3823
  379loPI   C2B 6062   0.280   0.681   8.738 -0.2580 -0.0983 -0.1433
  379loPI   C3B 6063   0.119   0.811   8.437  0.1046 -0.3275  0.3319
  379loPI   C4B 6064  -0.047   0.900   8.035 -0.0604  0.2240  0.0163
  380loPI    C1 6065   2.461  14.707  10.614  0.1564  0.0264  0.2535
  380loPI    C2 6066   2.361  14.884  10.958  0.0216  0.4969 -0.0189
  380loPI    C3 6067   2.094  14.858  10.661  0.0908 -0.0334 -0.0447
  380loPI   PO4 6068   2.789  14.845  10.440  0.0127 -0.1267 -0.2119
  380loPI   GL1 6069   2.800  15.098  10.077  0.0674 -0.2299 -0.1973
  380loPI   GL2 6070   2.554  14.888  10.014 -0.0847 -0.5793  0.2321
  380loPI   C1A 6071   2.623  15.383   9.756  0.0314 -0.1495  0.2177
  380loPI   C2A 6072   2.564  15.450   9.342 -0.1625 -0.1184 -0.0056
  380loPI   C3A 6073   2.553  15.557   8.896 -0.1398  0.3090 -0.0301
  380loPI   C4A 6074   2.281  15.623   8.520 -0.2454 -0.1669  0.2206
  380loPI   C5A 6075   2.102  15.815   8.157  0.2283 -0.0983  0.0017
  380loPI   C6A 6076   2.260  16.025   7.777 -0.1421  0.2462 -0.1470
  380loPI   C1B 6077   2.432  14.928   9.612  0.1517  0.4298  0.2313
  380loPI   C2B 6078   2.488  15.003   9.145  0.2366 -0.0815 -0.1108
  380loPI   C3B 6079   2.378  15.076   8.654 -0.1525 -0.3332  0.0547
  380loPI   C4B 6080   2.270  15.149   8.236 -0.1130  0.0826  0.1579
  381loPI    C1 6081  10.030   5.322  10.010 -0.0183  0.0951  0.0655
  381loPI    C2 6082   9.707   5.415  10.227 -0.0736 -0.0489  0.0458
  381loPI    C3 6083   9.898   5.069  10.291 -0.1451 -0.1352 -0.1972
  381loPI   PO4 6084   9.972   5.440   9.714 -0.0612  0.1258 -0.2460
  381loPI   GL1 6085   9.920   5.344   9.312 -0.1548  0.1051 -0.1663
  381loPI   GL2 6086   9.531   5.294   9.405  0.0260 -0.0509  0.3929
  381loPI   C1A 6087  10.136   5.301   8.977  0.0181  0.1162 -0.0803
  381loPI   C2A 6088  10.086   5.215   8.494 -0.3706  0.0410 -0.0169
  381loPI   C3A 6089  10.153   5.093   8.050  0.2452 -0.0496 -0.4898
  381loPI   C4A 6090  10.228   4.792   7.800  0.0812  0.1875  0.0523
  381loPI   C5A 6091   9.982   4.604   7.486  0.2493 -0.1872  0.0982
  381loPI   C6A 6092   9.578   4.461   7.162 -0.0058 -0.1201  0.0608
  381loPI   C1B 6093   9.583   5.306   8.898  0.1686 -0.0170 -0.1233
  381loPI   C2B 6094   9.523   5.322   8.464 -0.0853  0.1341 -0.0610
  381loPI   C3B 6095   9.622   5.244   8.143  0.0719  0.0223  0.0970
  381loPI   C4B 6096   9.703   4.910   7.917  0.2757 -0.1125 -0.2339
  382loPI    C1 6097  16.230   3.769  10.213 -0.2071  0.0013 -0.0702
  382loPI    C2 6098  16.279   3.418  10.399 -0.0245  0.0303 -0.0621
  382loPI    C3 6099  16.596   3.648  10.318 -0.1127  0.0634 -0.3227
  382loPI   PO4 6100  16.091   3.674   9.981  0.0116 -0.0597  0.1521
  382loPI   GL1 6101  16.340   3.593   9.687  0.1515  0.0599  0.4572
  382loPI   GL2 6102  16.562   3.753   9.767 -0.1529  0.2402 -0.0238
  382loPI   C1A 6103  16.158   3.829   9.245 -0.1711  0.1002  0.0220
  382loPI   C2A 6104  15.961   3.784   8.811  0.2399 -0.0564  0.1136
  382loPI   C3A 6105  15.865   4.028   8.411  0.1495 -0.0204 -0.0676
  382loPI   C4A 6106  15.639   4.139   8.119  0.0474  0.0957  0.0193
  382loPI   C5A 6107  15.550   4.313   7.759  0.1864  0.1142  0.2536
  382loPI   C6A 6108  15.176   4.084   7.628  0.0496  0.0264  0.3046
  382loPI   C1B 6109  16.642   3.941   9.281  0.0004 -0.0243 -0.2707
  382loPI   C2B 6110  16.451   3.916   8.833  0.2527 -0.1161 -0.0229
  382loPI   C3B 6111  16.353   4.155   8.365  0.2217  0.3458  0.0976
  382loPI   C4B 6112  16.366   4.297   7.853  0.3866  0.2699  0.1966
  383loPI    C1 6113   6.645  14.345   9.894  0.1883 -0.0111  0.2588
  383loPI    C2 6114   6.452  14.129  10.170  0.1273 -0.1607  0.1008
  383loPI    C3 6115   6.749  14.373  10.279  0.1656 -0.2885  0.2875
  383loPI   PO4 6116   6.359  14.461   9.711 -0.0049  0.0968  0.3763
  383loPI   GL1 6117   6.102  14.783   9.478  0.0756  0.0604  0.0697
  383loPI   GL2 6118   5.901  14.638   9.245 -0.0161 -0.1553 -0.3966
  383loPI   C1A 6119   6.369  14.639   9.116  0.2645  0.1707 -0.2900
  383loPI   C2A 6120   6.487  14.451   8.783  0.2206 -0.1920  0.0315
  383loPI   C3A 6121   6.642  14.216   8.398  0.2123 -0.1233 -0.0399
  383loPI   C4A 6122   6.807  14.049   8.073  0.0998 -0.1441 -0.0593
  383loPI   C5A 6123   7.042  14.184   7.674 -0.3389  0.2599 -0.1679
  383loPI   C6A 6124   7.467  14.372   7.497  0.1411  0.0483  0.1798
  383loPI   C1B 6125   5.975  14.748   8.852 -0.2272 -0.0591  0.3242
  383loPI   C2B 6126   6.161  14.773   8.563  0.0936 -0.1968  0.1586
  383loPI   C3B 6127   6.484  14.736   8.324  0.1136 -0.0762  0.1759
  383loPI   C4B 6128   6.804  15.028   8.184 -0.1480 -0.0983 -0.0390
  384loPI    C1 6129   7.070   9.540  10.034 -0.1471  0.0707  0.0205
  384loPI    C2 6130   7.417   9.409  10.185 -0.0368  0.1601 -0.1523
  384loPI    C3 6131   7.082   9.197  10.240  0.0703  0.0012 -0.1041
  384loPI   PO4 6132   7.113   9.679   9.812 -0.3173 -0.1259 -0.1208
  384loPI   GL1 6133   7.320   9.831   9.401  0.2184  0.0693 -0.1922
  384loPI   GL2 6134   7.618   9.961   9.296 -0.0711 -0.1584  0.1315
  384loPI   C1A 6135   7.384   9.628   9.020  0.0927 -0.0935  0.1360
  384loPI   C2A 6136   7.667   9.604   8.567  0.0827  0.6076 -0.3721
  384loPI   C3A 6137   7.699   9.547   8.152 -0.0007 -0.0654 -0.1265
  384loPI   C4A 6138   7.618   9.528   7.729  0.2119 -0.0242  0.3265
  384loPI   C5A 6139   7.930   9.652   7.513  0.1686  0.2465  0.4303
  384loPI   C6A 6140   8.022  10.040   7.445 -0.2745 -0.0142  0.3095
  384loPI   C1B 6141   7.536  10.103   8.903  0.2144  0.0229  0.1395
  384loPI   C2B 6142   7.641  10.112   8.517  0.2913  0.4273  0.1296
  384loPI   C3B 6143   7.578  10.034   8.090 -0.2987  0.2269 -0.0870
  384loPI   C4B 6144   7.479  10.060   7.606  0.0085  0.0459 -0.4267
  385loPI    C1 6145  13.824  13.742  10.481  0.1101  0.0407 -0.0542
  385loPI    C2 6146  14.096  13.720  10.773 -0.0411  0.1648  0.0978
  385loPI    C3 6147  13.842  13.417  10.713  0.2335 -0.0219 -0.1502
  385loPI   PO4 6148  13.969  13.752  10.283  0.0055 -0.1645 -0.0649
  385loPI   GL1 6149  13.806  13.898   9.936  0.0520  0.1167  0.1302
  385loPI   GL2 6150  13.546  13.646   9.877 -0.3142  0.1330  0.3134
  385loPI   C1A 6151  13.776  13.973   9.512 -0.1995  0.1871  0.0291
  385loPI   C2A 6152  13.873  14.033   9.069  0.0217  0.0365 -0.0647
  385loPI   C3A 6153  13.955  13.839   8.718  0.0321  0.0391 -0.1863
  385loPI   C4A 6154  14.141  13.712   8.369  0.0993 -0.3206 -0.0030
  385loPI   C5A 6155  13.952  13.803   7.985 -0.5112 -0.2046 -0.0158
  385loPI   C6A 6156  14.008  14.050   7.647  0.2355  0.0976  0.2268
  385loPI   C1B 6157  13.486  13.558   9.430 -0.0173  0.1795  0.1369
  385loPI   C2B 6158  13.514  13.639   8.990  0.0775 -0.2365 -0.1100
  385loPI   C3B 6159  13.502  13.509   8.616  0.0322  0.1436 -0.3482
  385loPI   C4B 6160  13.403  13.546   8.198 -0.1135  0.3218 -0.1910
  386loPI    C1 6161  17.295   0.177  10.462 -0.1230 -0.1555  0.1349
  386loPI    C2 6162  17.352  -0.021  10.805  0.3695 -0.1275  0.0764
  386loPI    C3 6163  17.629   0.237  10.674  0.0124  0.1492 -0.1544
  386loPI   PO4 6164  17.290   0.114  10.199  0.1567  0.1973  0.2749
  386loPI   GL1 6165  17.206   0.418   9.782  0.1876  0.4208  0.2010
  386loPI   GL2 6166  17.456   0.594   9.723 -0.2874  0.3570  0.2974
  386loPI   C1A 6167  17.158   0.444   9.290 -0.0297 -0.0657 -0.1709
  386loPI   C2A 6168  17.217   0.276   8.863  0.1116  0.2680  0.0832
  386loPI   C3A 6169  17.229   0.412   8.414 -0.3120  0.0154  0.1050
  386loPI   C4A 6170  17.356   0.177   8.055  0.0200  0.0604  0.4453
  386loPI   C5A 6171  17.568  -0.173   8.058  0.2025  0.3798 -0.1474
  386loPI   C6A 6172  17.609  -0.460   7.937 -0.0499 -0.2404  0.3737
  386loPI   C1B 6173  17.655   0.610   9.419 -0.1858  0.6196 -0.1986
  386loPI   C2B 6174  17.587   0.546   9.052  0.1656  0.0377 -0.1441
  386loPI   C3B 6175  17.595   0.637   8.690 -0.0898 -0.0677 -0.2266
  386loPI   C4B 6176  17.698   0.583   8.198 -0.0020 -0.1553 -0.0333
  387loPI    C1 6177  13.751  11.291  10.770 -0.0006  0.0006  0.1263
  387loPI    C2 6178  13.706  10.948  10.569  0.1273 -0.0473  0.1784
  387loPI    C3 6179  13.490  11.017  10.898 -0.0078 -0.0127  0.0834
  387loPI   PO4 6180  13.714  11.498  10.643  0.3099  0.0713 -0.1568
  387loPI   GL1 6181  13.588  11.498  10.097 -0.2711  0.2805 -0.1630
  387loPI   GL2 6182  13.935  11.555  10.101  0.0199  0.1821 -0.1473
  387loPI   C1A 6183  13.584  11.399   9.708 -0.2775  0.0047 -0.1639
  387loPI   C2A 6184  13.866  11.337   9.261  0.1814 -0.1451  0.0061
  387loPI   C3A 6185  13.906  11.306   8.816  0.0536 -0.0211 -0.1912
  387loPI   C4A 6186  14.225  11.342   8.545  0.0257  0.5087  0.4391
  387loPI   C5A 6187  14.435  11.515   8.217 -0.2122  0.1601  0.0943
  387loPI   C6A 6188  14.699  11.749   7.952  0.0442  0.2062  0.2707
  387loPI   C1B 6189  14.006  11.696   9.592  0.1107 -0.2206  0.1686
  387loPI   C2B 6190  14.324  11.877   9.388  0.2412 -0.0801 -0.0106
  387loPI   C3B 6191  14.477  12.099   9.056 -0.0787 -0.1135 -0.0938
  387loPI   C4B 6192  14.909  12.033   8.872 -0.1565 -0.0035 -0.1396
  388loPI    C1 6193  14.602  12.785  10.563 -0.0896  0.0089 -0.2556
  388loPI    C2 6194  14.351  12.474  10.539  0.0575 -0.1520  0.1928
  388loPI    C3 6195  14.235  12.811  10.720  0.0106 -0.0604 -0.0053
  388loPI   PO4 6196  14.686  12.827  10.344  0.3020 -0.0891  0.2057
  388loPI   GL1 6197  14.906  12.659   9.951 -0.1731  0.0376 -0.0043
  388loPI   GL2 6198  14.839  12.304   9.720  0.0101 -0.3350 -0.2827
  388loPI   C1A 6199  14.882  12.781   9.495 -0.1109 -0.3867 -0.0371
  388loPI   C2A 6200  14.927  13.018   9.025 -0.0037  0.0650  0.1229
  388loPI   C3A 6201  14.912  12.900   8.471 -0.0215 -0.0746  0.3409
  388loPI   C4A 6202  14.780  12.660   8.095 -0.0457 -0.0766  0.0405
  388loPI   C5A 6203  14.624  12.234   7.953  0.0462  0.0706  0.2193
  388loPI   C6A 6204  14.223  11.952   7.967 -0.3097  0.0392 -0.1708
  388loPI   C1B 6205  15.111  12.280   9.267 -0.0010  0.3686 -0.2929
  388loPI   C2B 6206  15.349  12.291   8.886  0.1057 -0.0623 -0.2739
  388loPI   C3B 6207  15.463  12.224   8.421  0.1883  0.1007 -0.0155
  388loPI   C4B 6208  15.365  12.234   8.052 -0.1496 -0.0235 -0.1601
  389loPI    C1 6209   0.431   0.221  10.216  0.0785 -0.1304  0.2270
  389loPI    C2 6210   0.187   0.274  10.528 -0.0637 -0.0949  0.1110
  389loPI    C3 6211   0.571   0.180  10.588 -0.0644  0.0169  0.2981
  389loPI   PO4 6212   0.219   0.353   9.998 -0.0593 -0.0932  0.1197
  389loPI   GL1 6213   0.235   0.193   9.622  0.0895  0.0411  0.0348
  389loPI   GL2 6214   0.266  -0.106   9.827  0.3006 -0.1365 -0.1162
  389loPI   C1A 6215   0.530   0.018   9.266 -0.2026 -0.1469 -0.0539
  389loPI   C2A 6216   0.520  -0.382   9.028  0.0777  0.2033  0.2738
  389loPI   C3A 6217   0.425  -0.680   8.804  0.0119 -0.0625  0.2196
  389loPI   C4A 6218   0.417  -0.678   8.386  0.0725  0.0878 -0.2475
  389loPI   C5A 6219   0.206  -0.319   8.129  0.0765 -0.1695  0.1308
  389loPI   C6A 6220  -0.240  -0.246   8.069  0.1554 -0.1385 -0.2566
  389loPI   C1B 6221   0.269  -0.369   9.450 -0.0795 -0.3971 -0.2613
  389loPI   C2B 6222   0.229  -0.795   9.339 -0.1526  0.0635  0.1690
  389loPI   C3B 6223   0.250  -1.116   9.074  0.0020  0.1083  0.2888
  389loPI   C4B 6224   0.500  -1.189   8.667 -0.3488 -0.2863  0.1511
  390loPI    C1 6225   1.418  18.473  10.583  0.0293 -0.0250  0.0315
  390loPI    C2 6226   1.623  18.353  10.904  0.0665 -0.1346 -0.0326
  390loPI    C3 6227   1.228  18.412  10.930  0.0664 -0.1611  0.0283
  390loPI   PO4 6228   1.461  18.355  10.435 -0.0572 -0.3074  0.0166
  390loPI   GL1 6229   1.562  18.330   9.991  0.2526  0.1546 -0.0201
  390loPI   GL2 6230   1.840  18.182  10.069 -0.0987  0.1349 -0.0680
  390loPI   C1A 6231   1.649  18.254   9.610  0.0780 -0.1161 -0.2033
  390loPI   C2A 6232   1.252  18.090   9.204 -0.3203  0.2234 -0.1163
  390loPI   C3A 6233   1.248  18.164   8.844  0.1613 -0.0137  0.2861
  390loPI   C4A 6234   1.443  18.462   8.567  0.0556  0.1263  0.1240
  390loPI   C5A 6235   1.679  18.720   8.294 -0.2250  0.0558 -0.1284
  390loPI   C6A 6236   1.999  18.985   8.121 -0.0475  0.0926 -0.0489
  390loPI   C1B 6237   2.115  18.295   9.841 -0.1861  0.0281  0.1297
  390loPI   C2B 6238   2.180  18.135   9.378 -0.1030 -0.2508 -0.0715
  390loPI   C3B 6239   2.114  17.971   9.105 -0.0197  0.2803 -0.1708
  390loPI   C4B 6240   2.113  17.784   8.623  0.2696  0.1183 -0.1097
  391loPI    C1 6241  10.890  10.299  10.524  0.2540  0.0978  0.1444
  391loPI    C2 6242  11.161  10.186  10.252 -0.1430  0.1646 -0.2925
  391loPI    C3 6243  11.083   9.951  10.566  0.3749  0.1213 -0.1860
  391loPI   PO4 6244  10.696  10.366  10.368  0.0884 -0.0982 -0.1217
  391loPI   GL1 6245  10.793  10.421   9.893  0.0464  0.3784 -0.1452
  391loPI   GL2 6246  10.885  10.615   9.633  0.1778 -0.3549  0.3556
  391loPI   C1A 6247  11.149  10.158   9.671 -0.2428 -0.0022 -0.1574
  391loPI   C2A 6248  11.220   9.930   9.201 -0.1148  0.2487  0.0803
  391loPI   C3A 6249  11.318   9.875   8.806 -0.2421  0.0948  0.1831
  391loPI   C4A 6250  11.409   9.486   8.603  0.2513 -0.0234 -0.3816
  391loPI   C5A 6251  11.284   9.233   8.312  0.1909 -0.0714 -0.2998
  391loPI   C6A 6252  10.939   8.953   8.295 -0.1886  0.1455 -0.1430
  391loPI   C1B 6253  11.179  10.528   9.278 -0.0467 -0.0140  0.0764
  391loPI   C2B 6254  11.499  10.382   9.044 -0.2091  0.3908  0.0814
  391loPI   C3B 6255  11.675  10.062   9.115 -0.0653 -0.0400 -0.1286
  391loPI   C4B 6256  11.982   9.873   9.358  0.2009  0.1762  0.3377
  392loPI    C1 6257   3.442   0.839  10.242  0.1033 -0.1994  0.0868
  392loPI    C2 6258   3.095   1.029  10.184  0.3793  0.2221 -0.2482
  392loPI    C3 6259   3.281   1.056  10.537  0.1155  0.0592 -0.0933
  392loPI   PO4 6260   3.556   0.968  10.034  0.0406  0.0513  0.0130
  392loPI   GL1 6261   3.393   1.217   9.772  0.0565 -0.0418 -0.0938
  392loPI   GL2 6262   2.981   1.031   9.647 -0.1779  0.2489  0.0377
  392loPI   C1A 6263   3.581   1.618   9.469  0.0153  0.2373  0.2157
  392loPI   C2A 6264   3.590   1.782   9.004 -0.2963  0.1070  0.1855
  392loPI   C3A 6265   3.387   1.843   8.573 -0.1316  0.1271  0.0473
  392loPI   C4A 6266   3.536   1.681   8.223 -0.3614 -0.0916  0.0311
  392loPI   C5A 6267   3.834   1.492   8.019  0.3238 -0.2096 -0.1764
  392loPI   C6A 6268   4.171   1.408   8.249 -0.3186  0.2817 -0.4033
  392loPI   C1B 6269   3.245   0.855   9.336 -0.0116 -0.2966  0.2226
  392loPI   C2B 6270   3.536   1.041   9.132  0.2303 -0.0747 -0.1657
  392loPI   C3B 6271   3.562   1.340   8.836 -0.0818  0.0783 -0.2431
  392loPI   C4B 6272   3.738   1.324   8.536  0.3411 -0.3214 -0.0218
  393loPI    C1 6273   5.708   1.590  10.326  0.2942 -0.0485 -0.1122
  393loPI    C2 6274   5.727   1.962  10.179  0.0061 -0.0353 -0.1214
  393loPI    C3 6275   5.833   1.891  10.558  0.0869  0.0513 -0.1276
  393loPI   PO4 6276   5.697   1.440  10.073 -0.0318 -0.2473  0.0577
  393loPI   GL1 6277   5.624   1.349   9.671  0.0207  0.1551 -0.1759
  393loPI   GL2 6278   5.964   1.405   9.583  0.3434 -0.4472 -0.0831
  393loPI   C1A 6279   5.560   1.143   9.309  0.1637 -0.1678 -0.0965
  393loPI   C2A 6280   5.440   1.183   8.939 -0.2763 -0.1253  0.1814
  393loPI   C3A 6281   5.322   1.355   8.528  0.0628  0.1556 -0.0310
  393loPI   C4A 6282   5.147   1.441   8.098  0.0598 -0.0566 -0.1340
  393loPI   C5A 6283   4.871   1.735   7.966  0.0599  0.3114  0.0623
  393loPI   C6A 6284   4.831   2.187   8.035  0.1517 -0.2947  0.1740
  393loPI   C1B 6285   5.823   1.562   9.081 -0.0733  0.0538  0.1178
  393loPI   C2B 6286   5.763   1.508   8.693  0.0871  0.2554  0.0776
  393loPI   C3B 6287   5.816   1.198   8.331 -0.1106  0.1580  0.0036
  393loPI   C4B 6288   5.962   1.051   7.884 -0.1005  0.0933 -0.0758
  394loPI    C1 6289   3.832  13.366   9.915  0.3230 -0.1385  0.0083
  394loPI    C2 6290   3.664  13.355  10.278  0.3081  0.1387  0.0121
  394loPI    C3 6291   4.062  13.353  10.242  0.3088 -0.1052  0.0197
  394loPI   PO4 6292   3.762  13.483   9.799  0.2915  0.0864  0.2679
  394loPI   GL1 6293   3.735  13.577   9.387 -0.2329 -0.0627  0.6794
  394loPI   GL2 6294   4.082  13.572   9.356 -0.3718  0.0980  0.1256
  394loPI   C1A 6295   3.641  13.683   8.971 -0.0285  0.1137  0.1149
  394loPI   C2A 6296   3.439  13.817   8.534 -0.1990 -0.3589 -0.3429
  394loPI   C3A 6297   3.129  13.897   8.168 -0.3874  0.0266  0.1579
  394loPI   C4A 6298   2.770  13.911   7.848 -0.1960  0.2428 -0.2599
  394loPI   C5A 6299   2.399  13.565   7.913  0.1542 -0.0073 -0.1005
  394loPI   C6A 6300   2.017  13.325   7.893  0.1880  0.1220  0.0077
  394loPI   C1B 6301   4.100  13.828   8.968 -0.0489 -0.4213  0.0640
  394loPI   C2B 6302   3.830  14.122   8.802  0.0392  0.0727 -0.0627
  394loPI   C3B 6303   3.782  14.463   8.567 -0.0909 -0.0235 -0.0516
  394loPI   C4B 6304   3.811  14.683   8.150  0.2761  0.1587  0.1860
  395loPI    C1 6305   8.994   3.919  10.135 -0.0632 -0.2292 -0.0038
  395loPI    C2 6306   8.678   4.116  10.282 -0.0771 -0.1321 -0.1617
  395loPI    C3 6307   8.627   3.763  10.103 -0.1270 -0.0125 -0.3867
  395loPI   PO4 6308   9.123   4.227   9.867 -0.2732  0.5053 -0.0511
  395loPI   GL1 6309   9.324   4.381   9.447  0.1477 -0.0168  0.0480
  395loPI   GL2 6310   9.301   4.026   9.282  0.2534  0.3401 -0.1836
  395loPI   C1A 6311   8.966   4.445   9.143 -0.1452 -0.0339 -0.3774
  395loPI   C2A 6312   8.911   4.534   8.772 -0.1340  0.4310  0.3061
  395loPI   C3A 6313   8.909   4.531   8.334  0.2457  0.1097  0.0777
  395loPI   C4A 6314   9.272   4.452   7.985 -0.1363 -0.1285 -0.0212
  395loPI   C5A 6315   9.532   4.471   7.729  0.1983  0.1241  0.4356
  395loPI   C6A 6316   9.786   4.128   7.594 -0.4390  0.1428 -0.1804
  395loPI   C1B 6317   9.074   3.975   8.875  0.0493  0.0211  0.0991
  395loPI   C2B 6318   9.055   3.917   8.411  0.2797 -0.1126 -0.2828
  395loPI   C3B 6319   9.010   4.011   8.035  0.0872  0.1917  0.0743
  395loPI   C4B 6320   8.901   3.710   7.689  0.1424 -0.0360  0.1131
  396loPI    C1 6321  18.681   8.448  10.242 -0.0089  0.1905 -0.0579
  396loPI    C2 6322  18.442   8.150  10.358  0.0031  0.1032 -0.2535
  396loPI    C3 6323  18.839   8.108  10.381  0.0030  0.1927 -0.0661
  396loPI   PO4 6324  18.589   8.546   9.978 -0.1678 -0.0088 -0.0016
  396loPI   GL1 6325  18.355   8.571   9.632 -0.0152  0.3269 -0.0616
  396loPI   GL2 6326  18.365   8.851   9.603 -0.2544 -0.3019  0.1272
  396loPI   C1A 6327  18.435   8.312   9.282  0.0003  0.0857 -0.0745
  396loPI   C2A 6328  18.595   8.033   9.029  0.1468 -0.0180  0.1380
  396loPI   C3A 6329  18.558   7.670   8.702 -0.1884  0.0411  0.3253
  396loPI   C4A 6330  18.482   7.511   8.337  0.1228  0.1323 -0.0935
  396loPI   C5A 6331  18.584   7.202   7.936  0.3718  0.3028 -0.0200
  396loPI   C6A 6332  18.940   7.136   7.661 -0.1748  0.1599  0.2307
  396loPI   C1B 6333  18.353   8.831   9.126 -0.1636 -0.1431 -0.1463
  396loPI   C2B 6334  18.452   8.593   8.831  0.1105 -0.2461  0.0687
  396loPI   C3B 6335  18.508   8.182   8.585  0.0575 -0.2411 -0.1255
  396loPI   C4B 6336  18.324   8.090   8.146 -0.1450  0.0814  0.3391
  397loPI    C1 6337  16.947  11.124  10.110  0.1014  0.1145  0.1480
  397loPI    C2 6338  16.861  11.089  10.500  0.2057  0.2078  0.1801
  397loPI    C3 6339  17.109  10.828  10.325 -0.1229 -0.0528  0.0911
  397loPI   PO4 6340  16.844  11.362  10.101  0.1591  0.1825 -0.0448
  397loPI   GL1 6341  16.699  11.503   9.758 -0.0719  0.1797  0.1474
  397loPI   GL2 6342  16.764  11.069   9.597 -0.3167 -0.1522  0.2505
  397loPI   C1A 6343  16.851  11.659   9.301 -0.1995 -0.0124 -0.1789
  397loPI   C2A 6344  16.718  11.880   8.937  0.2136 -0.3028  0.2474
  397loPI   C3A 6345  16.890  12.150   8.742 -0.0663 -0.2102  0.3352
  397loPI   C4A 6346  17.017  12.265   8.304 -0.1386  0.0333 -0.2333
  397loPI   C5A 6347  16.961  12.457   7.929  0.1942 -0.1377  0.0272
  397loPI   C6A 6348  16.842  12.704   7.537 -0.0793 -0.0367  0.0837
  397loPI   C1B 6349  16.638  11.263   9.197  0.2337  0.1434  0.1249
  397loPI   C2B 6350  16.816  11.402   8.760  0.2629 -0.2357 -0.0751
  397loPI   C3B 6351  16.875  11.557   8.297  0.1176  0.0474 -0.2611
  397loPI   C4B 6352  16.739  11.837   8.334 -0.1369 -0.0207  0.1754
  398loPI    C1 6353   1.341   8.851  10.249 -0.2304 -0.0142 -0.0571
  398loPI    C2 6354   1.569   8.865  10.578  0.0436  0.0216 -0.2453
  398loPI    C3 6355   1.171   8.841  10.611  0.0822 -0.2191  0.0888
  398loPI   PO4 6356   1.322   8.559  10.082 -0.0943 -0.3314 -0.2405
  398loPI   GL1 6357   1.320   8.497   9.669 -0.4304 -0.4367  0.1600
  398loPI   GL2 6358   1.585   8.676   9.383  0.0130  0.1775  0.0042
  398loPI   C1A 6359   1.115   8.473   9.298 -0.1300 -0.1109  0.0822
  398loPI   C2A 6360   0.946   8.498   8.828 -0.1567  0.3009 -0.2542
  398loPI   C3A 6361   0.960   8.484   8.326  0.0962 -0.0869 -0.0887
  398loPI   C4A 6362   0.951   8.458   7.872 -0.5618 -0.1322 -0.0346
  398loPI   C5A 6363   0.973   8.146   7.691 -0.0428  0.1467  0.0128
  398loPI   C6A 6364   0.986   8.166   7.269  0.1220  0.0506  0.0136
  398loPI   C1B 6365   1.505   8.705   8.903 -0.1033 -0.2031  0.2441
  398loPI   C2B 6366   1.480   8.628   8.556  0.2861  0.0680 -0.1984
  398loPI   C3B 6367   1.438   8.880   8.197  0.1078 -0.0109 -0.2342
  398loPI   C4B 6368   1.372   9.001   7.782  0.0296 -0.2024 -0.2052
  399loPI    C1 6369  10.110   7.231  10.103 -0.0461 -0.1130 -0.2129
  399loPI    C2 6370   9.936   7.557  10.256 -0.0221 -0.1777 -0.0453
  399loPI    C3 6371   9.918   7.210  10.453  0.1569 -0.2228 -0.1067
  399loPI   PO4 6372  10.016   7.225   9.827  0.1949  0.2924  0.2441
  399loPI   GL1 6373   9.842   7.355   9.445 -0.3338  0.0909 -0.3093
  399loPI   GL2 6374   9.639   7.433   9.237 -0.0055  0.0109 -0.1306
  399loPI   C1A 6375  10.207   7.381   9.234  0.0146  0.1166 -0.2450
  399loPI   C2A 6376  10.386   7.683   8.862 -0.3948 -0.3110 -0.0558
  399loPI   C3A 6377  10.556   7.676   8.443  0.2387  0.3247  0.1412
  399loPI   C4A 6378  10.927   7.726   8.294 -0.0288  0.2357  0.0988
  399loPI   C5A 6379  11.321   7.894   8.304 -0.0282 -0.1442  0.2572
  399loPI   C6A 6380  11.598   8.033   7.881 -0.2442 -0.4603  0.0674
  399loPI   C1B 6381   9.879   7.627   8.884 -0.0408  0.0841 -0.5524
  399loPI   C2B 6382  10.030   7.724   8.463 -0.1247 -0.2168  0.1837
  399loPI   C3B 6383  10.219   7.664   8.129  0.0978 -0.0077  0.0486
  399loPI   C4B 6384  10.540   7.836   7.869  0.0869  0.0152  0.3100
  400loPI    C1 6385  16.199   8.729   9.923 -0.1438 -0.2315 -0.0099
  400loPI    C2 6386  16.445   8.669  10.232  0.0563 -0.0469 -0.1309
  400loPI    C3 6387  16.100   8.862  10.287  0.1836  0.1635 -0.0579
  400loPI   PO4 6388  16.321   8.890   9.706 -0.0654  0.0341  0.0558
  400loPI   GL1 6389  16.333   9.252   9.460  0.1207 -0.2851  0.0684
  400loPI   GL2 6390  16.188   9.197   9.187 -0.3369  0.1439 -0.1773
  400loPI   C1A 6391  16.689   9.194   9.103  0.2315 -0.1381  0.0995
  400loPI   C2A 6392  16.836   9.212   8.665  0.2454  0.2781  0.0149
  400loPI   C3A 6393  16.694   9.261   8.141 -0.0856  0.0937 -0.2517
  400loPI   C4A 6394  16.622   9.382   7.824  0.1491  0.1426 -0.1513
  400loPI   C5A 6395  16.459   9.667   7.498 -0.0495 -0.3280 -0.1163
  400loPI   C6A 6396  16.198  10.043   7.629  0.0038 -0.1623 -0.0495
  400loPI   C1B 6397  16.023   8.990   8.804 -0.2710  0.0899 -0.2127
  400loPI   C2B 6398  15.782   9.226   8.470 -0.0325 -0.2798 -0.1837
  400loPI   C3B 6399  15.702   9.317   8.050  0.0750  0.1788 -0.1391
  400loPI   C4B 6400  15.335   9.618   7.881 -0.2056 -0.0551  0.2903
  401loPI    C1 6401   7.675  10.117   9.759 -0.2753 -0.2282 -0.2517
  401loPI    C2 6402   7.488   9.951  10.072  0.0583 -0.1066  0.0187
  401loPI    C3 6403   7.448  10.343   9.999 -0.0486 -0.1417 -0.1147
  401loPI   PO4 6404   7.970   9.910   9.724 -0.0297 -0.1611  0.1944
  401loPI   GL1 6405   7.960   9.569   9.437  0.1798  0.2951 -0.1822
  401loPI   GL2 6406   8.255   9.442   9.348 -0.0585  0.0984  0.0094
  401loPI   C1A 6407   7.889   9.631   9.024 -0.0684 -0.0820 -0.1966
  401loPI   C2A 6408   8.169   9.375   8.682 -0.2448  0.3729  0.4063
  401loPI   C3A 6409   8.153   9.156   8.333 -0.2260 -0.1557  0.0379
  401loPI   C4A 6410   7.933   9.076   8.022 -0.1778 -0.0030  0.0267
  401loPI   C5A 6411   7.995   9.132   7.539  0.1321  0.0738  0.0148
  401loPI   C6A 6412   8.307   9.338   7.283  0.1145 -0.0763  0.2697
  401loPI   C1B 6413   8.446   9.657   9.050 -0.1113 -0.0664  0.2635
  401loPI   C2B 6414   8.845   9.808   8.743 -0.1590  0.2190  0.1830
  401loPI   C3B 6415   9.267   9.946   8.512 -0.1666  0.0224  0.0911
  401loPI   C4B 6416   9.329   9.873   8.002 -0.0610 -0.1811 -0.0182
  402loPI    C1 6417   1.265  13.505  10.532  0.4345  0.1371 -0.3619
  402loPI    C2 6418   1.393  13.227  10.275  0.1267 -0.2831 -0.0751
  402loPI    C3 6419   1.296  13.124  10.649 -0.1859  0.1776 -0.0207
  402loPI   PO4 6420   1.417  13.709  10.567 -0.1200 -0.0757  0.2728
  402loPI   GL1 6421   1.576  13.999  10.175  0.2010 -0.1442  0.1001
  402loPI   GL2 6422   1.911  13.956  10.052  0.0236 -0.0439  0.0112
  402loPI   C1A 6423   1.405  14.066   9.695  0.1965 -0.0283  0.2694
  402loPI   C2A 6424   1.233  14.384   9.316  0.4174  0.1704 -0.0608
  402loPI   C3A 6425   1.208  14.336   8.968  0.1384 -0.4429 -0.0109
  402loPI   C4A 6426   1.405  14.409   8.584 -0.0500 -0.2759  0.1239
  402loPI   C5A 6427   1.377  14.160   8.306  0.1067  0.1628 -0.0268
  402loPI   C6A 6428   1.321  13.797   8.163  0.1021  0.4807  0.0566
  402loPI   C1B 6429   2.010  13.929   9.569  0.2753 -0.2074  0.2934
  402loPI   C2B 6430   2.062  13.977   9.239 -0.0471  0.0086  0.1612
  402loPI   C3B 6431   2.115  13.811   8.861 -0.4102  0.0774  0.0482
  402loPI   C4B 6432   2.315  13.883   8.370  0.0038  0.0274 -0.2009
  403loPI    C1 6433   4.509   4.666   9.828 -0.1769  0.0558  0.0627
  403loPI    C2 6434   4.528   4.520  10.199 -0.0251 -0.1008 -0.0053
  403loPI    C3 6435   4.251   4.792  10.106  0.0580  0.0839  0.2718
  403loPI   PO4 6436   4.452   4.514   9.698 -0.3311 -0.2137 -0.0513
  403loPI   GL1 6437   4.066   4.500   9.433 -0.0918 -0.1115  0.0775
  403loPI   GL2 6438   3.734   4.671   9.442  0.1463 -0.3063 -0.0827
  403loPI   C1A 6439   4.150   4.667   9.097  0.0653 -0.0304 -0.0116
  403loPI   C2A 6440   4.059   4.595   8.669  0.2345 -0.0857 -0.0257
  403loPI   C3A 6441   4.119   4.355   8.337 -0.0771  0.2345  0.0685
  403loPI   C4A 6442   3.904   4.155   7.992  0.1590  0.1411 -0.2465
  403loPI   C5A 6443   4.081   4.064   7.624 -0.2279 -0.0999  0.1248
  403loPI   C6A 6444   4.200   4.002   7.251 -0.2060 -0.0097 -0.2953
  403loPI   C1B 6445   3.696   4.666   8.956 -0.1184  0.0564 -0.1051
  403loPI   C2B 6446   3.478   4.557   8.639  0.2979 -0.1678  0.0498
  403loPI   C3B 6447   3.294   4.680   8.268  0.0755  0.1593 -0.1036
  403loPI   C4B 6448   3.057   4.737   7.893 -0.0296  0.0746  0.1110
  404loPI    C1 6449   8.516   1.525   9.945 -0.2761 -0.1946  0.0595
  404loPI    C2 6450   8.230   1.739  10.126 -0.1387  0.1639 -0.1369
  404loPI    C3 6451   8.135   1.488   9.829 -0.3081 -0.0969  0.1323
  404loPI   PO4 6452   8.704   1.638   9.747  0.1432  0.0318  0.3216
  404loPI   GL1 6453   8.529   1.878   9.365 -0.0190  0.0372  0.0233
  404loPI   GL2 6454   8.841   1.976   9.350  0.3791 -0.1962  0.0640
  404loPI   C1A 6455   8.520   1.666   8.905 -0.0753 -0.1335  0.0569
  404loPI   C2A 6456   8.610   1.477   8.555  0.2888  0.2214  0.3209
  404loPI   C3A 6457   8.838   1.583   8.114 -0.1184 -0.1438  0.0908
  404loPI   C4A 6458   9.023   1.592   7.901  0.0022 -0.0573  0.2198
  404loPI   C5A 6459   9.400   1.301   7.716  0.1304 -0.0015 -0.2000
  404loPI   C6A 6460   9.698   1.491   7.711  0.1637  0.0214 -0.2738
  404loPI   C1B 6461   9.148   2.192   9.226 -0.0514 -0.0838  0.3680
  404loPI   C2B 6462   9.128   2.487   8.954 -0.0797 -0.3493  0.2080
  404loPI   C3B 6463   9.289   2.681   8.684  0.6018  0.2504  0.1669
  404loPI   C4B 6464   9.397   2.992   8.477 -0.0680 -0.0408  0.0849
  405loPI    C1 6465  10.991   2.760  10.111  0.1358 -0.0147 -0.0507
  405loPI    C2 6466  10.774   3.003  10.343 -0.1075 -0.1912 -0.0895
  405loPI    C3 6467  10.993   2.711  10.507  0.1897  0.0525 -0.0424
  405loPI   PO4 6468  11.030   2.932   9.824 -0.3170  0.0779 -0.0591
  405loPI   GL1 6469  11.214   2.988   9.423  0.0422  0.0688  0.0270
  405loPI   GL2 6470  10.910   3.166   9.397 -0.2007 -0.0567  0.0051
  405loPI   C1A 6471  11.175   2.890   9.004  0.1963  0.0220 -0.1564
  405loPI   C2A 6472  11.274   2.725   8.537 -0.0921  0.2727 -0.0504
  405loPI   C3A 6473  11.192   2.410   8.190 -0.1027  0.1719  0.2747
  405loPI   C4A 6474  11.232   2.263   7.759  0.0195 -0.1408 -0.0612
  405loPI   C5A 6475  11.322   1.863   7.547 -0.2444  0.0849  0.4014
  405loPI   C6A 6476  11.689   1.652   7.343 -0.1669  0.1837  0.2477
  405loPI   C1B 6477  11.153   3.409   8.986  0.3063 -0.1391  0.1076
  405loPI   C2B 6478  11.216   3.196   8.602  0.0275  0.1024  0.1802
  405loPI   C3B 6479  11.213   3.112   8.136 -0.1870 -0.2730  0.0585
  405loPI   C4B 6480  11.153   2.812   7.804 -0.0646 -0.0622 -0.3050
  406POPI    C1 6481  13.152   1.490   9.845  0.0365  0.2020 -0.1587
  406POPI    C2 6482  12.849   1.559  10.097  0.0830  0.1800 -0.0965
  406POPI    C3 6483  13.223   1.649  10.205  0.0731  0.4370 -0.2678
  406POPI   PO4 6484  13.012   1.554   9.615  0.2551 -0.1293  0.1084
  406POPI   GL1 6485  12.673   1.610   9.325 -0.0685 -0.1745  0.0882
  406POPI   GL2 6486  12.417   1.576   9.338  0.2281  0.0224 -0.4607
  406POPI   C1A 6487  12.936   1.661   8.944  0.1915  0.1633 -0.3149
  406POPI   D2A 6488  13.123   1.536   8.553 -0.2391 -0.1476  0.2004
  406POPI   C3A 6489  13.523   1.500   8.356 -0.2114 -0.0115  0.1998
  406POPI   C4A 6490  13.812   1.540   8.105 -0.1575 -0.1930  0.0264
  406POPI   C1B 6491  12.502   1.433   8.897  0.1518  0.1874  0.1028
  406POPI   C2B 6492  12.234   1.487   8.583 -0.3457 -0.1080  0.0139
  406POPI   C3B 6493  12.030   1.497   8.117  0.4419  0.0683 -0.1822
  406POPI   C4B 6494  11.745   1.441   7.904  0.0281 -0.1210 -0.3770
  407POPI    C1 6495   6.219   6.548  10.041 -0.2586  0.0484  0.0645
  407POPI    C2 6496   6.612   6.473  10.036 -0.1649  0.5040  0.1238
  407POPI    C3 6497   6.362   6.220  10.219  0.0423 -0.0168 -0.2850
  407POPI   PO4 6498   6.297   6.801   9.849  0.0468  0.0468  0.0068
  407POPI   GL1 6499   6.279   6.815   9.413 -0.0691  0.3588 -0.1054
  407POPI   GL2 6500   6.534   6.975   9.284 -0.0954  0.0196  0.0086
  407POPI   C1A 6501   6.099   6.712   9.016 -0.1117 -0.1148 -0.2640
  407POPI   D2A 6502   5.775   6.857   8.661  0.1429  0.2603 -0.0844
  407POPI   C3A 6503   5.875   6.655   8.208 -0.3171 -0.0734 -0.2205
  407POPI   C4A 6504   5.880   6.652   7.732 -0.4171 -0.0246 -0.0863
  407POPI   C1B 6505   6.564   6.899   8.794 -0.4421 -0.1325 -0.1902
  407POPI   C2B 6506   6.283   6.696   8.481 -0.1089  0.0996 -0.0647
  407POPI   C3B 6507   6.343   6.501   8.034 -0.2024 -0.0606  0.0957
  407POPI   C4B 6508   6.425   6.654   7.541  0.0394 -0.2644  0.0116
  408POPI    C1 6509  10.593  17.437   9.866  0.5119 -0.1765 -0.0732
  408POPI    C2 6510  10.757  17.794   9.938  0.0713  0.0072  0.0560
  408POPI    C3 6511  10.752  17.515  10.225  0.0363  0.0502  0.0975
  408POPI   PO4 6512  10.549  17.438   9.550 -0.1141  0.1669 -0.2897
  408POPI   GL1 6513  10.765  17.171   9.252 -0.0825  0.0947 -0.0469
  408POPI   GL2 6514  10.990  17.050   9.261 -0.0502  0.1403  0.1103
  408POPI   C1A 6515  10.380  16.927   9.189  0.2802 -0.2131 -0.0980
  408POPI   D2A 6516  10.086  16.987   8.986 -0.1849  0.0976 -0.1189
  408POPI   C3A 6517  10.088  17.287   8.757 -0.2958 -0.1058  0.0057
  408POPI   C4A 6518  10.179  17.626   8.527  0.2455  0.2643  0.2458
  408POPI   C1B 6519  11.118  17.031   8.810  0.1774 -0.0857 -0.3433
  408POPI   C2B 6520  10.988  16.697   8.634  0.0217  0.0629 -0.1821
  408POPI   C3B 6521  10.741  16.608   8.191 -0.2931 -0.1043 -0.5175
  408POPI   C4B 6522  10.804  16.561   7.790 -0.1668 -0.2097 -0.0914
  409POPI    C1 6523   6.403  16.475   9.710 -0.1627  0.0564 -0.0883
  409POPI    C2 6524   6.517  16.857   9.676 -0.0463  0.0330  0.0325
  409POPI    C3 6525   6.490  16.688  10.038  0.3385 -0.2029 -0.0437
  409POPI   PO4 6526   6.554  16.289   9.569  0.1752 -0.2706  0.1592
  409POPI   GL1 6527   6.797  16.190   9.201 -0.0145 -0.2924  0.1182
  409POPI   GL2 6528   6.862  16.584   9.287 -0.1581 -0.0114  0.2102
  409POPI   C1A 6529   6.575  16.072   8.785  0.0293 -0.4660 -0.3813
  409POPI   D2A 6530   6.439  16.189   8.442 -0.1572  0.3918  0.0788
  409POPI   C3A 6531   6.100  16.169   8.190  0.4137  0.2869  0.4347
  409POPI   C4A 6532   5.921  16.458   7.906 -0.0241  0.2305 -0.2291
  409POPI   C1B 6533   6.756  16.636   8.856  0.0414 -0.0847  0.1986
  409POPI   C2B 6534   6.709  16.635   8.396  0.0809  0.0919 -0.1991
  409POPI   C3B 6535   6.673  16.546   8.014  0.2191  0.0345 -0.2739
  409POPI   C4B 6536   6.392  16.436   7.616 -0.2051  0.0219  0.3229
  410POPI    C1 6537   5.719  12.516  10.031 -0.1251 -0.0547 -0.1765
  410POPI    C2 6538   6.099  12.611  10.114 -0.1756 -0.0363  0.0395
  410POPI    C3 6539   5.946  12.266  10.246 -0.1738 -0.1403 -0.2242
  410POPI   PO4 6540   5.748  12.574   9.687  0.1891  0.1443 -0.3153
  410POPI   GL1 6541   5.875  12.277   9.323  0.2206  0.1419 -0.2812
  410POPI   GL2 6542   5.580  12.193   9.320 -0.3996 -0.1785  0.0977
  410POPI   C1A 6543   6.103  12.144   8.912 -0.0681  0.0288 -0.2606
  410POPI   D2A 6544   6.337  12.120   8.619 -0.3952 -0.2491  0.0965
  410POPI   C3A 6545   6.185  12.052   8.294  0.2487  0.3657 -0.1644
  410POPI   C4A 6546   6.017  11.783   7.851 -0.2360 -0.0451 -0.1008
  410POPI   C1B 6547   5.613  12.409   8.849 -0.1637 -0.1946  0.0271
  410POPI   C2B 6548   5.487  12.416   8.365 -0.1836 -0.0150 -0.1941
  410POPI   C3B 6549   5.548  12.682   8.070  0.2879  0.0563 -0.0867
  410POPI   C4B 6550   5.755  12.972   7.679 -0.3804  0.0586  0.2526
  411POPI    C1 6551   0.987   9.309   9.740 -0.0988  0.1553 -0.0405
  411POPI    C2 6552   0.840   9.067  10.023 -0.0631  0.1083 -0.0619
  411POPI    C3 6553   1.131   8.939   9.781 -0.1254  0.1324 -0.1502
  411POPI   PO4 6554   0.789   9.346   9.566  0.0573 -0.3207  0.2315
  411POPI   GL1 6555   0.754   9.184   9.228  0.4846 -0.2791  0.1125
  411POPI   GL2 6556   0.445   9.196   9.228  0.2315 -0.0486  0.1191
  411POPI   C1A 6557   0.792   9.367   8.810  0.2604  0.2655 -0.1270
  411POPI   D2A 6558   0.915   9.465   8.340  0.0257  0.0928 -0.1033
  411POPI   C3A 6559   0.722   9.369   7.981  0.3247  0.4581 -0.3062
  411POPI   C4A 6560   0.486   9.648   7.787  0.1459  0.2674  0.3516
  411POPI   C1B 6561   0.157   9.071   8.837  0.2002 -0.1222 -0.1619
  411POPI   C2B 6562  -0.112   8.914   8.551  0.2317 -0.0220 -0.1094
  411POPI   C3B 6563  -0.427   8.749   8.340  0.1163 -0.2425 -0.1931
  411POPI   C4B 6564  -0.565   8.707   7.891  0.4137  0.1562 -0.0163
  412POPI    C1 6565   1.686   1.264   9.878 -0.2420 -0.1183 -0.4015
  412POPI    C2 6566   1.518   1.244  10.240  0.0130 -0.1312 -0.2811
  412POPI    C3 6567   1.782   0.966  10.127  0.0929 -0.0103 -0.3952
  412POPI   PO4 6568   1.635   1.457   9.797 -0.1805 -0.1347  0.5042
  412POPI   GL1 6569   1.247   1.635   9.529 -0.1741 -0.0909  0.0144
  412POPI   GL2 6570   1.557   1.636   9.325  0.3198  0.0100 -0.2445
  412POPI   C1A 6571   1.077   1.340   9.415  0.0104  0.0349  0.1585
  412POPI   D2A 6572   1.125   0.962   9.260 -0.0964  0.0797 -0.0598
  412POPI   C3A 6573   1.123   0.916   8.953 -0.1806  0.2083 -0.0100
  412POPI   C4A 6574   1.399   1.078   8.654  0.0944  0.0486 -0.0860
  412POPI   C1B 6575   1.296   1.526   8.985  0.0155  0.3492 -0.0950
  412POPI   C2B 6576   0.841   1.299   9.002  0.1108 -0.0787  0.1107
  412POPI   C3B 6577   0.727   1.166   8.607  0.1532  0.0448  0.1001
  412POPI   C4B 6578   0.554   1.100   8.229 -0.0909  0.1354  0.1549
  413POPI    C1 6579   1.901   7.366   9.892  0.2540 -0.2768  0.0888
  413POPI    C2 6580   2.280   7.472   9.821  0.2338 -0.2537  0.0142
  413POPI    C3 6581   2.119   7.533  10.182  0.1910  0.0662 -0.0555
  413POPI   PO4 6582   1.811   7.299   9.653 -0.1347  0.1506  0.2307
  413POPI   GL1 6583   1.733   7.437   9.192 -0.0956 -0.0852  0.1156
  413POPI   GL2 6584   1.622   7.628   9.241 -0.1623 -0.0614  0.0596
  413POPI   C1A 6585   1.683   7.321   8.684 -0.3112 -0.2669 -0.0361
  413POPI   D2A 6586   1.771   7.263   8.220  0.1573 -0.3236 -0.2789
  413POPI   C3A 6587   1.813   7.007   8.000 -0.1778  0.1968  0.0033
  413POPI   C4A 6588   2.043   6.832   7.688  0.0667 -0.0826 -0.2805
  413POPI   C1B 6589   1.367   7.703   8.878  0.2860  0.0752  0.2902
  413POPI   C2B 6590   1.450   7.656   8.435  0.0368 -0.0478 -0.1792
  413POPI   C3B 6591   1.589   7.651   8.027  0.1026 -0.1174  0.2091
  413POPI   C4B 6592   1.671   7.372   7.745  0.0671 -0.5554 -0.0552
  414POPI    C1 6593   1.470  17.250  10.743 -0.1035 -0.0137 -0.2962
  414POPI    C2 6594   1.396  17.554  10.991  0.0335 -0.0384 -0.2240
  414POPI    C3 6595   1.755  17.377  10.993 -0.0748 -0.2622 -0.1992
  414POPI   PO4 6596   1.350  17.317  10.493 -0.3259 -0.1109  0.0077
  414POPI   GL1 6597   1.454  17.422  10.022 -0.1437  0.3262 -0.0215
  414POPI   GL2 6598   1.730  17.235  10.039 -0.1485  0.1396 -0.1526
  414POPI   C1A 6599   1.229  17.455   9.591 -0.3181 -0.0210  0.2356
  414POPI   D2A 6600   1.096  17.396   9.149 -0.3842  0.1078 -0.2166
  414POPI   C3A 6601   1.315  17.157   8.877  0.1329 -0.1766 -0.4276
  414POPI   C4A 6602   1.468  16.732   9.014 -0.0198  0.0778 -0.0934
  414POPI   C1B 6603   1.710  17.327   9.628  0.0701 -0.3795 -0.0809
  414POPI   C2B 6604   1.758  17.266   9.199  0.1088 -0.0045  0.3725
  414POPI   C3B 6605   1.842  16.970   8.875 -0.1393 -0.3698  0.1396
  414POPI   C4B 6606   1.625  16.881   8.454 -0.2478  0.0287 -0.1159
  415POPI    C1 6607  11.033   1.539   9.603 -0.0579  0.1746 -0.2897
  415POPI    C2 6608  11.064   1.388   9.234 -0.2291 -0.2997 -0.1172
  415POPI    C3 6609  10.725   1.565   9.349 -0.1427 -0.0676 -0.2144
  415POPI   PO4 6610  11.266   1.553   9.629  0.3042 -0.2269  0.0040
  415POPI   GL1 6611  11.572   1.630   9.276  0.0967 -0.2905  0.0179
  415POPI   GL2 6612  11.233   1.885   9.264 -0.3782  0.0795  0.1426
  415POPI   C1A 6613  11.529   1.577   9.002 -0.0477  0.2891  0.2408
  415POPI   D2A 6614  11.676   1.589   8.599 -0.2357 -0.0202  0.2614
  415POPI   C3A 6615  11.660   1.142   8.312 -0.4190 -0.0256 -0.1850
  415POPI   C4A 6616  11.984   0.989   8.015 -0.0028  0.2705  0.1640
  415POPI   C1B 6617  11.174   1.653   8.738 -0.0076  0.0214  0.0255
  415POPI   C2B 6618  11.233   1.576   8.310 -0.1244  0.1984 -0.4776
  415POPI   C3B 6619  11.275   1.327   7.926  0.2842  0.4509  0.2284
  415POPI   C4B 6620  11.027   1.027   7.790  0.0291  0.0334 -0.4041
  416POPI    C1 6621  12.425   8.132  10.618 -0.3669 -0.2346  0.0744
  416POPI    C2 6622  12.414   8.410  10.905 -0.0332  0.0915 -0.2172
  416POPI    C3 6623  12.626   8.075  10.960  0.0439  0.1602 -0.0904
  416POPI   PO4 6624  12.466   8.229  10.434  0.1270  0.3150 -0.2851
  416POPI   GL1 6625  12.473   8.402  10.061  0.0837 -0.1159  0.0561
  416POPI   GL2 6626  12.493   8.170   9.808 -0.1005 -0.1374  0.2696
  416POPI   C1A 6627  12.172   8.611   9.909  0.2976  0.0348  0.0819
  416POPI   D2A 6628  12.068   8.917   9.573  0.0564  0.0067 -0.1587
  416POPI   C3A 6629  12.216   9.303   9.747 -0.3784 -0.1157 -0.2606
  416POPI   C4A 6630  12.442   9.702   9.687 -0.0467 -0.2531 -0.1165
  416POPI   C1B 6631  12.329   8.404   9.430 -0.6631  0.0050 -0.1954
  416POPI   C2B 6632  12.125   8.670   9.106 -0.0281 -0.0318  0.2934
  416POPI   C3B 6633  12.052   9.059   9.130  0.2619  0.1914 -0.1579
  416POPI   C4B 6634  12.286   9.438   9.192 -0.0926  0.2521  0.0476
  417POPI    C1 6635  10.918   0.602   9.899  0.0426 -0.3243 -0.0499
  417POPI    C2 6636  11.240   0.770  10.066  0.1077 -0.2006 -0.2963
  417POPI    C3 6637  10.897   0.748  10.271  0.0767  0.2987 -0.2822
  417POPI   PO4 6638  10.905   0.677   9.661  0.0763 -0.0445 -0.1466
  417POPI   GL1 6639  10.706   0.698   9.334 -0.1021  0.1574 -0.1194
  417POPI   GL2 6640  10.755   0.531   9.050 -0.0482  0.2187 -0.0637
  417POPI   C1A 6641  10.759   1.073   9.165  0.0394 -0.0700  0.2072
  417POPI   D2A 6642  10.720   1.480   8.856  0.1786  0.0427 -0.0841
  417POPI   C3A 6643  10.315   1.659   8.626 -0.3792 -0.0412  0.0722
  417POPI   C4A 6644   9.937   1.457   8.715 -0.1333  0.2360  0.1603
  417POPI   C1B 6645  10.879   0.214   8.811 -0.1859 -0.2087  0.0094
  417POPI   C2B 6646  10.778   0.099   8.418  0.1845 -0.3442  0.2198
  417POPI   C3B 6647  10.965  -0.108   8.050  0.2245  0.0442  0.2159
  417POPI   C4B 6648  11.015  -0.296   7.743  0.0317  0.4844 -0.0982
  418POPI    C1 6649   1.461  11.026  10.091  0.1632  0.3370  0.1071
  418POPI    C2 6650   1.716  10.719  10.056  0.0835  0.2641  0.1628
  418POPI    C3 6651   1.572  10.821  10.416 -0.1705  0.1368  0.0994
  418POPI   PO4 6652   1.470  11.101   9.834  0.0476  0.0947 -0.1892
  418POPI   GL1 6653   1.604  10.965   9.513 -0.1565  0.0299  0.2656
  418POPI   GL2 6654   1.438  10.746   9.404 -0.0836  0.0125  0.1675
  418POPI   C1A 6655   1.850  11.129   9.169  0.4783  0.0725  0.1535
  418POPI   D2A 6656   2.326  11.060   9.059  0.0132 -0.1860  0.0081
  418POPI   C3A 6657   2.333  11.077   8.568 -0.0573  0.1903  0.0222
  418POPI   C4A 6658   2.166  11.267   8.095  0.0068 -0.1528  0.2420
  418POPI   C1B 6659   1.437  10.832   8.930 -0.1021  0.2754 -0.0247
  418POPI   C2B 6660   1.420  10.662   8.415 -0.2841 -0.2846 -0.0679
  418POPI   C3B 6661   1.131  10.637   8.143  0.2423 -0.0869  0.0007
  418POPI   C4B 6662   0.890  10.887   7.785  0.5018 -0.1982 -0.1226
  419POPI    C1 6663  13.138   0.369   9.848  0.1783  0.0099 -0.0483
  419POPI    C2 6664  13.324   0.723   9.864  0.3366 -0.0816  0.2166
  419POPI    C3 6665  12.999   0.658  10.088  0.0208  0.0524 -0.1892
  419POPI   PO4 6666  13.015   0.370   9.622  0.1519  0.1643 -0.0404
  419POPI   GL1 6667  12.957   0.040   9.309  0.1803 -0.1517 -0.0788
  419POPI   GL2 6668  13.128  -0.108   9.503  0.3116 -0.1190  0.1338
  419POPI   C1A 6669  13.020   0.152   8.933  0.1088  0.0801  0.3217
  419POPI   D2A 6670  13.116  -0.005   8.518  0.1356  0.0851 -0.0539
  419POPI   C3A 6671  12.900   0.307   8.209 -0.2651  0.1658  0.0667
  419POPI   C4A 6672  12.730   0.568   7.801 -0.0522  0.0866 -0.0020
  419POPI   C1B 6673  13.417  -0.263   9.177 -0.0136  0.3017 -0.0505
  419POPI   C2B 6674  13.551  -0.208   8.725  0.3134  0.0577 -0.0692
  419POPI   C3B 6675  13.520  -0.253   8.352 -0.0362 -0.0711  0.0924
  419POPI   C4B 6676  13.284   0.018   7.972 -0.0636 -0.0926 -0.2575
  420POPI    C1 6677   6.371  11.865   9.774 -0.0198  0.2001  0.0086
  420POPI    C2 6678   6.157  12.202   9.754 -0.2076  0.0974  0.2404
  420POPI    C3 6679   6.397  12.137  10.066 -0.1799  0.0113  0.2012
  420POPI   PO4 6680   6.366  11.873   9.508 -0.2847  0.1506  0.1636
  420POPI   GL1 6681   6.755  11.925   9.231  0.0392 -0.2132  0.0226
  420POPI   GL2 6682   6.504  11.897   9.027  0.0700 -0.1591 -0.0710
  420POPI   C1A 6683   6.910  12.015   8.715 -0.1565  0.0783  0.0307
  420POPI   D2A 6684   7.002  12.297   8.451 -0.0385 -0.2857  0.0990
  420POPI   C3A 6685   7.112  12.463   8.049 -0.0463 -0.3204  0.0884
  420POPI   C4A 6686   7.069  12.626   7.613 -0.2003 -0.3223  0.1216
  420POPI   C1B 6687   6.313  11.596   8.710 -0.0215  0.2101  0.0172
  420POPI   C2B 6688   6.269  11.377   8.245 -0.0986 -0.3158 -0.0395
  420POPI   C3B 6689   6.336  11.270   7.823 -0.3298  0.2893  0.1396
  420POPI   C4B 6690   6.341  11.427   7.389 -0.0232  0.2676  0.1817
  421POPI    C1 6691   7.581   2.880  10.214 -0.0713 -0.0334  0.2022
  421POPI    C2 6692   7.831   2.568  10.230 -0.1132 -0.0687  0.1701
  421POPI    C3 6693   7.465   2.539  10.388 -0.0961 -0.0158  0.2202
  421POPI   PO4 6694   7.567   2.975   9.936 -0.1577 -0.1877  0.3536
  421POPI   GL1 6695   7.796   3.056   9.656 -0.0128 -0.0825 -0.0912
  421POPI   GL2 6696   7.541   3.106   9.372 -0.2110  0.0268  0.3433
  421POPI   C1A 6697   7.993   2.849   9.352  0.1684  0.4305  0.1954
  421POPI   D2A 6698   8.171   2.622   9.168 -0.4132  0.0141  0.1872
  421POPI   C3A 6699   7.951   2.516   8.802 -0.1121 -0.1956 -0.0566
  421POPI   C4A 6700   8.103   2.514   8.441  0.2081  0.0757  0.2511
  421POPI   C1B 6701   7.739   3.030   8.939 -0.1631  0.0344  0.0738
  421POPI   C2B 6702   7.972   3.072   8.588  0.0581 -0.0037 -0.0356
  421POPI   C3B 6703   7.986   3.027   8.131  0.2437 -0.0275 -0.2278
  421POPI   C4B 6704   7.985   2.955   7.717  0.0413 -0.3045  0.0843
  422POPI    C1 6705   8.106   6.755   9.756 -0.1695 -0.0997 -0.1497
  422POPI    C2 6706   8.331   7.070   9.656 -0.0272 -0.1228  0.0906
  422POPI    C3 6707   8.159   7.054  10.017 -0.1817 -0.2378  0.0128
  422POPI   PO4 6708   8.275   6.574   9.586 -0.5858  0.3334  0.2958
  422POPI   GL1 6709   8.237   6.503   9.106  0.2598 -0.1941 -0.0768
  422POPI   GL2 6710   8.560   6.350   9.066  0.3762  0.1180  0.0361
  422POPI   C1A 6711   8.127   6.545   8.675 -0.0432  0.2416  0.0056
  422POPI   D2A 6712   8.233   6.455   8.204 -0.1565  0.5083  0.2205
  422POPI   C3A 6713   8.538   6.551   7.868 -0.0880 -0.0161  0.3040
  422POPI   C4A 6714   8.586   6.700   7.458  0.1571  0.1024 -0.3378
  422POPI   C1B 6715   8.553   6.359   8.584 -0.1264 -0.1747 -0.0594
  422POPI   C2B 6716   8.715   6.667   8.309  0.1697 -0.2366 -0.0147
  422POPI   C3B 6717   8.608   7.080   8.166 -0.0092  0.1483 -0.2736
  422POPI   C4B 6718   8.912   7.266   7.884 -0.0556 -0.0469  0.2396
  423POPI    C1 6719   6.489  13.032  10.071  0.0717  0.1436  0.0713
  423POPI    C2 6720   6.250  13.197  10.346 -0.0584 -0.2035  0.1720
  423POPI    C3 6721   6.434  12.851  10.423  0.1405 -0.1542 -0.0683
  423POPI   PO4 6722   6.444  13.245   9.856  0.0080  0.0166  0.1453
  423POPI   GL1 6723   6.219  13.214   9.449 -0.3645  0.0005 -0.0157
  423POPI   GL2 6724   6.299  13.529   9.423  0.0309 -0.0295  0.2072
  423POPI   C1A 6725   6.007  13.311   9.096  0.0271  0.0047 -0.0440
  423POPI   D2A 6726   6.004  13.373   8.665  0.1657  0.0856 -0.4091
  423POPI   C3A 6727   6.311  13.487   8.311 -0.1055 -0.1572 -0.0202
  423POPI   C4A 6728   6.591  13.380   8.135  0.0281 -0.4105  0.1786
  423POPI   C1B 6729   6.252  13.763   9.081 -0.1105 -0.0159 -0.1634
  423POPI   C2B 6730   6.358  13.856   8.676  0.1302  0.1051 -0.1557
  423POPI   C3B 6731   6.781  13.699   8.537  0.1571 -0.1292  0.2111
  423POPI   C4B 6732   7.113  13.510   8.210 -0.0307 -0.2712  0.0570
  424POPI    C1 6733   3.164   2.166  10.399  0.1600  0.3315 -0.1084
  424POPI    C2 6734   2.831   2.386  10.370 -0.1441 -0.0921  0.0654
  424POPI    C3 6735   2.921   2.205  10.715  0.2222 -0.0571 -0.0080
  424POPI   PO4 6736   3.246   1.950  10.121 -0.0417  0.0721  0.0627
  424POPI   GL1 6737   3.145   1.888   9.717  0.3724 -0.0744  0.0325
  424POPI   GL2 6738   3.269   2.082   9.520  0.0502  0.0847 -0.1528
  424POPI   C1A 6739   3.139   1.593   9.314  0.1676  0.1368 -0.1685
  424POPI   D2A 6740   3.002   1.591   8.783  0.1402 -0.0369  0.0640
  424POPI   C3A 6741   3.197   1.357   8.489  0.0582  0.4777 -0.3165
  424POPI   C4A 6742   3.222   1.298   8.026 -0.1537 -0.0285 -0.1663
  424POPI   C1B 6743   3.103   2.191   9.211  0.3462 -0.2332  0.0684
  424POPI   C2B 6744   3.055   2.162   8.758  0.0817 -0.2833 -0.0154
  424POPI   C3B 6745   3.146   2.414   8.434 -0.1205 -0.2186 -0.1798
  424POPI   C4B 6746   2.864   2.396   8.101 -0.1719  0.2405 -0.0274
  425POPI    C1 6747  18.454   3.013  10.560 -0.2005  0.0357  0.1597
  425POPI    C2 6748  18.457   2.645  10.403  0.0362  0.1385 -0.0844
  425POPI    C3 6749  18.493   2.694  10.799  0.1975 -0.0929 -0.0680
  425POPI   PO4 6750  18.513   3.128  10.318 -0.4979 -0.1542 -0.1451
  425POPI   GL1 6751  18.888   3.224   9.988  0.0852  0.0376 -0.2723
  425POPI   GL2 6752  19.071   3.497   9.793 -0.2279  0.1961  0.3110
  425POPI   C1A 6753  18.490   3.244   9.697  0.2788 -0.1307 -0.3146
  425POPI   D2A 6754  18.180   3.010   9.462 -0.0177  0.2406 -0.2539
  425POPI   C3A 6755  18.249   3.030   9.040  0.1250  0.0573 -0.0140
  425POPI   C4A 6756  17.934   2.765   8.745  0.0982 -0.3286  0.0681
  425POPI   C1B 6757  18.862   3.517   9.444 -0.3367  0.1924  0.1052
  425POPI   C2B 6758  18.438   3.473   9.252  0.1362 -0.1082 -0.0628
  425POPI   C3B 6759  18.203   3.511   8.914  0.0548 -0.2908 -0.2410
  425POPI   C4B 6760  17.913   3.703   8.560 -0.0564 -0.1792 -0.3230
  426POPI    C1 6761  17.448   3.168  10.394  0.0063 -0.1541 -0.1447
  426POPI    C2 6762  17.186   3.469  10.366  0.0219 -0.1266 -0.0029
  426POPI    C3 6763  17.360   3.387  10.717  0.0417 -0.2811 -0.0481
  426POPI   PO4 6764  17.539   3.190  10.144  0.0815 -0.1871 -0.0468
  426POPI   GL1 6765  17.480   3.137   9.798 -0.1025 -0.0100  0.1176
  426POPI   GL2 6766  17.676   2.965   9.585 -0.0438 -0.2405  0.0080
  426POPI   C1A 6767  17.375   3.439   9.497  0.0978 -0.0274  0.0479
  426POPI   D2A 6768  17.350   3.363   9.082 -0.4709 -0.0222  0.0993
  426POPI   C3A 6769  17.462   3.584   8.671 -0.0751  0.0175  0.1034
  426POPI   C4A 6770  17.287   3.871   8.349  0.2024 -0.2753 -0.1527
  426POPI   C1B 6771  17.740   3.021   9.144  0.0672 -0.0395 -0.1000
  426POPI   C2B 6772  17.795   3.247   8.798 -0.0161 -0.1832 -0.0117
  426POPI   C3B 6773  17.997   3.244   8.363 -0.1751 -0.0145  0.3196
  426POPI   C4B 6774  18.054   3.358   7.984  0.2301 -0.2683 -0.0387
  427POPI    C1 6775  11.859   6.592   9.932 -0.1907  0.2249 -0.1134
  427POPI    C2 6776  12.228   6.718  10.023 -0.2382  0.2979 -0.0199
  427POPI    C3 6777  12.022   6.496  10.284 -0.2269  0.1824 -0.1081
  427POPI   PO4 6778  11.915   6.441   9.688 -0.1033 -0.2402  0.1676
  427POPI   GL1 6779  11.961   6.366   9.283 -0.0716 -0.1534 -0.2123
  427POPI   GL2 6780  12.298   6.280   9.260 -0.0682  0.0414  0.1391
  427POPI   C1A 6781  11.895   6.374   8.920  0.3289 -0.1596  0.2182
  427POPI   D2A 6782  11.837   6.064   8.539 -0.1598  0.1972  0.2589
  427POPI   C3A 6783  11.756   6.062   8.108  0.0783 -0.2889 -0.1090
  427POPI   C4A 6784  11.624   6.126   7.732 -0.5333  0.3457  0.0182
  427POPI   C1B 6785  12.317   6.158   8.706  0.3072 -0.1998 -0.1959
  427POPI   C2B 6786  12.311   6.120   8.250 -0.1077 -0.0498  0.0594
  427POPI   C3B 6787  12.525   6.193   7.833  0.1165 -0.1377  0.0350
  427POPI   C4B 6788  12.865   5.932   7.721  0.1523  0.0539 -0.2744
  428POPI    C1 6789  11.414   9.314  10.159  0.3830  0.0194 -0.0263
  428POPI    C2 6790  11.382   9.534  10.491  0.0923 -0.0575 -0.0005
  428POPI    C3 6791  11.299   9.696  10.135 -0.0987 -0.1155  0.0162
  428POPI   PO4 6792  11.530   9.108  10.227  0.0594  0.0623 -0.2050
  428POPI   GL1 6793  11.641   8.933   9.851 -0.0316 -0.1060 -0.0303
  428POPI   GL2 6794  11.365   8.823   9.806  0.0681  0.0788 -0.0113
  428POPI   C1A 6795  11.641   8.835   9.341  0.0259 -0.0329 -0.1056
  428POPI   D2A 6796  11.451   9.160   8.958  0.0063  0.2481  0.2853
  428POPI   C3A 6797  11.119   9.428   9.016 -0.1262 -0.2097  0.2756
  428POPI   C4A 6798  10.603   9.452   9.281  0.2862 -0.1447 -0.1177
  428POPI   C1B 6799  11.173   8.853   9.370 -0.1214 -0.0560 -0.2752
  428POPI   C2B 6800  10.839   9.049   9.164  0.3311 -0.0860 -0.2118
  428POPI   C3B 6801  10.648   9.297   8.810 -0.4360  0.1244  0.2167
  428POPI   C4B 6802  10.331   9.615   8.676 -0.0066 -0.2298 -0.0005
  429POPI    C1 6803   1.921   4.210  10.522 -0.4190  0.0154  0.2561
  429POPI    C2 6804   2.080   4.426  10.819 -0.1998 -0.0873  0.2148
  429POPI    C3 6805   1.691   4.335  10.825 -0.2269  0.0351  0.3959
  429POPI   PO4 6806   2.072   4.325  10.281  0.0415 -0.2204 -0.0605
  429POPI   GL1 6807   1.847   4.685  10.027  0.2419  0.0886 -0.2078
  429POPI   GL2 6808   1.829   4.340   9.820 -0.2206  0.0006  0.2966
  429POPI   C1A 6809   1.652   4.698   9.530  0.0395  0.1092  0.1200
  429POPI   D2A 6810   1.305   4.611   9.378  0.2114  0.4303 -0.1750
  429POPI   C3A 6811   1.051   4.324   9.377 -0.1571  0.3234  0.2289
  429POPI   C4A 6812   0.888   4.128   9.058 -0.0327  0.0972  0.4831
  429POPI   C1B 6813   1.952   4.254   9.294 -0.1097 -0.4264  0.2588
  429POPI   C2B 6814   1.856   4.203   8.924 -0.2375 -0.0984  0.0801
  429POPI   C3B 6815   1.563   4.238   8.466  0.1052  0.0901 -0.1425
  429POPI   C4B 6816   1.199   4.348   8.173  0.0399  0.1317  0.0374
  430POPI    C1 6817  13.402  16.200  10.237 -0.0743  0.1668 -0.0288
  430POPI    C2 6818  13.099  16.230  10.496  0.0393  0.0486  0.1196
  430POPI    C3 6819  13.328  15.902  10.493  0.0308  0.0433 -0.1405
  430POPI   PO4 6820  13.184  16.250   9.942 -0.0767 -0.4094  0.2194
  430POPI   GL1 6821  12.951  16.047   9.582 -0.1609  0.0827  0.3784
  430POPI   GL2 6822  13.086  16.313   9.452  0.4179 -0.2122 -0.0901
  430POPI   C1A 6823  12.866  15.904   9.134  0.0388 -0.4149 -0.0234
  430POPI   D2A 6824  13.124  15.826   8.747  0.0411  0.1148 -0.1067
  430POPI   C3A 6825  13.135  16.057   8.401 -0.1826  0.0661 -0.1038
  430POPI   C4A 6826  13.381  16.187   8.143 -0.0602  0.0409  0.4793
  430POPI   C1B 6827  13.005  16.375   9.068  0.0333 -0.1317  0.0190
  430POPI   C2B 6828  12.732  16.330   8.718  0.1145 -0.0009  0.0864
  430POPI   C3B 6829  12.634  16.305   8.328  0.2330  0.1610 -0.0184
  430POPI   C4B 6830  12.418  16.038   8.122 -0.0283  0.3819 -0.1353
  431POPI    C1 6831   3.275  14.274  10.010  0.3843 -0.2318 -0.0982
  431POPI    C2 6832   3.228  14.560  10.287 -0.3862 -0.3840 -0.0494
  431POPI    C3 6833   3.541  14.312  10.307  0.1507  0.2729  0.0595
  431POPI   PO4 6834   3.121  14.141  10.022 -0.0748  0.4521 -0.1707
  431POPI   GL1 6835   2.997  14.179   9.638  0.3900 -0.1216 -0.1571
  431POPI   GL2 6836   3.223  14.267   9.493 -0.0112  0.1735  0.0108
  431POPI   C1A 6837   2.799  14.132   9.321  0.1786  0.0283 -0.1988
  431POPI   D2A 6838   2.533  13.924   9.085 -0.0378 -0.2213 -0.0584
  431POPI   C3A 6839   2.400  14.222   8.764  0.0372  0.0203 -0.4081
  431POPI   C4A 6840   2.244  14.447   8.469 -0.1811 -0.0531  0.3006
  431POPI   C1B 6841   3.658  14.532   9.393  0.0758  0.2407  0.2614
  431POPI   C2B 6842   3.888  14.815   9.085  0.0637  0.0384 -0.1115
  431POPI   C3B 6843   3.986  14.973   8.632  0.1068  0.3799 -0.0965
  431POPI   C4B 6844   4.120  15.116   8.267 -0.0157 -0.0757  0.2863
  432POPI    C1 6845   4.161   1.215   9.921 -0.1500 -0.0869 -0.1247
  432POPI    C2 6846   4.189   1.579  10.085  0.2196 -0.1504 -0.0370
  432POPI    C3 6847   3.936   1.514   9.782 -0.1147  0.0876  0.1839
  432POPI   PO4 6848   4.316   1.102   9.967  0.1146 -0.1656  0.1878
  432POPI   GL1 6849   4.414   0.665   9.740  0.2038  0.1707  0.1297
  432POPI   GL2 6850   4.614   0.905   9.602  0.0824  0.2368  0.3338
  432POPI   C1A 6851   4.037   0.322   9.629  0.1521 -0.1130 -0.1679
  432POPI   D2A 6852   3.730   0.176   9.396 -0.2516 -0.4994  0.0235
  432POPI   C3A 6853   3.834   0.284   8.931  0.1135 -0.1803 -0.0327
  432POPI   C4A 6854   4.211   0.538   8.753  0.2285 -0.2579  0.0906
  432POPI   C1B 6855   4.486   0.923   9.172 -0.0316  0.0918  0.0639
  432POPI   C2B 6856   4.197   1.050   8.775 -0.0410  0.0321 -0.3715
  432POPI   C3B 6857   4.160   0.910   8.409 -0.2676 -0.0242  0.0742
  432POPI   C4B 6858   4.227   1.016   7.989 -0.0578 -0.0251 -0.0215
  433POPI    C1 6859  14.911  16.065  10.133  0.1312 -0.1074  0.2580
  433POPI    C2 6860  15.079  16.376   9.945  0.0566 -0.0539  0.2796
  433POPI    C3 6861  15.088  16.354  10.345  0.0398 -0.0670  0.2794
  433POPI   PO4 6862  14.757  16.010   9.970  0.1406  0.1869 -0.1281
  433POPI   GL1 6863  14.954  15.986   9.537 -0.0320  0.0341  0.3050
  433POPI   GL2 6864  14.776  16.241   9.551 -0.3337  0.1505 -0.1030
  433POPI   C1A 6865  15.154  16.081   9.118  0.0504 -0.2167  0.1139
  433POPI   D2A 6866  15.241  15.839   8.809 -0.2435  0.1737 -0.2387
  433POPI   C3A 6867  15.084  15.844   8.403 -0.2057 -0.0503 -0.1267
  433POPI   C4A 6868  15.117  16.100   8.110  0.0941 -0.0300 -0.3005
  433POPI   C1B 6869  14.841  16.519   9.299 -0.3378  0.0834  0.2405
  433POPI   C2B 6870  15.042  16.531   8.873 -0.2634  0.3388 -0.1156
  433POPI   C3B 6871  14.835  16.602   8.572 -0.0687 -0.4547  0.1682
  433POPI   C4B 6872  14.608  16.983   8.311 -0.0937 -0.0941  0.2163
  434POPI    C1 6873  12.950  17.775   9.998 -0.0556 -0.0000  0.0418
  434POPI    C2 6874  13.048  17.520  10.290 -0.1139  0.0697  0.1227
  434POPI    C3 6875  13.292  17.824  10.200 -0.2046  0.1825  0.2546
  434POPI   PO4 6876  12.910  17.631   9.775  0.0295  0.2860 -0.0972
  434POPI   GL1 6877  13.214  17.439   9.588  0.0560 -0.1669  0.1711
  434POPI   GL2 6878  13.064  17.225   9.373  0.0859 -0.0596 -0.0401
  434POPI   C1A 6879  13.558  17.615   9.135 -0.0517  0.0633 -0.1329
  434POPI   D2A 6880  13.672  17.607   8.775 -0.0918 -0.0881 -0.1396
  434POPI   C3A 6881  13.716  17.413   8.486 -0.2333  0.0037 -0.1675
  434POPI   C4A 6882  13.857  17.618   8.039  0.0028  0.0118  0.0098
  434POPI   C1B 6883  13.067  17.394   8.994 -0.3585 -0.1910 -0.0810
  434POPI   C2B 6884  13.193  17.512   8.578  0.0968  0.1969 -0.0507
  434POPI   C3B 6885  13.362  17.738   8.204 -0.0152 -0.0976 -0.1930
  434POPI   C4B 6886  13.555  17.765   7.735 -0.1799 -0.2199  0.0655
  435POPI    C1 6887   0.095  10.835  10.527 -0.0144  0.0957  0.3142
  435POPI    C2 6888   0.099  10.527  10.782  0.2388 -0.0033  0.1942
  435POPI    C3 6889  -0.193  10.799  10.801  0.0524 -0.2110  0.3479
  435POPI   PO4 6890   0.078  10.694  10.232 -0.0219  0.2558 -0.2098
  435POPI   GL1 6891  -0.006  10.948   9.890  0.4285 -0.2070 -0.1125
  435POPI   GL2 6892  -0.273  10.919   9.678  0.1017  0.1603 -0.0082
  435POPI   C1A 6893   0.140  11.187   9.506 -0.0300 -0.0256 -0.0686
  435POPI   D2A 6894  -0.011  11.285   9.267  0.3563  0.2641 -0.4183
  435POPI   C3A 6895  -0.115  11.021   8.882 -0.4508 -0.1941  0.0665
  435POPI   C4A 6896   0.145  10.867   8.627 -0.0033 -0.1596  0.2401
  435POPI   C1B 6897  -0.362  10.913   9.361  0.2366 -0.1579 -0.0121
  435POPI   C2B 6898  -0.599  10.794   8.968  0.2333 -0.0693  0.3573
  435POPI   C3B 6899  -0.972  10.559   8.843 -0.1445  0.0729  0.0978
  435POPI   C4B 6900  -1.124  10.155   8.850  0.3188  0.2775  0.0770
  436POPI    C1 6901  16.450   6.567  10.332  0.1303  0.0864  0.0360
  436POPI    C2 6902  16.248   6.841  10.123 -0.1353 -0.0548  0.1022
  436POPI    C3 6903  16.502   6.956  10.410  0.0988  0.1337 -0.1743
  436POPI   PO4 6904  16.567   6.395  10.143 -0.1240 -0.0099  0.1155
  436POPI   GL1 6905  16.467   6.479   9.722  0.2624 -0.0963 -0.1917
  436POPI   GL2 6906  16.328   6.789   9.542 -0.0875 -0.1450 -0.1388
  436POPI   C1A 6907  16.743   6.614   9.353 -0.1420 -0.0406 -0.1118
  436POPI   D2A 6908  16.898   6.906   8.970 -0.1894 -0.3036  0.5419
  436POPI   C3A 6909  16.718   7.271   8.751  0.1844  0.2133 -0.1754
  436POPI   C4A 6910  16.308   7.608   8.597 -0.1598  0.1152 -0.2414
  436POPI   C1B 6911  16.309   6.895   9.160  0.2863 -0.1051 -0.2552
  436POPI   C2B 6912  16.465   6.816   8.722  0.3540  0.0328  0.0419
  436POPI   C3B 6913  16.316   6.978   8.273  0.3185  0.0067  0.1427
  436POPI   C4B 6914  16.372   7.142   7.835  0.0684  0.0903 -0.0548
  437POPI    C1 6915   2.476   6.452   9.971 -0.0616 -0.0006  0.0020
  437POPI    C2 6916   2.461   6.054  10.011  0.0608  0.0170  0.2392
  437POPI    C3 6917   2.797   6.252  10.102  0.0915  0.1485 -0.1411
  437POPI   PO4 6918   2.350   6.444   9.722 -0.0547  0.0664 -0.0563
  437POPI   GL1 6919   1.995   6.150   9.737 -0.0511  0.0677  0.2181
  437POPI   GL2 6920   2.212   5.871   9.555 -0.2411 -0.0030  0.0793
  437POPI   C1A 6921   1.910   6.164   9.294  0.0985  0.2499  0.1397
  437POPI   D2A 6922   2.030   5.934   8.858 -0.0050  0.1433 -0.2612
  437POPI   C3A 6923   1.911   6.156   8.491  0.0631 -0.0543  0.1427
  437POPI   C4A 6924   1.586   6.072   8.104 -0.0997  0.2159 -0.0632
  437POPI   C1B 6925   2.460   6.056   9.175 -0.0812  0.1345  0.2572
  437POPI   C2B 6926   2.427   6.144   8.692 -0.0796 -0.2621 -0.2314
  437POPI   C3B 6927   2.505   6.199   8.238 -0.1332  0.0037 -0.1322
  437POPI   C4B 6928   2.545   6.362   7.860 -0.3750 -0.3984  0.3303
  438POPI    C1 6929   4.761  15.306   9.994 -0.0260  0.2214  0.0539
  438POPI    C2 6930   4.564  15.168  10.313  0.0048  0.0057 -0.0190
  438POPI    C3 6931   4.877  15.412  10.361  0.0884 -0.1275  0.1222
  438POPI   PO4 6932   4.676  15.071   9.742  0.0278 -0.0185  0.2284
  438POPI   GL1 6933   4.354  14.979   9.492 -0.0412 -0.2332  0.3270
  438POPI   GL2 6934   4.062  14.761   9.548  0.0327  0.2455 -0.0984
  438POPI   C1A 6935   4.519  14.771   9.179  0.0497 -0.2972  0.0764
  438POPI   D2A 6936   4.910  14.933   8.967  0.0602 -0.2509 -0.1057
  438POPI   C3A 6937   4.983  14.930   8.487 -0.0124  0.0570  0.1912
  438POPI   C4A 6938   5.125  14.850   8.049  0.0871 -0.0406  0.2601
  438POPI   C1B 6939   3.689  15.090   9.516  0.3673 -0.0460 -0.1620
  438POPI   C2B 6940   3.583  15.210   9.016  0.0325 -0.2241  0.2477
  438POPI   C3B 6941   3.509  15.133   8.560  0.1258 -0.0122  0.0823
  438POPI   C4B 6942   3.493  15.134   8.111  0.0095  0.0050  0.0776
  439POPI    C1 6943  11.502  18.612   9.905  0.0025 -0.2029  0.0585
  439POPI    C2 6944  11.293  18.921   9.762  0.2837  0.0040  0.0841
  439POPI    C3 6945  11.293  18.571   9.566  0.2743  0.1365 -0.1566
  439POPI   PO4 6946  11.752  18.712   9.924  0.1959 -0.1148  0.3480
  439POPI   GL1 6947  11.765  18.911   9.559 -0.3312  0.1595  0.1882
  439POPI   GL2 6948  12.047  18.853   9.397  0.1475 -0.0525  0.0860
  439POPI   C1A 6949  11.405  18.970   9.304  0.0002 -0.0832 -0.0840
  439POPI   D2A 6950  11.387  19.019   8.895 -0.0490  0.2560  0.2834
  439POPI   C3A 6951  11.231  19.431   8.709  0.2565  0.0506 -0.2200
  439POPI   C4A 6952  10.935  19.676   8.766 -0.1706  0.1345  0.0731
  439POPI   C1B 6953  11.852  18.858   9.008 -0.0404 -0.2791 -0.2769
  439POPI   C2B 6954  11.725  18.742   8.568  0.1824  0.1555 -0.0039
  439POPI   C3B 6955  11.729  18.542   8.210  0.2273 -0.2028 -0.0115
  439POPI   C4B 6956  11.915  18.039   8.072  0.1160 -0.4918 -0.0341
  440POPI    C1 6957   3.156   0.513  10.717 -0.2728 -0.0023 -0.0663
  440POPI    C2 6958   3.115   0.797  10.996  0.1912  0.0362 -0.0297
  440POPI    C3 6959   3.042   0.414  11.088  0.1440  0.0727  0.0875
  440POPI   PO4 6960   3.039   0.627  10.499  0.1434 -0.3348  0.0246
  440POPI   GL1 6961   3.161   0.478  10.075 -0.1082  0.1318  0.2290
  440POPI   GL2 6962   3.211   0.650   9.784  0.3096 -0.0614  0.0114
  440POPI   C1A 6963   3.602   0.287   9.909 -0.2356 -0.1043  0.1129
  440POPI   D2A 6964   3.639  -0.159   9.767 -0.2892  0.0105  0.0896
  440POPI   C3A 6965   3.973  -0.303   9.509  0.0178  0.1014  0.0358
  440POPI   C4A 6966   4.012  -0.261   9.041 -0.2379  0.2020 -0.0775
  440POPI   C1B 6967   3.295   0.352   9.567 -0.3635 -0.0851  0.0207
  440POPI   C2B 6968   3.169   0.243   9.203  0.0636 -0.0107  0.3617
  440POPI   C3B 6969   3.303   0.588   8.894  0.1130 -0.0050  0.0602
  440POPI   C4B 6970   3.578   0.777   8.669 -0.0013  0.1010 -0.0229
  441POPI    C1 6971  15.837   0.336   9.830 -0.0140 -0.0356 -0.1018
  441POPI    C2 6972  15.768  -0.055   9.782 -0.2015 -0.0270  0.0823
  441POPI    C3 6973  16.035   0.069  10.053 -0.1381 -0.0271  0.0201
  441POPI   PO4 6974  15.526   0.469   9.937 -0.2716  0.0219  0.0037
  441POPI   GL1 6975  15.138   0.500   9.691 -0.0158 -0.1810  0.2142
  441POPI   GL2 6976  15.036   0.855   9.621 -0.1975  0.1415  0.2643
  441POPI   C1A 6977  15.380   0.487   9.284  0.0594 -0.2236 -0.0609
  441POPI   D2A 6978  15.347   0.564   8.886  0.1721 -0.1395  0.0024
  441POPI   C3A 6979  15.201   0.425   8.504 -0.0184 -0.0491 -0.3560
  441POPI   C4A 6980  15.376   0.080   8.174 -0.0966 -0.0007  0.1203
  441POPI   C1B 6981  14.817   0.960   9.263 -0.3293  0.1440 -0.0214
  441POPI   C2B 6982  14.660   1.175   8.910  0.2407  0.0265  0.1115
  441POPI   C3B 6983  14.506   1.320   8.490 -0.1466  0.0265  0.4361
  441POPI   C4B 6984  14.434   1.423   8.067  0.1160 -0.1175  0.1039
  442POPI    C1 6985   3.214  16.924  10.611  0.1212 -0.0529 -0.1607
  442POPI    C2 6986   2.843  16.944  10.461 -0.0161 -0.1690  0.1543
  442POPI    C3 6987   2.960  17.205  10.742  0.1095 -0.1921  0.1239
  442POPI   PO4 6988   3.409  16.924  10.433 -0.0266  0.0702  0.1641
  442POPI   GL1 6989   3.390  16.932  10.023  0.2301  0.2050  0.1691
  442POPI   GL2 6990   3.066  16.886  10.060  0.3766 -0.1954 -0.0038
  442POPI   C1A 6991   3.599  16.739   9.740  0.0742  0.3643 -0.1541
  442POPI   D2A 6992   3.829  16.753   9.491 -0.3595  0.1905 -0.2085
  442POPI   C3A 6993   3.530  16.710   9.224  0.4113  0.1210 -0.0747
  442POPI   C4A 6994   3.340  16.903   8.871  0.1587 -0.0113  0.3222
  442POPI   C1B 6995   3.091  16.645   9.658 -0.2539  0.6849  0.0725
  442POPI   C2B 6996   3.029  16.499   9.134  0.1178  0.2925  0.0874
  442POPI   C3B 6997   2.837  16.596   8.760  0.4496 -0.0690  0.3209
  442POPI   C4B 6998   2.822  16.473   8.273  0.0616  0.1823 -0.2914
  443POPI    C1 6999  10.327   7.920  10.129  0.3102  0.2457 -0.0455
  443POPI    C2 7000  10.092   8.033   9.826  0.1911  0.0163 -0.0414
  443POPI    C3 7001  10.244   7.663   9.834  0.0013 -0.0578  0.2953
  443POPI   PO4 7002  10.491   8.107  10.158 -0.1004 -0.0132  0.3650
  443POPI   GL1 7003  10.694   8.359   9.891  0.2583 -0.0312 -0.1576
  443POPI   GL2 7004  10.393   8.387   9.738  0.1960 -0.0442  0.2577
  443POPI   C1A 7005  10.866   8.471   9.601  0.4550  0.0680 -0.0996
  443POPI   D2A 7006  10.788   8.531   9.117 -0.0866 -0.1971  0.1152
  443POPI   C3A 7007  11.051   8.772   8.810 -0.0042 -0.2661  0.0912
  443POPI   C4A 7008  11.333   8.735   8.485 -0.2556 -0.1465 -0.2664
  443POPI   C1B 7009  10.352   8.395   9.334  0.0522  0.1039  0.1125
  443POPI   C2B 7010  10.434   8.243   8.977  0.1413  0.1199 -0.2984
  443POPI   C3B 7011  10.551   8.129   8.515 -0.0407  0.5166 -0.1198
  443POPI   C4B 7012  10.248   8.143   8.210 -0.0499  0.2730 -0.3130
  444POPI    C1 7013   1.409   9.381  10.212  0.1437  0.2926 -0.2171
  444POPI    C2 7014   1.076   9.587  10.132  0.0927  0.2604 -0.0895
  444POPI    C3 7015   1.073   9.302  10.413  0.1944  0.1697 -0.1795
  444POPI   PO4 7016   1.457   9.284   9.974  0.0813  0.2215  0.3732
  444POPI   GL1 7017   1.464   9.246   9.498  0.1043  0.4083 -0.1066
  444POPI   GL2 7018   1.224   9.053   9.318  0.2072  0.1089  0.0911
  444POPI   C1A 7019   1.658   9.672   9.254 -0.2714 -0.1503 -0.0018
  444POPI   D2A 7020   1.884   9.651   8.918  0.1849 -0.1834  0.1603
  444POPI   C3A 7021   1.720   9.735   8.541  0.3104 -0.1941 -0.0165
  444POPI   C4A 7022   1.969  10.071   8.264  0.0082  0.1126  0.1445
  444POPI   C1B 7023   1.118   8.962   8.967 -0.0290 -0.1580  0.0369
  444POPI   C2B 7024   1.044   8.933   8.538  0.0176  0.1736  0.0528
  444POPI   C3B 7025   0.921   8.921   8.089 -0.2329  0.1597  0.2619
  444POPI   C4B 7026   0.816   8.838   7.624  0.0252  0.0430 -0.1827
  445POPI    C1 7027   2.374  14.215  10.676  0.0450  0.1603 -0.0894
  445POPI    C2 7028   2.557  13.893  10.825 -0.2363  0.0023 -0.0795
  445POPI    C3 7029   2.209  14.015  10.980 -0.1075  0.3427 -0.0501
  445POPI   PO4 7030   2.349  14.166  10.445 -0.1352  0.1447  0.0413
  445POPI   GL1 7031   2.614  14.011   9.949  0.0208  0.1810 -0.2948
  445POPI   GL2 7032   2.524  14.300   9.841  0.0932  0.1913 -0.1165
  445POPI   C1A 7033   2.521  13.809   9.608  0.1056  0.3198  0.0195
  445POPI   D2A 7034   2.774  13.448   9.351 -0.0639  0.0477  0.0614
  445POPI   C3A 7035   2.317  13.332   9.105  0.0935 -0.0709  0.0014
  445POPI   C4A 7036   2.176  13.435   8.541  0.1676  0.0048 -0.0406
  445POPI   C1B 7037   2.328  14.394   9.402 -0.1438 -0.1134  0.1187
  445POPI   C2B 7038   2.143  14.634   9.188 -0.0944  0.0059  0.3142
  445POPI   C3B 7039   1.940  14.674   8.886 -0.2013 -0.0396 -0.2279
  445POPI   C4B 7040   1.813  14.688   8.507 -0.3907  0.1707  0.0953
  446POPI    C1 7041  14.271  16.945  10.610 -0.1493  0.0095 -0.0387
  446POPI    C2 7042  13.916  17.049  10.762 -0.0254  0.3813  0.0057
  446POPI    C3 7043  14.197  17.327  10.700  0.3185  0.0687  0.1227
  446POPI   PO4 7044  14.144  16.814  10.358 -0.0096 -0.0996  0.0567
  446POPI   GL1 7045  14.107  16.897   9.982  0.4772 -0.0424  0.0167
  446POPI   GL2 7046  13.858  17.006   9.837  0.2905  0.1569  0.0381
  446POPI   C1A 7047  14.119  16.629   9.690  0.1352 -0.1298  0.0162
  446POPI   D2A 7048  14.371  16.481   9.483  0.0057  0.1086  0.2773
  446POPI   C3A 7049  14.335  16.502   9.028  0.1150 -0.0488 -0.2515
  446POPI   C4A 7050  14.397  16.720   8.722 -0.0809  0.0777  0.0781
  446POPI   C1B 7051  14.019  16.947   9.331 -0.0029 -0.1580 -0.1488
  446POPI   C2B 7052  13.954  16.823   8.934  0.1509 -0.0472 -0.2764
  446POPI   C3B 7053  13.951  16.824   8.506 -0.3164  0.1469  0.0146
  446POPI   C4B 7054  14.173  16.791   8.155  0.0294  0.1617  0.0650
  447POPI    C1 7055   8.924  15.215   9.949 -0.0835 -0.1675 -0.1889
  447POPI    C2 7056   9.229  15.040  10.140 -0.0457 -0.0814 -0.1696
  447POPI    C3 7057   8.919  15.183  10.348  0.0533  0.1239 -0.1610
  447POPI   PO4 7058   9.039  15.329   9.680  0.0177  0.0749 -0.1411
  447POPI   GL1 7059   8.847  15.565   9.343  0.0713  0.0201 -0.0316
  447POPI   GL2 7060   8.619  15.447   9.411  0.0526 -0.2120  0.1083
  447POPI   C1A 7061   8.889  15.695   8.934 -0.1181 -0.1643 -0.2305
  447POPI   D2A 7062   8.837  15.718   8.418 -0.3423  0.2360  0.1792
  447POPI   C3A 7063   8.824  15.367   8.076 -0.0884 -0.1497 -0.3871
  447POPI   C4A 7064   8.451  15.176   8.258 -0.1961 -0.0496  0.1184
  447POPI   C1B 7065   8.503  15.398   8.968  0.1496  0.2031 -0.3988
  447POPI   C2B 7066   8.450  15.515   8.671 -0.0964  0.3446  0.1372
  447POPI   C3B 7067   8.351  15.647   8.344  0.4621  0.1280  0.1070
  447POPI   C4B 7068   8.303  15.568   7.954  0.0356  0.0920 -0.0668
  448POPI    C1 7069   8.300   6.140   9.948  0.1487  0.3473  0.0898
  448POPI    C2 7070   8.359   6.202  10.339  0.1376  0.0004  0.1499
  448POPI    C3 7071   8.623   5.987  10.129  0.0196 -0.0187  0.0194
  448POPI   PO4 7072   8.012   6.211   9.916 -0.0032  0.1189 -0.2790
  448POPI   GL1 7073   7.947   6.252   9.470 -0.2826 -0.0110 -0.0751
  448POPI   GL2 7074   8.221   6.085   9.295 -0.0308  0.0367 -0.2785
  448POPI   C1A 7075   7.840   6.257   9.068 -0.0375  0.0132  0.1335
  448POPI   D2A 7076   7.765   6.183   8.569  0.1137 -0.2298 -0.0181
  448POPI   C3A 7077   7.763   6.681   8.262 -0.3501 -0.1034 -0.1742
  448POPI   C4A 7078   7.676   7.072   8.089  0.1682  0.0524  0.3584
  448POPI   C1B 7079   8.201   5.939   8.888 -0.0153  0.0604 -0.2734
  448POPI   C2B 7080   8.178   6.016   8.435  0.0084  0.2571  0.0067
  448POPI   C3B 7081   8.408   5.910   8.057  0.1464 -0.0680  0.2065
  448POPI   C4B 7082   8.762   5.781   7.784  0.0715  0.0704 -0.2624
  449POPI    C1 7083  15.384   6.957  10.075 -0.1083 -0.2611  0.1028
  449POPI    C2 7084  15.747   7.042  10.220 -0.1092 -0.0472 -0.0143
  449POPI    C3 7085  15.423   7.212  10.381 -0.1483 -0.1478  0.0142
  449POPI   PO4 7086  15.319   6.981   9.819 -0.1690  0.3207  0.2707
  449POPI   GL1 7087  15.287   7.293   9.512  0.0895  0.1461  0.1894
  449POPI   GL2 7088  15.441   6.970   9.338  0.0397  0.0499 -0.1480
  449POPI   C1A 7089  15.102   7.568   9.270  0.0240  0.1569  0.0683
  449POPI   D2A 7090  14.986   7.611   8.908 -0.5221  0.1436 -0.2017
  449POPI   C3A 7091  14.917   8.007   8.738  0.3243  0.1289  0.1631
  449POPI   C4A 7092  14.872   8.066   8.346 -0.1219  0.2471 -0.0850
  449POPI   C1B 7093  15.825   6.824   9.018 -0.0480  0.2664  0.1748
  449POPI   C2B 7094  15.999   6.749   8.704  0.1644  0.1256 -0.2869
  449POPI   C3B 7095  15.858   6.629   8.256 -0.0090  0.1260 -0.2233
  449POPI   C4B 7096  15.522   6.581   7.997 -0.1779 -0.0721 -0.2371
  450POPI    C1 7097   8.267  14.514  10.178 -0.0142  0.0656  0.0949
  450POPI    C2 7098   8.009  14.331  10.424 -0.1832  0.2590  0.0641
  450POPI    C3 7099   8.377  14.421  10.551 -0.1114 -0.0619  0.0929
  450POPI   PO4 7100   8.340  14.389   9.947 -0.0616  0.0131  0.2588
  450POPI   GL1 7101   8.182  14.458   9.567 -0.1428  0.2034  0.1420
  450POPI   GL2 7102   8.294  14.788   9.631 -0.1617  0.0787 -0.2046
  450POPI   C1A 7103   7.948  14.496   9.268  0.2556  0.0482 -0.0907
  450POPI   D2A 7104   7.907  14.481   8.851 -0.0178 -0.2759 -0.1150
  450POPI   C3A 7105   8.126  14.248   8.618 -0.1017 -0.1581 -0.1766
  450POPI   C4A 7106   8.480  14.349   8.509  0.0847 -0.1542  0.4412
  450POPI   C1B 7107   8.532  14.915   9.274 -0.4146  0.1700 -0.1780
  450POPI   C2B 7108   8.865  15.072   9.030 -0.2519 -0.1899  0.1694
  450POPI   C3B 7109   8.832  15.166   8.602  0.1372 -0.0418 -0.0555
  450POPI   C4B 7110   8.829  14.821   8.240  0.0445 -0.0220  0.2796
  451POPI    C1 7111   8.122  12.605  10.028 -0.1260 -0.0633  0.0731
  451POPI    C2 7112   8.487  12.497   9.904 -0.0368  0.2423  0.0629
  451POPI    C3 7113   8.389  12.463  10.291 -0.0384  0.0511  0.0467
  451POPI   PO4 7114   7.961  12.607   9.796  0.1183  0.3920 -0.0224
  451POPI   GL1 7115   8.061  12.377   9.500  0.0976 -0.1008  0.0164
  451POPI   GL2 7116   7.816  12.411   9.350  0.0853 -0.0303  0.1468
  451POPI   C1A 7117   8.360  12.324   9.252 -0.1527 -0.0046 -0.1613
  451POPI   D2A 7118   8.567  12.158   8.939  0.0014  0.1284 -0.0248
  451POPI   C3A 7119   8.439  12.166   8.501 -0.1674  0.2920  0.0417
  451POPI   C4A 7120   8.094  12.181   8.221  0.1178  0.0022 -0.3736
  451POPI   C1B 7121   7.836  12.098   9.060 -0.0921  0.1998 -0.1082
  451POPI   C2B 7122   7.912  11.927   8.621  0.1730 -0.1006  0.0728
  451POPI   C3B 7123   7.807  11.800   8.163 -0.0952 -0.0912 -0.1136
  451POPI   C4B 7124   7.830  11.956   7.759  0.1209 -0.1543  0.1722
  452POPI    C1 7125   9.256  11.016  10.016 -0.1610  0.1525 -0.1691
  452POPI    C2 7126   9.335  11.408  10.020 -0.0358  0.1271 -0.1186
  452POPI    C3 7127   8.978  11.275  10.142 -0.0437  0.2178 -0.0418
  452POPI   PO4 7128   9.236  10.962   9.727  0.2361 -0.1825  0.2072
  452POPI   GL1 7129   9.223  10.755   9.317  0.0649 -0.0950 -0.2078
  452POPI   GL2 7130   8.884  10.768   9.426  0.1338 -0.1167 -0.1399
  452POPI   C1A 7131   9.340  10.751   8.890  0.2785 -0.2340  0.0292
  452POPI   D2A 7132   9.301  10.864   8.472 -0.2909  0.0865 -0.0287
  452POPI   C3A 7133   9.082  11.087   8.072  0.2931  0.1443  0.1318
  452POPI   C4A 7134   8.893  11.159   7.629 -0.0265 -0.1428 -0.0601
  452POPI   C1B 7135   8.892  10.460   8.997  0.2025  0.0101 -0.2046
  452POPI   C2B 7136   8.862  10.281   8.587 -0.0550  0.4596 -0.0777
  452POPI   C3B 7137   8.869  10.014   8.287  0.1474  0.0453 -0.0895
  452POPI   C4B 7138   8.803   9.825   7.814 -0.0682 -0.0720  0.0892
  453POPI    C1 7139  14.697  10.893  10.395 -0.2133  0.1365  0.3322
  453POPI    C2 7140  14.669  11.176  10.677  0.0141  0.3132  0.1812
  453POPI    C3 7141  15.015  10.985  10.620 -0.1280  0.0275  0.2567
  453POPI   PO4 7142  14.548  11.052  10.160 -0.1823  0.2721  0.1718
  453POPI   GL1 7143  14.698  11.071   9.723 -0.4955 -0.1089  0.0067
  453POPI   GL2 7144  14.840  11.333   9.734 -0.3417  0.0721  0.2886
  453POPI   C1A 7145  14.680  11.119   9.239  0.0616 -0.2514 -0.2066
  453POPI   D2A 7146  14.481  11.066   8.827  0.1848  0.0186  0.0963
  453POPI   C3A 7147  14.212  10.776   8.681  0.1014 -0.0698  0.1072
  453POPI   C4A 7148  13.910  10.669   8.277  0.1445 -0.0881  0.0980
  453POPI   C1B 7149  14.460  11.445   9.549 -0.2425 -0.2977  0.0432
  453POPI   C2B 7150  14.280  11.421   9.130 -0.1544  0.1360  0.3098
  453POPI   C3B 7151  14.235  11.740   8.894  0.0046  0.2956  0.1076
  453POPI   C4B 7152  14.052  11.846   8.518 -0.0484  0.0609 -0.1233
  454POPI    C1 7153   9.041   6.539   9.820 -0.3639  0.1676  0.0892
  454POPI    C2 7154   9.279   6.559  10.141 -0.1026  0.1933 -0.1024
  454POPI    C3 7155   9.012   6.263  10.108  0.2931 -0.1694 -0.1450
  454POPI   PO4 7156   9.205   6.656   9.627  0.1905  0.0057  0.1634
  454POPI   GL1 7157   9.232   6.913   9.298  0.0201 -0.0699 -0.0569
  454POPI   GL2 7158   9.595   6.877   9.273 -0.0907  0.0738 -0.0314
  454POPI   C1A 7159   9.205   6.972   8.918 -0.4598 -0.1544  0.0296
  454POPI   D2A 7160   9.545   7.044   8.511 -0.0967 -0.0705 -0.2109
  454POPI   C3A 7161   9.597   7.466   8.317 -0.3227 -0.2108 -0.1729
  454POPI   C4A 7162   9.756   7.793   7.973  0.1972  0.2380 -0.2594
  454POPI   C1B 7163   9.896   6.964   8.985 -0.1386  0.1670 -0.1040
  454POPI   C2B 7164   9.928   7.202   8.714 -0.2210  0.2423  0.2168
  454POPI   C3B 7165  10.053   7.157   8.244 -0.0490 -0.0743  0.0171
  454POPI   C4B 7166   9.817   6.982   7.904 -0.1483  0.2987 -0.1112
  455POPI    C1 7167   0.536  13.128  10.567  0.0736 -0.0760 -0.2198
  455POPI    C2 7168   0.452  13.439  10.803  0.0870  0.0376 -0.3633
  455POPI    C3 7169   0.825  13.298  10.784  0.0571 -0.0651 -0.2064
  455POPI   PO4 7170   0.443  13.200  10.348 -0.1551  0.6651 -0.1935
  455POPI   GL1 7171   0.361  13.335   9.957 -0.1341 -0.3172 -0.2831
  455POPI   GL2 7172   0.533  13.046   9.903  0.2557 -0.1381 -0.0324
  455POPI   C1A 7173   0.322  13.584   9.791  0.1191  0.3187  0.1801
  455POPI   D2A 7174   0.438  14.107   9.742 -0.0851  0.1637 -0.1288
  455POPI   C3A 7175   0.247  14.108   9.337 -0.0080  0.0162 -0.1423
  455POPI   C4A 7176  -0.008  14.211   9.071  0.1172  0.0945 -0.1595
  455POPI   C1B 7177   0.418  13.140   9.485 -0.0795 -0.1735  0.1180
  455POPI   C2B 7178   0.164  13.464   9.335  0.1425  0.4263  0.2112
  455POPI   C3B 7179   0.107  13.724   9.010  0.1911 -0.4954  0.0426
  455POPI   C4B 7180   0.004  13.885   8.556 -0.0241  0.1052 -0.0222
  456POPI    C1 7181   0.887  10.333  10.170 -0.2778  0.0139  0.2048
  456POPI    C2 7182   0.918  10.724  10.247 -0.1926  0.0440  0.0252
  456POPI    C3 7183   1.223  10.479  10.331 -0.2452  0.0157  0.1357
  456POPI   PO4 7184   0.871  10.320   9.906 -0.1478 -0.0691  0.2025
  456POPI   GL1 7185   0.824  10.521   9.586 -0.2201  0.0630 -0.0042
  456POPI   GL2 7186   0.744  10.242   9.339 -0.0730 -0.2547 -0.1350
  456POPI   C1A 7187   0.975  10.616   9.107 -0.1352  0.2491  0.4653
  456POPI   D2A 7188   1.012  10.644   8.720  0.1728 -0.0400  0.0672
  456POPI   C3A 7189   0.960  10.302   8.444 -0.3680 -0.1532  0.0604
  456POPI   C4A 7190   0.853   9.904   8.105  0.2721  0.1792  0.0778
  456POPI   C1B 7191   0.626  10.290   8.824 -0.0519  0.0958  0.4994
  456POPI   C2B 7192   0.297  10.338   8.433  0.5008  0.1296 -0.4456
  456POPI   C3B 7193   0.107  10.640   8.130 -0.2016  0.0854  0.1853
  456POPI   C4B 7194  -0.336  10.579   8.016  0.1602  0.1274 -0.2369
  457POPI    C1 7195   8.514   5.514  10.144 -0.1839  0.4088  0.0163
  457POPI    C2 7196   8.190   5.283  10.185  0.0278  0.1115  0.0460
  457POPI    C3 7197   8.367   5.438  10.508  0.1608 -0.0744  0.0639
  457POPI   PO4 7198   8.504   5.510   9.748  0.0783 -0.2659  0.0857
  457POPI   GL1 7199   8.313   5.359   9.410 -0.2153 -0.0498  0.0019
  457POPI   GL2 7200   8.061   5.435   9.276 -0.3121  0.1481  0.1262
  457POPI   C1A 7201   8.623   5.377   9.112 -0.0639  0.5022  0.1875
  457POPI   D2A 7202   8.656   5.059   8.795 -0.0436  0.0382  0.0013
  457POPI   C3A 7203   8.771   5.129   8.379  0.1275 -0.2148 -0.2011
  457POPI   C4A 7204   8.580   5.406   8.046 -0.1084  0.1031  0.5290
  457POPI   C1B 7205   8.096   5.215   8.940  0.2734  0.0350 -0.0806
  457POPI   C2B 7206   7.996   4.798   8.828 -0.4263 -0.3349  0.3241
  457POPI   C3B 7207   7.997   4.381   8.511  0.0597  0.0369 -0.0513
  457POPI   C4B 7208   8.163   4.476   8.191  0.0189 -0.3373 -0.3110
  458POPI    C1 7209  17.251  17.896  10.497 -0.0698  0.2399 -0.2956
  458POPI    C2 7210  17.637  17.921  10.598 -0.1037  0.0117 -0.0999
  458POPI    C3 7211  17.360  18.108  10.818 -0.1248 -0.0093 -0.1086
  458POPI   PO4 7212  17.204  17.964  10.202 -0.0849 -0.2980 -0.0940
  458POPI   GL1 7213  17.215  17.956   9.790  0.0248 -0.0083 -0.0452
  458POPI   GL2 7214  16.815  17.838   9.782 -0.0571 -0.1734 -0.2119
  458POPI   C1A 7215  17.383  17.764   9.380 -0.3553  0.0382  0.2324
  458POPI   D2A 7216  17.207  17.595   8.934 -0.1617  0.2987 -0.0530
  458POPI   C3A 7217  16.890  17.737   8.672  0.0308  0.0911 -0.0676
  458POPI   C4A 7218  16.892  17.727   8.209 -0.0606 -0.0450  0.1109
  458POPI   C1B 7219  16.739  17.903   9.289 -0.3241  0.2285 -0.2673
  458POPI   C2B 7220  16.653  18.165   8.914 -0.0330 -0.0843 -0.2170
  458POPI   C3B 7221  16.411  18.588   8.814  0.1681  0.1308  0.2558
  458POPI   C4B 7222  16.131  18.899   8.954  0.0766 -0.0752 -0.2004
  459POPI    C1 7223   7.038   6.284   9.917  0.0068 -0.1599 -0.1137
  459POPI    C2 7224   7.341   6.294  10.179 -0.1210  0.2414  0.0261
  459POPI    C3 7225   6.966   6.247  10.309 -0.1502  0.0607 -0.1200
  459POPI   PO4 7226   7.087   6.417   9.761 -0.1182 -0.4834  0.1188
  459POPI   GL1 7227   7.270   6.300   9.324  0.0493 -0.1520  0.2909
  459POPI   GL2 7228   7.481   6.617   9.353 -0.0158 -0.4399  0.0338
  459POPI   C1A 7229   7.314   6.144   8.988 -0.1781  0.3310  0.1472
  459POPI   D2A 7230   7.206   6.211   8.589 -0.0205 -0.3646 -0.1318
  459POPI   C3A 7231   7.419   6.133   8.221 -0.1233 -0.2689 -0.0047
  459POPI   C4A 7232   7.849   6.142   7.984  0.1256  0.0224  0.0838
  459POPI   C1B 7233   7.731   6.706   8.972  0.1060  0.1189 -0.0785
  459POPI   C2B 7234   7.712   7.033   8.595 -0.3330  0.2153  0.0411
  459POPI   C3B 7235   7.306   7.261   8.400 -0.0978  0.1656 -0.0058
  459POPI   C4B 7236   7.091   7.138   8.035 -0.2265  0.0637 -0.3547
  460POPI    C1 7237   6.922   4.982  10.215 -0.0145 -0.0886  0.2493
  460POPI    C2 7238   7.197   5.262  10.135 -0.2157  0.0515  0.0357
  460POPI    C3 7239   6.955   5.303  10.451  0.0963 -0.1409  0.3060
  460POPI   PO4 7240   6.756   4.916  10.054  0.1481 -0.3086 -0.0468
  460POPI   GL1 7241   6.567   5.000   9.599  0.0565 -0.1582 -0.0908
  460POPI   GL2 7242   6.338   4.744   9.543  0.0529 -0.1543  0.5163
  460POPI   C1A 7243   6.790   5.091   9.311  0.2117 -0.0702  0.0030
  460POPI   D2A 7244   6.726   5.074   8.799 -0.0530 -0.0428  0.2367
  460POPI   C3A 7245   6.924   5.311   8.561 -0.0990 -0.5033  0.0915
  460POPI   C4A 7246   7.078   5.212   8.173  0.0816 -0.3643  0.2649
  460POPI   C1B 7247   6.353   4.841   9.139  0.0110 -0.2094 -0.0256
  460POPI   C2B 7248   6.215   4.878   8.640  0.2585  0.2494 -0.2698
  460POPI   C3B 7249   6.040   4.699   8.329  0.2967  0.0500 -0.0610
  460POPI   C4B 7250   5.888   4.447   7.981 -0.0070 -0.0311  0.1363
  461POPI    C1 7251  15.655   8.114  10.021  0.0923  0.1302 -0.0245
  461POPI    C2 7252  15.731   8.455   9.826 -0.2227  0.2461  0.0487
  461POPI    C3 7253  15.801   8.430  10.219  0.4690 -0.0066 -0.0760
  461POPI   PO4 7254  15.671   7.949   9.788  0.1112 -0.3305  0.1030
  461POPI   GL1 7255  15.943   7.822   9.485 -0.0871 -0.0341 -0.0216
  461POPI   GL2 7256  15.647   7.693   9.357  0.1050 -0.1639 -0.2348
  461POPI   C1A 7257  15.950   7.947   9.021 -0.1299  0.0434  0.0102
  461POPI   D2A 7258  15.869   7.700   8.646 -0.0392 -0.0868  0.0752
  461POPI   C3A 7259  15.720   7.623   8.265  0.2277 -0.1061  0.0143
  461POPI   C4A 7260  15.633   7.518   7.983  0.0263  0.1503  0.1292
  461POPI   C1B 7261  15.454   7.733   8.953 -0.0657 -0.1855 -0.0074
  461POPI   C2B 7262  15.283   7.679   8.459  0.0563  0.2223  0.1434
  461POPI   C3B 7263  15.003   7.640   8.102 -0.0358  0.0458 -0.0286
  461POPI   C4B 7264  14.739   7.311   8.010 -0.0830 -0.1918 -0.0805
  462POPI    C1 7265  15.170   6.384  10.189 -0.0480  0.1404  0.0798
  462POPI    C2 7266  15.523   6.200  10.228 -0.2534 -0.2287  0.2457
  462POPI    C3 7267  15.475   6.571  10.368  0.1415 -0.0727 -0.0146
  462POPI   PO4 7268  15.108   6.290   9.864 -0.1451  0.1581 -0.1026
  462POPI   GL1 7269  15.218   6.540   9.516  0.1574  0.1086  0.0651
  462POPI   GL2 7270  15.255   6.237   9.322  0.3221 -0.0766  0.0221
  462POPI   C1A 7271  15.371   6.586   9.015 -0.1139  0.1050 -0.1649
  462POPI   D2A 7272  15.525   6.710   8.610  0.1693 -0.3008 -0.1754
  462POPI   C3A 7273  15.382   6.326   8.433 -0.1429  0.0033 -0.0076
  462POPI   C4A 7274  15.350   5.947   8.727 -0.0475  0.2641  0.0471
  462POPI   C1B 7275  14.955   6.296   8.952 -0.2790 -0.2381  0.0451
  462POPI   C2B 7276  14.769   6.042   8.814 -0.1813  0.0171 -0.4580
  462POPI   C3B 7277  14.463   5.978   8.453 -0.0618 -0.0837 -0.1159
  462POPI   C4B 7278  14.507   5.690   8.151  0.3330 -0.0459  0.0056
  463POPI    C1 7279  15.708   9.328  10.324 -0.1728  0.2483  0.0158
  463POPI    C2 7280  16.021   9.316  10.572 -0.0720 -0.3010 -0.1257
  463POPI    C3 7281  15.649   9.319  10.719 -0.0172  0.5775  0.0502
  463POPI   PO4 7282  15.716   9.534  10.148  0.3338 -0.1260  0.0774
  463POPI   GL1 7283  15.640   9.523   9.713 -0.1359 -0.0915  0.0582
  463POPI   GL2 7284  15.668   9.169   9.471 -0.4320  0.2237 -0.1561
  463POPI   C1A 7285  15.797   9.655   9.229 -0.0423  0.1520  0.0649
  463POPI   D2A 7286  15.878   9.666   8.799  0.3031  0.0736 -0.0827
  463POPI   C3A 7287  15.760   9.818   8.446 -0.0942 -0.1847  0.0243
  463POPI   C4A 7288  15.597  10.104   8.069 -0.1039  0.3768 -0.0978
  463POPI   C1B 7289  15.596   9.063   9.001 -0.0922  0.1478 -0.3246
  463POPI   C2B 7290  15.586   8.752   8.802  0.0431 -0.2208 -0.3276
  463POPI   C3B 7291  15.504   8.817   8.391 -0.2074 -0.4284  0.2322
  463POPI   C4B 7292  15.548   8.561   8.149  0.2885  0.0044 -0.2281
  464POPI    C1 7293  11.231  17.762  10.371 -0.0881 -0.1041 -0.2481
  464POPI    C2 7294  11.258  17.440  10.608 -0.0753 -0.2774 -0.4817
  464POPI    C3 7295  10.965  17.707  10.665  0.1827 -0.0862  0.0055
  464POPI   PO4 7296  11.236  17.630  10.088 -0.0217  0.0112 -0.0356
  464POPI   GL1 7297  11.386  17.695   9.665 -0.1313  0.0998 -0.0854
  464POPI   GL2 7298  11.209  17.977   9.628 -0.1524 -0.0437 -0.1042
  464POPI   C1A 7299  11.331  17.510   9.267 -0.1989 -0.0781  0.0517
  464POPI   D2A 7300  11.375  17.674   8.765  0.0714  0.1658  0.1910
  464POPI   C3A 7301  11.347  17.438   8.391  0.0060  0.1999 -0.0889
  464POPI   C4A 7302  11.135  17.047   8.316  0.1581 -0.1429 -0.1835
  464POPI   C1B 7303  11.265  18.062   9.149  0.1712 -0.3090  0.0775
  464POPI   C2B 7304  11.039  18.035   8.765  0.0302  0.1596  0.0116
  464POPI   C3B 7305  11.021  17.820   8.375 -0.1335 -0.1410 -0.0535
  464POPI   C4B 7306  10.893  17.554   8.037  0.2566  0.1592 -0.0242
  465POPI    C1 7307   8.037   2.156  10.416  0.0710  0.2183  0.1857
  465POPI    C2 7308   7.903   1.817  10.580 -0.1556  0.1496 -0.1313
  465POPI    C3 7309   8.283   1.929  10.635 -0.0440 -0.2185 -0.1247
  465POPI   PO4 7310   8.004   2.147  10.157 -0.0414 -0.0681 -0.0860
  465POPI   GL1 7311   7.845   1.963   9.881 -0.1287  0.1263  0.1689
  465POPI   GL2 7312   7.648   1.879   9.756 -0.3227  0.1107  0.2759
  465POPI   C1A 7313   8.080   2.146   9.539 -0.1034 -0.0550 -0.1948
  465POPI   D2A 7314   8.171   2.123   9.111  0.2555 -0.0459 -0.0816
  465POPI   C3A 7315   7.968   1.816   8.901 -0.0248  0.0184  0.1873
  465POPI   C4A 7316   7.738   1.552   8.964 -0.0441  0.0661 -0.3164
  465POPI   C1B 7317   7.462   1.821   9.323  0.0684 -0.2481  0.1396
  465POPI   C2B 7318   7.273   1.890   8.889  0.2579  0.0970 -0.4562
  465POPI   C3B 7319   7.061   1.915   8.480  0.1233 -0.1821 -0.1317
  465POPI   C4B 7320   7.038   1.420   8.382  0.0583 -0.0186 -0.0852
  466POPI    C1 7321  12.164  14.816  10.740 -0.0350 -0.0539 -0.1030
  466POPI    C2 7322  11.921  14.510  10.826 -0.0979  0.0699  0.1697
  466POPI    C3 7323  12.079  14.729  11.121  0.1199  0.1670 -0.0161
  466POPI   PO4 7324  12.353  14.642  10.520 -0.0340 -0.3975 -0.1828
  466POPI   GL1 7325  12.267  14.520  10.076  0.0118  0.0461 -0.1595
  466POPI   GL2 7326  12.398  14.671   9.941 -0.1003  0.2738 -0.0181
  466POPI   C1A 7327  12.158  14.251   9.712  0.2484 -0.2067 -0.0291
  466POPI   D2A 7328  12.177  14.220   9.365  0.1092 -0.0622  0.2197
  466POPI   C3A 7329  12.483  14.012   9.021 -0.3254  0.1513  0.1294
  466POPI   C4A 7330  12.554  13.975   8.589 -0.1080  0.1836 -0.1178
  466POPI   C1B 7331  12.068  14.711   9.502  0.2645  0.0290 -0.1041
  466POPI   C2B 7332  12.061  14.798   9.038  0.2608  0.0460  0.1481
  466POPI   C3B 7333  12.101  14.953   8.576 -0.1098  0.1460 -0.0256
  466POPI   C4B 7334  12.398  14.926   8.251 -0.1038 -0.0679  0.1611
  467POPI    C1 7335   8.723   7.616   9.527 -0.0711 -0.0880 -0.1814
  467POPI    C2 7336   8.521   7.492   9.849 -0.0397  0.1015 -0.0871
  467POPI    C3 7337   8.919   7.528   9.864 -0.0423  0.1511 -0.1339
  467POPI   PO4 7338   8.546   7.431   9.338 -0.1326 -0.1441  0.1605
  467POPI   GL1 7339   8.208   7.501   9.084  0.2708  0.4727 -0.0779
  467POPI   GL2 7340   7.958   7.490   8.991  0.0989 -0.0651 -0.1512
  467POPI   C1A 7341   8.383   7.356   8.659 -0.2973 -0.1589 -0.0465
  467POPI   D2A 7342   8.537   7.523   8.294 -0.1917  0.0466  0.1617
  467POPI   C3A 7343   8.415   7.431   7.803 -0.0634 -0.2505 -0.1048
  467POPI   C4A 7344   8.449   7.671   7.487  0.0205  0.1295  0.1732
  467POPI   C1B 7345   7.926   7.550   8.610 -0.0732 -0.2832 -0.0704
  467POPI   C2B 7346   8.069   7.412   8.204  0.0016  0.0610  0.1002
  467POPI   C3B 7347   7.953   7.428   7.720  0.0359 -0.1330 -0.2879
  467POPI   C4B 7348   7.558   7.343   7.684  0.0642 -0.0577 -0.1807
  468POPI    C1 7349  17.819   2.065  10.162  0.0475 -0.0058  0.1133
  468POPI    C2 7350  17.537   1.867  10.364  0.0910  0.0655  0.2455
  468POPI    C3 7351  17.456   2.226  10.207  0.0262 -0.0347  0.0451
  468POPI   PO4 7352  17.921   1.800  10.023 -0.1644  0.2430  0.4284
  468POPI   GL1 7353  18.103   1.703   9.635 -0.0507  0.1494 -0.4508
  468POPI   GL2 7354  18.419   1.637   9.540  0.0672 -0.3136  0.0854
  468POPI   C1A 7355  17.948   1.622   9.255 -0.0091  0.3568  0.0247
  468POPI   D2A 7356  17.512   1.492   9.163 -0.1237 -0.0638  0.0786
  468POPI   C3A 7357  17.525   1.254   8.749 -0.2258 -0.1993 -0.2920
  468POPI   C4A 7358  17.620   1.319   8.343  0.0402 -0.2145  0.0334
  468POPI   C1B 7359  18.318   1.957   9.230 -0.1139  0.1292 -0.0064
  468POPI   C2B 7360  18.131   1.902   8.856 -0.1294  0.1122 -0.1771
  468POPI   C3B 7361  17.916   1.720   8.610  0.1665 -0.0905  0.0972
  468POPI   C4B 7362  18.123   1.431   8.344 -0.1070  0.1039  0.1700
  469POPI    C1 7363  11.066  10.728  10.522 -0.1519  0.2277 -0.0441
  469POPI    C2 7364  11.032  10.852  10.901  0.0671  0.0261  0.0438
  469POPI    C3 7365  10.705  10.802  10.677 -0.0758 -0.0146  0.2589
  469POPI   PO4 7366  11.227  10.704  10.394 -0.3825 -0.0411  0.3461
  469POPI   GL1 7367  11.230  10.734  10.040 -0.3017  0.1330 -0.2268
  469POPI   GL2 7368  11.018  11.046   9.920 -0.0938  0.0273 -0.1761
  469POPI   C1A 7369  11.472  10.563   9.782  0.1074 -0.1731 -0.0344
  469POPI   D2A 7370  11.674  10.227   9.620  0.2613 -0.1834 -0.0654
  469POPI   C3A 7371  11.509   9.799   9.624  0.1836  0.3649 -0.0544
  469POPI   C4A 7372  11.749   9.357   9.615 -0.2666 -0.1017 -0.0096
  469POPI   C1B 7373  11.043  11.059   9.451 -0.0081  0.2055 -0.0391
  469POPI   C2B 7374  11.057  10.910   9.031  0.0052 -0.0797 -0.0828
  469POPI   C3B 7375  11.136  10.791   8.692  0.0436  0.2489 -0.1454
  469POPI   C4B 7376  11.149  10.575   8.330  0.1883 -0.0298  0.1011
  470POPI    C1 7377   5.780   7.822   9.776  0.0928  0.0536 -0.2997
  470POPI    C2 7378   5.443   7.912   9.580 -0.1055 -0.0018  0.0091
  470POPI    C3 7379   5.618   8.186   9.814  0.0563  0.0209 -0.1360
  470POPI   PO4 7380   5.914   7.620   9.595  0.1794 -0.1738  0.2170
  470POPI   GL1 7381   5.715   7.575   9.163 -0.0860  0.1367 -0.3137
  470POPI   GL2 7382   5.720   7.903   9.172  0.1646 -0.0588  0.0735
  470POPI   C1A 7383   5.634   7.651   8.738  0.0150 -0.0310 -0.2344
  470POPI   D2A 7384   5.735   7.683   8.435  0.0955 -0.3059 -0.2823
  470POPI   C3A 7385   5.996   7.516   8.085 -0.1980  0.0130  0.0348
  470POPI   C4A 7386   6.047   7.290   7.674  0.0695  0.1000  0.2328
  470POPI   C1B 7387   6.004   7.953   8.922 -0.1765 -0.2118  0.2998
  470POPI   C2B 7388   6.298   7.785   8.536  0.1896  0.1288 -0.1897
  470POPI   C3B 7389   6.426   7.602   8.314 -0.1714  0.0338  0.4426
  470POPI   C4B 7390   6.599   7.411   7.990 -0.0681  0.0200 -0.0856
  471POPI    C1 7391   8.909   2.532  10.517 -0.0266  0.1373  0.0413
  471POPI    C2 7392   8.656   2.272  10.685  0.0669  0.0664  0.0738
  471POPI    C3 7393   8.608   2.664  10.744 -0.0812  0.0578  0.0158
  471POPI   PO4 7394   8.922   2.445  10.266  0.1197 -0.1920 -0.0351
  471POPI   GL1 7395   8.836   2.431   9.901 -0.2772  0.0729 -0.3974
  471POPI   GL2 7396   8.966   2.205   9.761  0.3682 -0.1637 -0.2401
  471POPI   C1A 7397   8.922   2.685   9.541 -0.0369 -0.3451  0.3173
  471POPI   D2A 7398   8.631   2.880   9.215 -0.1545 -0.1057  0.1028
  471POPI   C3A 7399   8.549   2.719   8.741 -0.1920  0.0164 -0.1902
  471POPI   C4A 7400   8.610   2.415   8.516 -0.0758 -0.1504  0.4222
  471POPI   C1B 7401   8.564   2.363   9.407 -0.0892 -0.3046 -0.3527
  471POPI   C2B 7402   8.636   2.244   8.980 -0.1476  0.1558 -0.1603
  471POPI   C3B 7403   8.268   2.072   8.608 -0.1441 -0.0939 -0.2719
  471POPI   C4B 7404   8.444   2.113   8.106 -0.0368 -0.3953  0.0489
  472POPI    C1 7405  13.426   7.039  10.082 -0.2463 -0.1739 -0.1394
  472POPI    C2 7406  13.358   6.934  10.462 -0.3219  0.1039 -0.0740
  472POPI    C3 7407  13.478   7.306  10.375 -0.3342  0.0510 -0.3252
  472POPI   PO4 7408  13.248   6.893   9.992  0.1439 -0.0753  0.1587
  472POPI   GL1 7409  13.203   6.789   9.557  0.2099 -0.1677 -0.1042
  472POPI   GL2 7410  13.368   7.151   9.523  0.3962  0.2823  0.5977
  472POPI   C1A 7411  13.215   6.826   9.208 -0.0811  0.1233  0.4315
  472POPI   D2A 7412  13.386   6.919   8.924  0.0521 -0.0079 -0.2715
  472POPI   C3A 7413  13.754   7.047   8.772 -0.3717 -0.1723 -0.2544
  472POPI   C4A 7414  14.095   7.240   8.576 -0.4684 -0.1431 -0.1631
  472POPI   C1B 7415  13.212   7.331   9.103  0.1783 -0.0255  0.0052
  472POPI   C2B 7416  13.318   7.293   8.568  0.2252 -0.1133  0.0093
  472POPI   C3B 7417  13.407   7.131   8.294  0.1851 -0.2225  0.1319
  472POPI   C4B 7418  13.330   7.110   7.824 -0.0969  0.2151 -0.1276
  473DPPI    C1 7419  12.344  13.527  10.535 -0.0725  0.1986  0.1960
  473DPPI    C2 7420  12.482  13.225  10.758  0.0529  0.2283  0.1593
  473DPPI    C3 7421  12.144  13.412  10.862 -0.1498 -0.0725  0.0563
  473DPPI   PO4 7422  12.480  13.743  10.464 -0.0893  0.0664  0.0870
  473DPPI   GL1 7423  12.616  13.951  10.193 -0.0233 -0.0464  0.0560
  473DPPI   GL2 7424  12.566  13.576  10.042 -0.1200  0.3220  0.1161
  473DPPI   C1A 7425  12.633  14.205   9.844  0.4534 -0.2123 -0.1504
  473DPPI   C2A 7426  12.764  14.319   9.440  0.0700 -0.1298 -0.1544
  473DPPI   C3A 7427  12.857  14.317   9.039  0.1740 -0.0372 -0.3625
  473DPPI   C4A 7428  12.992  14.378   8.665 -0.0609 -0.0979 -0.1505
  473DPPI   C1B 7429  12.521  13.719   9.675  0.0757  0.3356  0.3065
  473DPPI   C2B 7430  12.808  13.797   9.368 -0.0022  0.3500  0.0437
  473DPPI   C3B 7431  13.047  13.666   9.072  0.1298  0.0328 -0.1940
  473DPPI   C4B 7432  12.977  13.525   8.665 -0.0971  0.0125  0.0912
  474DPPI    C1 7433   8.922  12.792  10.240  0.0194 -0.0469 -0.1936
  474DPPI    C2 7434   8.570  12.915  10.383  0.1492  0.1002  0.0048
  474DPPI    C3 7435   8.851  12.778  10.633  0.1503 -0.2365 -0.1753
  474DPPI   PO4 7436   8.894  12.844   9.961  0.0062  0.4185 -0.2139
  474DPPI   GL1 7437   9.035  12.761   9.598 -0.0246  0.2377 -0.1187
  474DPPI   GL2 7438   8.882  12.506   9.549  0.0602 -0.1673 -0.1444
  474DPPI   C1A 7439   9.033  13.112   9.243 -0.1146 -0.3015  0.0801
  474DPPI   C2A 7440   9.143  13.385   8.840 -0.0301 -0.4048  0.0743
  474DPPI   C3A 7441   9.153  13.361   8.469 -0.0326 -0.4820 -0.0807
  474DPPI   C4A 7442   9.210  13.426   8.074  0.0928 -0.2435  0.0558
  474DPPI   C1B 7443   8.946  12.268   9.148 -0.3039  0.1497 -0.0488
  474DPPI   C2B 7444   9.060  12.321   8.744 -0.1208 -0.0994 -0.0125
  474DPPI   C3B 7445   8.901  12.436   8.350  0.2896 -0.2611  0.1165
  474DPPI   C4B 7446   8.632  12.160   8.060  0.0894 -0.3233  0.0216
  475DPPI    C1 7447   7.600  13.967  10.009 -0.0169 -0.0211  0.0177
  475DPPI    C2 7448   7.371  13.847  10.315  0.1301 -0.0641  0.1119
  475DPPI    C3 7449   7.574  14.191  10.340  0.2741 -0.1496  0.1312
  475DPPI   PO4 7450   7.461  13.922   9.831  0.1922 -0.0927  0.4740
  475DPPI   GL1 7451   7.633  14.138   9.503 -0.3264  0.2023 -0.0282
  475DPPI   GL2 7452   7.972  14.032   9.412 -0.0670 -0.3121  0.0373
  475DPPI   C1A 7453   7.497  14.371   9.106 -0.1507 -0.2483 -0.0039
  475DPPI   C2A 7454   7.451  14.551   8.633 -0.0520 -0.0807 -0.0179
  475DPPI   C3A 7455   7.443  14.641   8.174  0.0345  0.1142  0.0123
  475DPPI   C4A 7456   7.703  14.616   7.818 -0.0291 -0.1663 -0.2055
  475DPPI   C1B 7457   7.852  14.034   9.031  0.1526  0.3357  0.0221
  475DPPI   C2B 7458   7.624  14.098   8.654 -0.0492 -0.2722 -0.1350
  475DPPI   C3B 7459   7.790  14.224   8.283  0.0323  0.1298  0.1161
  475DPPI   C4B 7460   7.704  14.137   7.918  0.0552  0.0794  0.2192
  476DPPI    C1 7461   9.263  18.347   9.875 -0.0286 -0.3720 -0.1978
  476DPPI    C2 7462   9.050  18.230  10.192 -0.3928 -0.1540 -0.3549
  476DPPI    C3 7463   9.444  18.287  10.226 -0.3948 -0.3241  0.0046
  476DPPI   PO4 7464   9.063  18.400   9.688  0.1130 -0.0827 -0.1340
  476DPPI   GL1 7465   8.829  18.276   9.466 -0.1540  0.2437  0.2512
  476DPPI   GL2 7466   8.922  17.932   9.273 -0.2584 -0.2326 -0.0524
  476DPPI   C1A 7467   8.686  18.365   9.070 -0.1744  0.0946  0.2258
  476DPPI   C2A 7468   8.687  18.458   8.621 -0.1599  0.2282 -0.1183
  476DPPI   C3A 7469   8.590  18.546   8.175 -0.0759  0.0956  0.0698
  476DPPI   C4A 7470   8.466  18.600   7.740  0.2109  0.3244  0.2020
  476DPPI   C1B 7471   8.971  17.935   8.891 -0.1644  0.1166  0.1927
  476DPPI   C2B 7472   9.099  17.927   8.456 -0.0929 -0.3349  0.2197
  476DPPI   C3B 7473   9.426  17.669   8.129 -0.1103  0.0142  0.0197
  476DPPI   C4B 7474   9.570  17.861   7.883 -0.0114  0.0936 -0.1274
  477DPPI    C1 7475   5.569   9.686   9.779  0.2111 -0.0745 -0.0748
  477DPPI    C2 7476   5.664   9.815  10.145  0.1468 -0.0351 -0.0720
  477DPPI    C3 7477   5.286   9.715  10.060  0.1798 -0.1378 -0.0996
  477DPPI   PO4 7478   5.676   9.855   9.636  0.4101 -0.2021 -0.0760
  477DPPI   GL1 7479   5.710  10.062   9.329  0.1784  0.2564  0.0735
  477DPPI   GL2 7480   5.980   9.996   9.191 -0.2344  0.0588 -0.0876
  477DPPI   C1A 7481   5.576  10.328   9.033  0.1388  0.0733 -0.1957
  477DPPI   C2A 7482   5.456  10.410   8.585 -0.1113 -0.3727 -0.0144
  477DPPI   C3A 7483   5.232  10.577   8.239 -0.3585 -0.0048 -0.2176
  477DPPI   C4A 7484   5.013  10.956   8.176 -0.2359  0.1862  0.0389
  477DPPI   C1B 7485   6.032  10.160   8.807  0.0434  0.3940  0.0001
  477DPPI   C2B 7486   6.075  10.095   8.385 -0.3868  0.0181  0.0471
  477DPPI   C3B 7487   6.238  10.036   7.920 -0.0615 -0.2236  0.1653
  477DPPI   C4B 7488   5.786  10.059   7.677 -0.0371  0.0779 -0.3091
  478DPPI    C1 7489  14.070   3.567   9.659  0.2890 -0.1623  0.1780
  478DPPI    C2 7490  14.159   3.869   9.906  0.0424  0.0640 -0.0048
  478DPPI    C3 7491  13.792   3.710   9.908  0.1545 -0.2004  0.0507
  478DPPI   PO4 7492  14.348   3.440   9.755  0.1651 -0.3718  0.2026
  478DPPI   GL1 7493  14.647   3.124   9.641  0.0538  0.0738 -0.0882
  478DPPI   GL2 7494  14.668   3.471   9.397  0.1872 -0.1684  0.2207
  478DPPI   C1A 7495  14.600   2.987   9.264  0.2151  0.1426 -0.0152
  478DPPI   C2A 7496  14.563   3.083   8.821 -0.2221  0.0780 -0.1739
  478DPPI   C3A 7497  14.673   3.251   8.505  0.2422  0.0783  0.2303
  478DPPI   C4A 7498  14.714   3.177   8.139  0.0103  0.2247 -0.0441
  478DPPI   C1B 7499  15.073   3.482   9.518  0.0093  0.1259 -0.0309
  478DPPI   C2B 7500  15.347   3.841   9.361 -0.0265 -0.0733 -0.0969
  478DPPI   C3B 7501  15.604   3.964   9.042  0.0669 -0.0833  0.1610
  478DPPI   C4B 7502  15.603   4.252   8.709 -0.1645 -0.1148 -0.1583
  479DPPI    C1 7503  16.546   9.181  10.088 -0.1368  0.0527 -0.0968
  479DPPI    C2 7504  16.562   9.336  10.456 -0.3227 -0.1076 -0.0193
  479DPPI    C3 7505  16.762   9.001  10.372 -0.0344  0.0930 -0.1487
  479DPPI   PO4 7506  16.590   9.390   9.899  0.0427  0.1915  0.1671
  479DPPI   GL1 7507  16.865   9.398   9.566  0.2201  0.2648 -0.0297
  479DPPI   GL2 7508  16.852   9.118   9.573  0.0585  0.1562 -0.2075
  479DPPI   C1A 7509  16.860   9.633   9.219 -0.2384  0.1925  0.1194
  479DPPI   C2A 7510  16.761   9.728   8.736 -0.0739 -0.0997  0.2093
  479DPPI   C3A 7511  16.405   9.827   8.430 -0.0037  0.1649  0.0526
  479DPPI   C4A 7512  16.246   9.686   8.085 -0.2545 -0.2613  0.0797
  479DPPI   C1B 7513  17.008   8.798   9.232 -0.1604 -0.0252 -0.2713
  479DPPI   C2B 7514  17.086   8.777   8.796 -0.2110  0.1869  0.1031
  479DPPI   C3B 7515  17.058   8.860   8.392 -0.1208 -0.0573  0.1286
  479DPPI   C4B 7516  17.112   9.009   7.973  0.1520 -0.0138 -0.1016
  480DPPI    C1 7517   8.985   3.109   9.963  0.1631 -0.0055 -0.2406
  480DPPI    C2 7518   9.069   2.994  10.337 -0.2819 -0.0634 -0.1526
  480DPPI    C3 7519   9.200   2.778  10.027 -0.0675 -0.1171 -0.0268
  480DPPI   PO4 7520   8.821   3.295   9.976  0.0523  0.0123 -0.2541
  480DPPI   GL1 7521   9.060   3.700   9.719  0.2775 -0.1665 -0.1793
  480DPPI   GL2 7522   8.859   3.737   9.634 -0.1215  0.0637 -0.0431
  480DPPI   C1A 7523   9.286   3.472   9.249 -0.2284  0.1718  0.1177
  480DPPI   C2A 7524   9.168   3.468   8.787 -0.1647 -0.0035  0.0100
  480DPPI   C3A 7525   8.954   3.363   8.408  0.2533  0.1495 -0.1134
  480DPPI   C4A 7526   8.728   3.200   7.972 -0.0428  0.1181 -0.2801
  480DPPI   C1B 7527   8.761   4.015   9.295  0.3717  0.1823  0.1437
  480DPPI   C2B 7528   8.581   4.194   8.958  0.1970  0.1872 -0.2328
  480DPPI   C3B 7529   8.608   4.160   8.526  0.1289 -0.0331  0.4389
  480DPPI   C4B 7530   8.565   4.235   8.154 -0.1348 -0.0415  0.0197
  481DPPI    C1 7531  11.479   4.420  10.143  0.2664 -0.1299  0.1059
  481DPPI    C2 7532  11.530   4.246   9.786  0.0025  0.1081 -0.0527
  481DPPI    C3 7533  11.778   4.159  10.088 -0.0265 -0.4174 -0.1693
  481DPPI   PO4 7534  11.351   4.653  10.024 -0.0714  0.0694 -0.2806
  481DPPI   GL1 7535  11.461   4.721   9.649 -0.4693 -0.0356  0.0399
  481DPPI   GL2 7536  11.816   4.647   9.494  0.0508 -0.2852 -0.2882
  481DPPI   C1A 7537  11.140   4.726   9.333 -0.0598 -0.1430  0.1576
  481DPPI   C2A 7538  10.934   4.815   8.925  0.2527  0.2115  0.0523
  481DPPI   C3A 7539  10.839   4.750   8.509 -0.2443  0.0610  0.1221
  481DPPI   C4A 7540  10.866   4.643   8.101  0.1298  0.0490  0.0852
  481DPPI   C1B 7541  11.615   4.653   9.174  0.2179  0.0079 -0.2119
  481DPPI   C2B 7542  11.605   4.629   8.716 -0.0836  0.1507 -0.2589
  481DPPI   C3B 7543  11.346   4.617   8.306 -0.2570 -0.0761  0.0363
  481DPPI   C4B 7544  11.294   4.412   7.978  0.0991  0.3381 -0.0596
  482DPPI    C1 7545   4.291   5.903   9.727  0.1155 -0.4193 -0.1539
  482DPPI    C2 7546   4.048   5.976  10.036  0.1706 -0.0434 -0.1944
  482DPPI    C3 7547   4.310   5.675  10.055  0.2644  0.0563  0.1797
  482DPPI   PO4 7548   4.198   5.950   9.538 -0.1628 -0.0849 -0.1024
  482DPPI   GL1 7549   3.969   5.774   9.264  0.3083 -0.0996  0.3387
  482DPPI   GL2 7550   3.987   6.023   9.053 -0.1128  0.1990 -0.2291
  482DPPI   C1A 7551   3.769   5.593   9.011 -0.0926  0.1360  0.1845
  482DPPI   C2A 7552   3.721   5.482   8.535 -0.0528  0.0163  0.0487
  482DPPI   C3A 7553   3.661   5.331   8.142  0.0203  0.0513  0.1173
  482DPPI   C4A 7554   3.443   5.054   7.981 -0.1821 -0.1749 -0.2630
  482DPPI   C1B 7555   3.918   5.988   8.639  0.0180 -0.0004  0.0251
  482DPPI   C2B 7556   3.977   5.934   8.257  0.2040 -0.0235  0.1322
  482DPPI   C3B 7557   3.956   5.984   7.842 -0.2039 -0.0142 -0.2097
  482DPPI   C4B 7558   4.224   6.076   7.576 -0.1693 -0.1268 -0.0628
  483DPPI    C1 7559  12.869  13.444  10.580  0.0229  0.1223  0.1446
  483DPPI    C2 7560  12.961  13.110  10.780  0.1213 -0.1028 -0.2645
  483DPPI    C3 7561  13.022  13.468  10.948  0.0883 -0.2861  0.1483
  483DPPI   PO4 7562  12.934  13.350  10.300  0.1575  0.3718 -0.3595
  483DPPI   GL1 7563  13.072  13.695  10.082  0.1988  0.1264  0.0784
  483DPPI   GL2 7564  13.055  14.050   9.998  0.0488 -0.5593 -0.1465
  483DPPI   C1A 7565  13.013  13.607   9.735 -0.1617  0.3076 -0.2394
  483DPPI   C2A 7566  13.166  13.211   9.441  0.0486 -0.0723  0.1843
  483DPPI   C3A 7567  13.606  13.044   9.185 -0.1916 -0.0152  0.0571
  483DPPI   C4A 7568  13.798  12.911   8.880  0.1064 -0.0801 -0.0678
  483DPPI   C1B 7569  13.257  14.079   9.550 -0.0777  0.1435  0.0708
  483DPPI   C2B 7570  13.321  14.130   9.114  0.2274 -0.1929 -0.3945
  483DPPI   C3B 7571  13.419  14.085   8.716  0.2229 -0.3178 -0.0032
  483DPPI   C4B 7572  13.637  13.934   8.376  0.0497 -0.2553  0.1860
  484DPPI    C1 7573   8.065   0.546   9.961  0.3182  0.2573 -0.1579
  484DPPI    C2 7574   8.017   0.238  10.212  0.0790  0.2430 -0.2190
  484DPPI    C3 7575   8.358   0.276  10.005  0.1131  0.0231 -0.2064
  484DPPI   PO4 7576   7.891   0.494   9.715 -0.0340 -0.3053 -0.2519
  484DPPI   GL1 7577   7.833   0.378   9.322 -0.1739 -0.0237 -0.4085
  484DPPI   GL2 7578   7.841   0.199   9.109  0.4661  0.1930 -0.4856
  484DPPI   C1A 7579   7.510   0.615   9.073 -0.0768 -0.1947 -0.2633
  484DPPI   C2A 7580   7.568   0.613   8.550  0.0627  0.0082 -0.0996
  484DPPI   C3A 7581   7.517   0.686   8.101 -0.0199  0.2103 -0.1579
  484DPPI   C4A 7582   7.380   0.899   7.720 -0.1657  0.3282  0.1229
  484DPPI   C1B 7583   7.955   0.455   8.826 -0.0546  0.0387  0.2673
  484DPPI   C2B 7584   8.042   0.679   8.421 -0.3098 -0.3734 -0.2989
  484DPPI   C3B 7585   8.255   0.832   8.065 -0.0304  0.1548  0.2060
  484DPPI   C4B 7586   8.408   0.949   7.701  0.0185 -0.1464  0.0501
  485DPPI    C1 7587  16.328  17.876  10.238 -0.0268  0.0849 -0.0369
  485DPPI    C2 7588  16.285  18.255  10.359  0.1279  0.0805  0.0340
  485DPPI    C3 7589  16.073  17.964  10.534  0.1736  0.1056  0.1315
  485DPPI   PO4 7590  16.308  17.910   9.959 -0.3465  0.1288 -0.1027
  485DPPI   GL1 7591  16.193  18.015   9.492  0.2013  0.0118 -0.0805
  485DPPI   GL2 7592  15.971  17.752   9.594 -0.0312  0.2034  0.1146
  485DPPI   C1A 7593  16.236  17.975   9.114  0.1972 -0.2611  0.0198
  485DPPI   C2A 7594  16.117  18.178   8.711 -0.2060  0.0074 -0.0318
  485DPPI   C3A 7595  15.983  18.228   8.261  0.2336 -0.1982 -0.3029
  485DPPI   C4A 7596  16.183  18.366   7.823 -0.1588 -0.1242 -0.0938
  485DPPI   C1B 7597  15.969  17.543   9.132  0.0531 -0.3418 -0.0179
  485DPPI   C2B 7598  15.990  17.355   8.666  0.2599 -0.0170 -0.1318
  485DPPI   C3B 7599  15.833  17.353   8.269 -0.0811  0.0801 -0.1826
  485DPPI   C4B 7600  15.761  17.328   7.852  0.0393  0.2186  0.3327
  486DPPI    C1 7601   2.985   3.544  10.011  0.0367  0.1266  0.2551
  486DPPI    C2 7602   2.684   3.806   9.995  0.0564  0.1445  0.1771
  486DPPI    C3 7603   3.011   3.891  10.208  0.0827  0.2043  0.1131
  486DPPI   PO4 7604   2.980   3.463   9.730  0.0008 -0.0437  0.0163
  486DPPI   GL1 7605   2.773   3.178   9.583 -0.3316  0.2272 -0.1511
  486DPPI   GL2 7606   2.582   3.119   9.578  0.0325 -0.0627 -0.0402
  486DPPI   C1A 7607   2.957   2.880   9.328 -0.4445  0.1411  0.1446
  486DPPI   C2A 7608   2.873   2.705   8.933 -0.2400 -0.4047  0.0229
  486DPPI   C3A 7609   2.664   2.485   8.565  0.1590  0.4452  0.0915
  486DPPI   C4A 7610   2.339   2.164   8.405 -0.0950 -0.4436 -0.1297
  486DPPI   C1B 7611   2.452   2.956   9.199  0.2025 -0.1936 -0.1695
  486DPPI   C2B 7612   2.513   2.980   8.827 -0.0406 -0.1943  0.0866
  486DPPI   C3B 7613   2.461   2.890   8.467 -0.0717 -0.0415  0.4401
  486DPPI   C4B 7614   2.237   2.711   8.119 -0.1673  0.1176 -0.2145
  487DPPI    C1 7615  10.040  13.558  10.102 -0.1909 -0.0181  0.0002
  487DPPI    C2 7616  10.341  13.762  10.268 -0.0846  0.0498 -0.2711
  487DPPI    C3 7617  10.356  13.362  10.250 -0.1963  0.0274  0.0719
  487DPPI   PO4 7618   9.969  13.742   9.946  0.2620  0.2019 -0.2198
  487DPPI   GL1 7619  10.070  14.057   9.640  0.0547 -0.4585  0.0780
  487DPPI   GL2 7620   9.804  14.301   9.582 -0.0163 -0.2102 -0.3426
  487DPPI   C1A 7621  10.409  14.059   9.426 -0.0556 -0.0871  0.1742
  487DPPI   C2A 7622  10.443  14.225   8.889 -0.2113 -0.2014 -0.0339
  487DPPI   C3A 7623  10.234  14.150   8.504 -0.5175  0.1063  0.0631
  487DPPI   C4A 7624  10.156  13.942   8.234 -0.2879  0.1834 -0.1744
  487DPPI   C1B 7625   9.990  14.270   9.178 -0.0295 -0.1926  0.0028
  487DPPI   C2B 7626   9.810  14.090   8.816 -0.3321 -0.0741  0.0636
  487DPPI   C3B 7627   9.709  14.153   8.382 -0.0788 -0.1150 -0.3579
  487DPPI   C4B 7628   9.801  14.178   8.030  0.4989  0.3209  0.5476
  488DPPI    C1 7629  10.083   6.794  10.236  0.1178 -0.1895 -0.3059
  488DPPI    C2 7630   9.684   6.802  10.255  0.1276  0.0837 -0.1614
  488DPPI    C3 7631   9.893   6.582  10.516  0.0847  0.2505  0.0160
  488DPPI   PO4 7632  10.121   6.726   9.965  0.3363 -0.3777  0.0553
  488DPPI   GL1 7633  10.158   6.812   9.448  0.2533  0.0156  0.0643
  488DPPI   GL2 7634  10.502   6.696   9.508 -0.3330  0.0197 -0.1639
  488DPPI   C1A 7635  10.178   6.537   9.060 -0.5807  0.1565  0.1711
  488DPPI   C2A 7636  10.286   6.353   8.654  0.1449 -0.0433  0.0250
  488DPPI   C3A 7637  10.573   6.337   8.322  0.3187  0.0570 -0.0649
  488DPPI   C4A 7638  10.891   6.466   8.145  0.2199 -0.1341 -0.1024
  488DPPI   C1B 7639  10.486   6.932   9.127 -0.3438  0.0231  0.0123
  488DPPI   C2B 7640  10.508   7.216   8.743  0.1462  0.0927  0.0816
  488DPPI   C3B 7641  10.844   7.265   8.447 -0.2116 -0.0287  0.0789
  488DPPI   C4B 7642  11.260   7.363   8.187 -0.1275  0.1636 -0.2843
  489DPPI    C1 7643  18.639   5.734  10.651  0.0621 -0.0083  0.0262
  489DPPI    C2 7644  18.650   5.339  10.713  0.1312 -0.0081  0.0165
  489DPPI    C3 7645  18.753   5.590  11.006 -0.0520  0.0067  0.0695
  489DPPI   PO4 7646  18.596   5.826  10.370 -0.1905  0.0666 -0.0055
  489DPPI   GL1 7647  18.356   5.591  10.032 -0.4468  0.1582  0.2239
  489DPPI   GL2 7648  18.617   5.567   9.862 -0.1068  0.1304  0.0557
  489DPPI   C1A 7649  18.204   5.520   9.523  0.1974 -0.1667  0.1013
  489DPPI   C2A 7650  18.225   5.469   9.128 -0.1097  0.1213  0.1247
  489DPPI   C3A 7651  18.003   5.517   8.699 -0.1658  0.1359 -0.0197
  489DPPI   C4A 7652  18.117   5.243   8.365  0.3279  0.0663  0.4653
  489DPPI   C1B 7653  18.553   5.191   9.570 -0.2742 -0.0357  0.4997
  489DPPI   C2B 7654  18.514   5.000   9.294 -0.3468  0.0469  0.2889
  489DPPI   C3B 7655  18.365   4.957   8.985 -0.1494  0.1750  0.0909
  489DPPI   C4B 7656  18.605   4.878   8.608 -0.3141 -0.2363  0.0874
  490DPPI    C1 7657  10.860  14.725  10.201  0.4862  0.0615  0.0450
  490DPPI    C2 7658  10.882  14.502  10.532  0.1080 -0.0130  0.0250
  490DPPI    C3 7659  11.040  14.870  10.527  0.2805 -0.0824  0.2254
  490DPPI   PO4 7660  10.825  14.489  10.064 -0.0239 -0.1276 -0.0543
  490DPPI   GL1 7661  11.147  14.245   9.797 -0.2153 -0.4886  0.0625
  490DPPI   GL2 7662  10.845  14.291   9.628  0.1343  0.1770  0.3071
  490DPPI   C1A 7663  11.329  14.249   9.363 -0.1746  0.1779  0.2926
  490DPPI   C2A 7664  11.458  14.165   8.977  0.1001  0.6583 -0.3111
  490DPPI   C3A 7665  11.606  14.054   8.573  0.0226  0.0207  0.1541
  490DPPI   C4A 7666  11.531  14.063   8.127  0.2391 -0.0543  0.2316
  490DPPI   C1B 7667  10.772  14.312   9.232 -0.1401 -0.3120  0.2481
  490DPPI   C2B 7668  10.934  14.233   8.914  0.4882 -0.0003 -0.0336
  490DPPI   C3B 7669  11.199  14.405   8.562 -0.0116  0.1420  0.0922
  490DPPI   C4B 7670  11.269  14.528   8.193  0.2428 -0.1250 -0.2376
  491DPPI    C1 7671  18.517  12.570  10.346 -0.2226  0.0242  0.1416
  491DPPI    C2 7672  18.781  12.311  10.497  0.0662  0.1126 -0.1962
  491DPPI    C3 7673  18.420  12.184  10.381  0.0601 -0.0620  0.0078
  491DPPI   PO4 7674  18.638  12.863  10.358  0.0922 -0.3418  0.0057
  491DPPI   GL1 7675  18.474  13.143  10.098  0.1020 -0.1004 -0.1713
  491DPPI   GL2 7676  18.300  12.836  10.021  0.2492  0.0470 -0.0717
  491DPPI   C1A 7677  18.662  13.387   9.692 -0.0774 -0.0708  0.2473
  491DPPI   C2A 7678  18.568  13.703   9.454 -0.1904 -0.0135 -0.0287
  491DPPI   C3A 7679  18.258  13.632   9.105  0.2441  0.2386  0.3936
  491DPPI   C4A 7680  18.320  13.666   8.669  0.0494 -0.2341  0.2087
  491DPPI   C1B 7681  18.379  12.965   9.597 -0.3037  0.5706 -0.1190
  491DPPI   C2B 7682  18.483  13.229   9.229 -0.1702  0.0225 -0.1568
  491DPPI   C3B 7683  18.599  13.359   8.833  0.1864  0.0671  0.4038
  491DPPI   C4B 7684  18.680  13.462   8.344 -0.1675  0.0237  0.0612
  492DPPI    C1 7685   6.490   4.153   9.771 -0.0826 -0.1161 -0.2688
  492DPPI    C2 7686   6.833   4.101   9.572  0.1254  0.1062  0.0222
  492DPPI    C3 7687   6.835   4.125   9.971 -0.2473 -0.0172  0.0354
  492DPPI   PO4 7688   6.300   3.950   9.604 -0.1889  0.0617  0.0421
  492DPPI   GL1 7689   6.303   3.811   9.179  0.2090 -0.1730  0.0861
  492DPPI   GL2 7690   5.982   3.947   9.181  0.0244  0.0068  0.3405
  492DPPI   C1A 7691   6.308   3.948   8.789 -0.0529  0.0072  0.0477
  492DPPI   C2A 7692   6.357   3.785   8.375 -0.0996  0.0606 -0.3692
  492DPPI   C3A 7693   6.081   3.566   8.012  0.0545  0.0178  0.1327
  492DPPI   C4A 7694   5.899   3.435   7.638  0.2701  0.1207 -0.0047
  492DPPI   C1B 7695   5.932   3.445   8.958  0.0274  0.2168 -0.0742
  492DPPI   C2B 7696   6.080   3.287   8.534  0.1776  0.0557  0.0124
  492DPPI   C3B 7697   6.341   3.228   8.194  0.0195  0.1147  0.0616
  492DPPI   C4B 7698   6.367   3.336   7.723  0.2318 -0.1069 -0.0082
  493DPPI    C1 7699   9.187   0.485   9.597 -0.0399 -0.0581 -0.2064
  493DPPI    C2 7700   8.854   0.337   9.763 -0.0020 -0.0808 -0.1501
  493DPPI    C3 7701   9.187   0.117   9.753  0.0833  0.0376  0.0242
  493DPPI   PO4 7702   9.232   0.784   9.686 -0.3413 -0.1540 -0.3728
  493DPPI   GL1 7703   9.464   1.171   9.513  0.0097  0.4845 -0.2148
  493DPPI   GL2 7704   9.684   0.897   9.446  0.0017 -0.0701 -0.1911
  493DPPI   C1A 7705   9.318   1.219   9.122 -0.0014  0.1506 -0.3072
  493DPPI   C2A 7706   9.476   1.206   8.688 -0.0550  0.0684  0.0049
  493DPPI   C3A 7707   9.713   1.135   8.363 -0.0999  0.1660 -0.1420
  493DPPI   C4A 7708   9.711   0.935   7.996  0.3292  0.2155 -0.1207
  493DPPI   C1B 7709   9.777   1.006   9.026  0.2195 -0.0537 -0.2006
  493DPPI   C2B 7710   9.872   0.751   8.724  0.1332 -0.2329 -0.0020
  493DPPI   C3B 7711  10.035   0.703   8.307  0.3493 -0.1198 -0.1545
  493DPPI   C4B 7712  10.156   1.129   8.058  0.3165  0.0181  0.0879
  494DPPI    C1 7713  17.690  10.999   9.961  0.1293 -0.3199 -0.0142
  494DPPI    C2 7714  17.605  10.737  10.251  0.1146 -0.0412  0.2375
  494DPPI    C3 7715  17.879  11.022  10.313  0.1497 -0.0119 -0.0427
  494DPPI   PO4 7716  17.410  11.085   9.838 -0.2494  0.1201 -0.1226
  494DPPI   GL1 7717  17.286  11.347   9.426  0.0107 -0.0787  0.0702
  494DPPI   GL2 7718  17.191  11.058   9.359  0.0722 -0.2786 -0.3251
  494DPPI   C1A 7719  17.238  11.584   9.026  0.0538  0.1095  0.0261
  494DPPI   C2A 7720  17.271  11.758   8.593 -0.2080 -0.2881 -0.4448
  494DPPI   C3A 7721  17.307  11.756   8.234 -0.0203 -0.1337  0.5432
  494DPPI   C4A 7722  17.387  12.206   7.882 -0.1237  0.2763 -0.1967
  494DPPI   C1B 7723  17.236  11.060   8.986  0.1588 -0.3567  0.3803
  494DPPI   C2B 7724  17.375  11.227   8.582 -0.1382 -0.1730  0.2892
  494DPPI   C3B 7725  17.535  11.326   8.165  0.0225  0.0742 -0.2109
  494DPPI   C4B 7726  17.767  11.326   7.717  0.1460 -0.0645 -0.0529
  495DPPI    C1 7727  11.837  11.284  10.693  0.2039 -0.1928  0.0372
  495DPPI    C2 7728  11.854  11.585  10.955  0.1200  0.0547 -0.2364
  495DPPI    C3 7729  11.571  11.304  10.991  0.0544  0.1354 -0.1142
  495DPPI   PO4 7730  11.931  11.360  10.509 -0.0464 -0.1055 -0.3026
  495DPPI   GL1 7731  12.026  11.415  10.073 -0.3428  0.1907  0.2740
  495DPPI   GL2 7732  12.210  11.648   9.975 -0.1184  0.1535 -0.2529
  495DPPI   C1A 7733  12.200  11.076   9.853 -0.1414 -0.1317  0.0788
  495DPPI   C2A 7734  12.415  10.955   9.454 -0.1336  0.0490  0.3532
  495DPPI   C3A 7735  12.441  10.796   8.959  0.1261  0.0823  0.3526
  495DPPI   C4A 7736  12.390  10.895   8.510 -0.1736 -0.0650 -0.0101
  495DPPI   C1B 7737  12.119  11.579   9.579 -0.0382 -0.0523 -0.3882
  495DPPI   C2B 7738  12.280  11.584   9.111 -0.0898  0.1837  0.3101
  495DPPI   C3B 7739  12.389  11.700   8.734  0.0813 -0.0050 -0.0013
  495DPPI   C4B 7740  12.451  11.902   8.366  0.1603 -0.1705  0.1126
  496DPPI    C1 7741   5.473  18.692  10.437  0.0525 -0.0080 -0.1647
  496DPPI    C2 7742   5.466  18.405  10.158 -0.1279 -0.1767  0.0107
  496DPPI    C3 7743   5.477  18.307  10.546 -0.0698  0.0553  0.0692
  496DPPI   PO4 7744   5.478  18.894  10.259  0.0169  0.2192 -0.1209
  496DPPI   GL1 7745   5.359  19.146   9.868  0.2426  0.4192 -0.4028
  496DPPI   GL2 7746   5.507  18.778   9.760 -0.3591 -0.0549 -0.2931
  496DPPI   C1A 7747   5.411  19.061   9.367 -0.2168  0.2171  0.2696
  496DPPI   C2A 7748   5.300  19.000   9.017  0.0728 -0.1642  0.4102
  496DPPI   C3A 7749   5.139  18.973   8.651  0.0036 -0.0191  0.2067
  496DPPI   C4A 7750   5.091  18.536   8.358 -0.0928  0.1294 -0.0828
  496DPPI   C1B 7751   5.807  18.959   9.624  0.2165  0.2340  0.2938
  496DPPI   C2B 7752   6.141  19.119   9.390 -0.0645 -0.3731  0.0159
  496DPPI   C3B 7753   6.127  19.401   8.968 -0.2020  0.1547  0.3850
  496DPPI   C4B 7754   5.852  19.624   8.698 -0.0323 -0.3679 -0.0613
  497DPPI    C1 7755   4.494  15.700  10.182 -0.0205 -0.0845 -0.1152
  497DPPI    C2 7756   4.265  15.727  10.509  0.0563 -0.1103 -0.0588
  497DPPI    C3 7757   4.099  15.644  10.154 -0.0682  0.2194 -0.0812
  497DPPI   PO4 7758   4.665  15.898  10.061  0.1225 -0.1167  0.1741
  497DPPI   GL1 7759   5.002  15.993   9.546  0.1558 -0.1427  0.2741
  497DPPI   GL2 7760   4.679  16.181   9.623 -0.1277 -0.0746 -0.0482
  497DPPI   C1A 7761   4.926  15.909   9.127 -0.4141  0.4061  0.1104
  497DPPI   C2A 7762   4.830  15.849   8.708 -0.2628 -0.1413  0.2342
  497DPPI   C3A 7763   4.780  15.931   8.306 -0.4684  0.1603  0.3330
  497DPPI   C4A 7764   4.742  15.803   7.851 -0.0178 -0.1210  0.1640
  497DPPI   C1B 7765   4.575  16.282   9.279 -0.1724  0.1644  0.1738
  497DPPI   C2B 7766   4.554  16.281   8.857  0.0142 -0.0785 -0.1257
  497DPPI   C3B 7767   4.550  16.364   8.423  0.0978  0.1391 -0.3068
  497DPPI   C4B 7768   4.805  16.504   8.024  0.0330  0.0771 -0.0674
  498DPPI    C1 7769   0.786  15.189  10.536  0.0593  0.1078 -0.3717
  498DPPI    C2 7770   1.020  15.498  10.632  0.0058  0.1010 -0.2172
  498DPPI    C3 7771   1.176  15.131  10.601  0.0108  0.0909 -0.0800
  498DPPI   PO4 7772   0.644  15.271  10.282 -0.2140  0.0930  0.2553
  498DPPI   GL1 7773   0.521  15.470   9.893  0.0551 -0.0570 -0.0910
  498DPPI   GL2 7774   0.761  15.640   9.702  0.0525 -0.2039 -0.1387
  498DPPI   C1A 7775   0.522  15.172   9.579 -0.1995 -0.0039  0.2896
  498DPPI   C2A 7776   0.682  14.987   9.191 -0.0982 -0.1049  0.1367
  498DPPI   C3A 7777   0.654  14.888   8.799  0.4317 -0.0075  0.3189
  498DPPI   C4A 7778   0.871  14.483   8.613  0.0988  0.2085 -0.0603
  498DPPI   C1B 7779   0.861  15.450   9.296  0.0196  0.0326 -0.0501
  498DPPI   C2B 7780   1.105  15.342   8.884  0.1429 -0.0112  0.5101
  498DPPI   C3B 7781   1.471  15.451   8.598 -0.1452  0.4303 -0.1442
  498DPPI   C4B 7782   1.587  15.540   8.124  0.1910 -0.0417  0.0427
  499DPPI    C1 7783   3.820  12.452   9.821 -0.1150  0.0686 -0.0060
  499DPPI    C2 7784   3.523  12.185   9.808 -0.0430 -0.0047 -0.1830
  499DPPI    C3 7785   3.603  12.379  10.148 -0.0988 -0.2052 -0.0539
  499DPPI   PO4 7786   3.795  12.593   9.626 -0.2368 -0.0383 -0.0300
  499DPPI   GL1 7787   3.765  12.637   9.178 -0.1497 -0.2097 -0.0605
  499DPPI   GL2 7788   3.428  12.671   9.198  0.1000 -0.2373 -0.0278
  499DPPI   C1A 7789   3.953  12.650   8.744 -0.0071  0.0246  0.0056
  499DPPI   C2A 7790   4.064  12.925   8.470  0.5116  0.1062  0.1375
  499DPPI   C3A 7791   3.877  13.320   8.095  0.0535 -0.0845 -0.0506
  499DPPI   C4A 7792   3.616  13.705   8.057  0.2392 -0.2020 -0.0773
  499DPPI   C1B 7793   3.443  12.805   8.774 -0.0241  0.2702  0.0792
  499DPPI   C2B 7794   3.532  12.666   8.385  0.0482 -0.3489 -0.1537
  499DPPI   C3B 7795   3.572  12.876   7.943  0.0223  0.0794 -0.1721
  499DPPI   C4B 7796   3.544  13.292   7.706  0.1731 -0.2605  0.1575
  500DPPI    C1 7797   2.262  13.196  10.459  0.1905 -0.0095 -0.1079
  500DPPI    C2 7798   2.271  13.108  10.849 -0.5288 -0.2717 -0.1340
  500DPPI    C3 7799   2.208  13.485  10.731 -0.1884 -0.1704 -0.0046
  500DPPI   PO4 7800   2.046  13.008  10.355  0.2773  0.2848  0.2577
  500DPPI   GL1 7801   1.835  13.102   9.973  0.1965 -0.0979 -0.1452
  500DPPI   GL2 7802   1.613  12.890   9.735  0.0711 -0.2232 -0.3388
  500DPPI   C1A 7803   1.559  13.381   9.751  0.1894 -0.0047 -0.1876
  500DPPI   C2A 7804   1.199  13.628   9.538 -0.0055 -0.0371  0.2018
  500DPPI   C3A 7805   1.316  13.816   9.200  0.2206  0.0905  0.0946
  500DPPI   C4A 7806   1.299  13.884   8.828 -0.4579 -0.0444 -0.1640
  500DPPI   C1B 7807   1.484  12.971   9.309  0.2764 -0.0108 -0.1215
  500DPPI   C2B 7808   1.445  13.186   9.117  0.1501  0.0951  0.2001
  500DPPI   C3B 7809   1.262  13.136   8.644  0.0714 -0.0526 -0.1653
  500DPPI   C4B 7810   1.222  13.198   8.146 -0.0888  0.1485  0.0478
  501DPPI    C1 7811   0.950   0.091  10.175  0.1824  0.1149  0.0180
  501DPPI    C2 7812   1.072  -0.288  10.142  0.1611  0.1134 -0.0450
  501DPPI    C3 7813   0.926  -0.155  10.490 -0.1136 -0.0193 -0.1055
  501DPPI   PO4 7814   1.180   0.266  10.090  0.1042  0.1481  0.1863
  501DPPI   GL1 7815   1.176   0.292   9.667 -0.4486  0.1490 -0.1418
  501DPPI   GL2 7816   1.374   0.406   9.443  0.2633  0.1773  0.0026
  501DPPI   C1A 7817   0.843   0.413   9.360 -0.1435  0.3063  0.1624
  501DPPI   C2A 7818   0.771   0.551   8.933 -0.0363  0.0963 -0.1564
  501DPPI   C3A 7819   0.925   0.745   8.545 -0.0077 -0.4146  0.1824
  501DPPI   C4A 7820   1.144   0.963   8.244 -0.3849 -0.0224  0.0566
  501DPPI   C1B 7821   1.245   0.333   9.059 -0.2986  0.0005 -0.3508
  501DPPI   C2B 7822   1.544   0.098   8.831  0.2191 -0.1662 -0.2541
  501DPPI   C3B 7823   1.957   0.026   8.726  0.2491  0.2586  0.1734
  501DPPI   C4B 7824   2.352  -0.076   8.397  0.1540  0.0961  0.2256
  502DPPI    C1 7825   0.941  11.260  10.055 -0.1207 -0.0337 -0.0995
  502DPPI    C2 7826   0.999  11.544   9.779 -0.1881  0.2064  0.1293
  502DPPI    C3 7827   1.237  11.526  10.101 -0.1668 -0.0155  0.1027
  502DPPI   PO4 7828   0.839  10.988   9.879  0.0835 -0.0346  0.1188
  502DPPI   GL1 7829   0.850  11.033   9.383 -0.1625  0.1681  0.0074
  502DPPI   GL2 7830   1.094  11.111   9.467  0.0250  0.0105  0.1004
  502DPPI   C1A 7831   0.817  11.462   9.204 -0.1148  0.0804 -0.4033
  502DPPI   C2A 7832   0.884  11.648   8.859 -0.2914  0.0469 -0.0090
  502DPPI   C3A 7833   0.929  11.969   8.563  0.1017  0.1962  0.0179
  502DPPI   C4A 7834   0.736  12.360   8.359 -0.0038  0.1224  0.3786
  502DPPI   C1B 7835   1.054  11.135   8.961  0.0467 -0.1235  0.1989
  502DPPI   C2B 7836   1.132  11.121   8.603  0.1518 -0.0772 -0.0304
  502DPPI   C3B 7837   1.466  11.160   8.429  0.0762 -0.2916 -0.2649
  502DPPI   C4B 7838   1.852  11.313   8.583 -0.2804 -0.0651  0.3093
  503DPPI    C1 7839  15.009   4.665  10.410 -0.0383  0.0653 -0.1563
  503DPPI    C2 7840  15.104   4.316  10.581 -0.3614 -0.0058 -0.1148
  503DPPI    C3 7841  15.230   4.660  10.742 -0.2557 -0.0925 -0.0111
  503DPPI   PO4 7842  14.872   4.548  10.202  0.1525 -0.1125  0.0519
  503DPPI   GL1 7843  15.015   4.480   9.738  0.0934 -0.1933 -0.6659
  503DPPI   GL2 7844  15.011   4.201   9.752  0.0193  0.3101 -0.0921
  503DPPI   C1A 7845  15.140   4.331   9.292 -0.0268  0.0487 -0.0642
  503DPPI   C2A 7846  15.053   4.225   8.890 -0.0892  0.2671 -0.2309
  503DPPI   C3A 7847  15.100   4.169   8.461  0.2320  0.0948 -0.0761
  503DPPI   C4A 7848  15.094   4.288   8.025  0.4374  0.0624 -0.1449
  503DPPI   C1B 7849  14.878   3.955   9.384 -0.0367  0.0463 -0.2138
  503DPPI   C2B 7850  14.977   3.707   9.050  0.2391 -0.3410  0.2077
  503DPPI   C3B 7851  14.920   3.694   8.520 -0.1053  0.4948  0.2866
  503DPPI   C4B 7852  15.096   3.822   8.113 -0.0506 -0.0235 -0.1156
  504DPPI    C1 7853  12.353   5.619  10.049  0.1160 -0.0108 -0.1985
  504DPPI    C2 7854  11.969   5.581   9.941  0.1455  0.0024 -0.3094
  504DPPI    C3 7855  12.063   5.667  10.321  0.0526 -0.3803 -0.1952
  504DPPI   PO4 7856  12.438   5.750   9.854  0.1820 -0.1509  0.0710
  504DPPI   GL1 7857  12.482   5.802   9.414  0.3610 -0.0268 -0.0295
  504DPPI   GL2 7858  12.742   5.640   9.473 -0.0803  0.0315  0.2164
  504DPPI   C1A 7859  12.504   5.792   9.052 -0.0269 -0.1121  0.1296
  504DPPI   C2A 7860  12.695   5.679   8.605 -0.2050 -0.0736 -0.3049
  504DPPI   C3A 7861  12.635   5.746   8.166  0.0829  0.2520 -0.2946
  504DPPI   C4A 7862  12.544   5.505   7.809 -0.0021  0.0091 -0.2523
  504DPPI   C1B 7863  12.892   5.399   9.066  0.0338 -0.1136  0.1864
  504DPPI   C2B 7864  13.170   5.417   8.668  0.0570 -0.4170  0.0365
  504DPPI   C3B 7865  13.082   5.376   8.267  0.3764  0.1659 -0.3170
  504DPPI   C4B 7866  13.083   5.255   7.742 -0.1015  0.0028 -0.3106
  505DPPI    C1 7867   6.473  17.180  10.106  0.0741 -0.0292 -0.0366
  505DPPI    C2 7868   6.682  17.066  10.428 -0.1575 -0.0621  0.1047
  505DPPI    C3 7869   6.843  17.035  10.063 -0.0778 -0.4975  0.1717
  505DPPI   PO4 7870   6.137  17.048  10.073 -0.2501  0.2466  0.2761
  505DPPI   GL1 7871   5.885  17.099   9.808 -0.1429 -0.3735  0.1536
  505DPPI   GL2 7872   6.004  16.868   9.637 -0.2337 -0.0273  0.3234
  505DPPI   C1A 7873   5.795  17.327   9.399 -0.0491  0.1094  0.2228
  505DPPI   C2A 7874   5.681  17.559   8.943 -0.0090  0.3121  0.1930
  505DPPI   C3A 7875   5.621  17.623   8.487 -0.1384 -0.0301 -0.0965
  505DPPI   C4A 7876   5.516  17.365   8.194  0.1086  0.1464 -0.1285
  505DPPI   C1B 7877   6.061  16.965   9.196 -0.0495 -0.1576 -0.1144
  505DPPI   C2B 7878   5.970  17.144   8.834  0.1538 -0.1983  0.1740
  505DPPI   C3B 7879   6.049  17.277   8.376  0.1693  0.2228  0.2327
  505DPPI   C4B 7880   5.982  17.447   7.955 -0.1626 -0.1849  0.3100
  506DPPI    C1 7881  10.802   3.324   9.992  0.1768 -0.0400  0.3740
  506DPPI    C2 7882  10.408   3.256   9.984  0.1940 -0.1350  0.3177
  506DPPI    C3 7883  10.573   3.438  10.300  0.0473  0.2643  0.1710
  506DPPI   PO4 7884  10.911   3.571   9.786  0.1145  0.1846  0.1139
  506DPPI   GL1 7885  10.988   3.801   9.413  0.1117 -0.0039  0.1741
  506DPPI   GL2 7886  11.319   3.800   9.529  0.5206  0.2232  0.1202
  506DPPI   C1A 7887  10.952   3.889   8.981  0.0903 -0.0348 -0.0210
  506DPPI   C2A 7888  10.670   3.832   8.777 -0.0289  0.1158  0.1349
  506DPPI   C3A 7889  10.479   3.516   8.577 -0.2640 -0.0144 -0.4196
  506DPPI   C4A 7890  10.122   3.465   8.211  0.3286 -0.0607 -0.3170
  506DPPI   C1B 7891  11.667   4.088   9.345  0.0937  0.2799  0.0205
  506DPPI   C2B 7892  11.901   4.274   9.029  0.2575 -0.1067 -0.3100
  506DPPI   C3B 7893  11.929   4.056   8.636 -0.0491  0.0078  0.0365
  506DPPI   C4B 7894  11.579   3.971   8.362  0.0916  0.1308 -0.0532
  507DPPI    C1 7895  10.991   4.215  10.358  0.1285 -0.0348 -0.2292
  507DPPI    C2 7896  11.128   4.560  10.509 -0.0044 -0.1526  0.1741
  507DPPI    C3 7897  11.069   4.246  10.750 -0.1938 -0.3593 -0.1344
  507DPPI   PO4 7898  10.907   4.343  10.099  0.0565  0.0613 -0.3861
  507DPPI   GL1 7899  11.076   4.348   9.649 -0.0333 -0.0618 -0.1069
  507DPPI   GL2 7900  10.782   4.493   9.627 -0.1069 -0.1363 -0.1807
  507DPPI   C1A 7901  11.268   4.264   9.239 -0.0422 -0.0721  0.3793
  507DPPI   C2A 7902  11.073   4.337   8.733 -0.2380  0.0809 -0.1497
  507DPPI   C3A 7903  11.016   4.169   8.401  0.0515  0.2628 -0.0133
  507DPPI   C4A 7904  11.065   3.913   8.056 -0.0345  0.1233  0.0588
  507DPPI   C1B 7905  10.732   4.172   9.315  0.0261 -0.0319  0.1930
  507DPPI   C2B 7906  10.553   3.705   9.208 -0.1719  0.1031  0.3106
  507DPPI   C3B 7907  10.666   3.325   9.048  0.0550  0.2546  0.1668
  507DPPI   C4B 7908  10.744   3.100   8.682 -0.1930  0.3316  0.2860
  508DPPI    C1 7909  12.967  10.421  10.578 -0.3831  0.1075  0.0140
  508DPPI    C2 7910  13.273  10.630  10.729 -0.0881 -0.3332  0.0467
  508DPPI    C3 7911  13.005  10.461  10.974 -0.1231 -0.2937  0.0356
  508DPPI   PO4 7912  13.124  10.294  10.323 -0.1258 -0.0876 -0.1459
  508DPPI   GL1 7913  13.148  10.102   9.839 -0.0120 -0.0037  0.1098
  508DPPI   GL2 7914  13.457  10.152   9.948  0.1084  0.1411 -0.2326
  508DPPI   C1A 7915  12.869  10.051   9.516 -0.0392 -0.2347 -0.0632
  508DPPI   C2A 7916  12.879  10.237   9.024 -0.2249  0.0855  0.4681
  508DPPI   C3A 7917  13.209  10.314   8.568  0.1793  0.4317  0.1348
  508DPPI   C4A 7918  13.376  10.720   8.471  0.0218 -0.2176 -0.2562
  508DPPI   C1B 7919  13.365  10.514   9.746  0.3058 -0.1657 -0.1143
  508DPPI   C2B 7920  13.060  10.665   9.458 -0.1519  0.2076  0.2567
  508DPPI   C3B 7921  12.650  10.511   9.446 -0.1885  0.2320  0.1678
  508DPPI   C4B 7922  12.443  10.086   9.310 -0.2512  0.0037  0.1221
  509DPPI    C1 7923  13.743  10.474  10.556 -0.1557 -0.2083  0.0276
  509DPPI    C2 7924  14.102  10.349  10.682 -0.0985 -0.0483  0.0262
  509DPPI    C3 7925  13.885  10.596  10.910 -0.1354 -0.0129 -0.0468
  509DPPI   PO4 7926  13.733  10.369  10.311 -0.3178 -0.0853 -0.2090
  509DPPI   GL1 7927  13.920  10.616   9.909 -0.1278  0.1584 -0.2170
  509DPPI   GL2 7928  13.635  10.979   9.913 -0.2079  0.0393 -0.1044
  509DPPI   C1A 7929  13.776  10.377   9.551 -0.2166 -0.0688 -0.1310
  509DPPI   C2A 7930  13.794  10.145   9.175  0.1250 -0.2350  0.2641
  509DPPI   C3A 7931  13.652   9.982   8.890 -0.1713  0.1535 -0.2665
  509DPPI   C4A 7932  13.585   9.989   8.474  0.6080 -0.0246 -0.0136
  509DPPI   C1B 7933  13.475  10.956   9.456  0.0979  0.0883 -0.0523
  509DPPI   C2B 7934  13.560  10.985   8.975  0.2954 -0.1187  0.0088
  509DPPI   C3B 7935  13.648  11.084   8.484  0.0826  0.2084  0.0996
  509DPPI   C4B 7936  13.447  11.199   8.185  0.2107 -0.0894 -0.1855
  510DPPI    C1 7937  12.592   3.528  10.110 -0.1350 -0.1221  0.0865
  510DPPI    C2 7938  12.976   3.639  10.105 -0.2030  0.1171  0.0250
  510DPPI    C3 7939  12.868   3.299  10.285  0.0463  0.0124 -0.0194
  510DPPI   PO4 7940  12.538   3.731   9.920 -0.2274 -0.0910  0.1564
  510DPPI   GL1 7941  12.742   3.816   9.533 -0.1976 -0.1418 -0.2101
  510DPPI   GL2 7942  12.664   3.444   9.500  0.3443 -0.2324  0.2934
  510DPPI   C1A 7943  12.884   3.860   9.138  0.3554  0.2131  0.1221
  510DPPI   C2A 7944  12.892   3.850   8.669  0.0691 -0.2908  0.0053
  510DPPI   C3A 7945  13.049   4.067   8.284 -0.0886  0.0916 -0.1716
  510DPPI   C4A 7946  13.016   4.026   7.919 -0.0624  0.0420  0.3471
  510DPPI   C1B 7947  12.688   3.368   9.056 -0.1615 -0.0844 -0.3089
  510DPPI   C2B 7948  12.568   3.464   8.676 -0.0639 -0.2051  0.0701
  510DPPI   C3B 7949  12.245   3.672   8.498  0.1350 -0.2450  0.1360
  510DPPI   C4B 7950  12.072   3.817   8.139  0.0252 -0.2018  0.0771
  511DPPI    C1 7951  15.488  15.202  10.638  0.1772 -0.0028 -0.0594
  511DPPI    C2 7952  15.830  15.342  10.790  0.1337 -0.0984  0.1293
  511DPPI    C3 7953  15.506  15.312  11.022 -0.0405  0.1153 -0.0815
  511DPPI   PO4 7954  15.627  15.021  10.400 -0.2076  0.0948 -0.3814
  511DPPI   GL1 7955  15.471  15.147   9.950  0.4201 -0.3321  0.1237
  511DPPI   GL2 7956  15.360  15.378   9.935 -0.0154  0.1637  0.0785
  511DPPI   C1A 7957  15.562  15.147   9.442 -0.1278 -0.0623  0.2338
  511DPPI   C2A 7958  15.590  15.083   8.973 -0.3514  0.1220  0.4250
  511DPPI   C3A 7959  15.399  15.079   8.554 -0.0157 -0.1290 -0.0286
  511DPPI   C4A 7960  15.609  14.984   8.131 -0.1650  0.3721  0.4089
  511DPPI   C1B 7961  15.295  15.556   9.536 -0.2213 -0.1460  0.0070
  511DPPI   C2B 7962  15.423  15.564   9.169 -0.1471 -0.2550 -0.2710
  511DPPI   C3B 7963  15.651  15.518   8.702  0.0723 -0.1509 -0.1490
  511DPPI   C4B 7964  15.978  15.381   8.419  0.1092 -0.3278 -0.0260
  512DPPI    C1 7965  11.815  17.469   9.884  0.0157 -0.0025  0.0378
  512DPPI    C2 7966  11.706  17.506  10.267  0.1479 -0.0166  0.0775
  512DPPI    C3 7967  11.740  17.831  10.037 -0.2323 -0.0329 -0.0082
  512DPPI   PO4 7968  11.673  17.315   9.780  0.1602  0.0364 -0.1464
  512DPPI   GL1 7969  11.774  17.220   9.338  0.0084  0.1791  0.0177
  512DPPI   GL2 7970  11.917  16.916   9.270  0.4130  0.0718  0.0197
  512DPPI   C1A 7971  11.607  17.222   8.887  0.2396 -0.0991  0.3640
  512DPPI   C2A 7972  11.672  17.063   8.516  0.1746 -0.3547 -0.0092
  512DPPI   C3A 7973  11.618  16.765   8.211 -0.2205  0.1077  0.0796
  512DPPI   C4A 7974  11.272  16.603   8.048 -0.2716  0.1969 -0.2150
  512DPPI   C1B 7975  12.105  17.069   8.912 -0.1379  0.0726 -0.2302
  512DPPI   C2B 7976  12.157  17.269   8.538 -0.4964 -0.1392  0.0875
  512DPPI   C3B 7977  12.285  17.246   8.085  0.1523 -0.0936  0.1301
  512DPPI   C4B 7978  12.336  17.154   7.667 -0.2059  0.0878 -0.1736
  513PYPI    C1 7979   5.470  11.514  10.014 -0.0753 -0.2890 -0.0589
  513PYPI    C2 7980   5.342  11.161  10.153 -0.5103 -0.1077  0.0186
  513PYPI    C3 7981   5.295  11.492  10.373 -0.0538 -0.0038 -0.0285
  513PYPI   PO4 7982   5.382  11.582   9.765 -0.0084  0.0319  0.1110
  513PYPI   GL1 7983   5.416  11.697   9.283 -0.2937 -0.1779  0.1204
  513PYPI   GL2 7984   5.571  11.427   9.259  0.0452 -0.1608 -0.0646
  513PYPI   C1A 7985   5.372  11.947   8.931 -0.1006  0.3025  0.1593
  513PYPI   C2A 7986   5.311  11.968   8.557 -0.1582 -0.3501  0.2444
  513PYPI   D3A 7987   5.130  11.886   8.111  0.1861  0.0448 -0.5238
  513PYPI   C4A 7988   5.176  12.251   7.906  0.1499  0.0217  0.1347
  513PYPI   C1B 7989   5.444  11.412   8.792  0.0156  0.0649  0.0249
  513PYPI   C2B 7990   5.707  11.446   8.389  0.1954 -0.1970  0.2223
  513PYPI   C3B 7991   5.871  11.353   7.943  0.0295 -0.0498 -0.2556
  513PYPI   C4B 7992   5.711  11.539   7.599  0.2582 -0.0957  0.0890
  514PYPI    C1 7993   3.275  15.095  10.373 -0.0212  0.4280  0.5859
  514PYPI    C2 7994   3.641  14.933  10.369 -0.1267  0.1844  0.1243
  514PYPI    C3 7995   3.381  14.832  10.655 -0.0100 -0.0518  0.1491
  514PYPI   PO4 7996   3.265  15.043  10.033  0.0703 -0.1268  0.0915
  514PYPI   GL1 7997   3.197  14.996   9.626 -0.1586 -0.4039  0.1233
  514PYPI   GL2 7998   2.915  15.132   9.508 -0.1190 -0.2399  0.0874
  514PYPI   C1A 7999   3.300  14.846   9.303  0.1933  0.1113  0.0337
  514PYPI   C2A 8000   3.314  14.799   8.866 -0.1482  0.3726  0.0839
  514PYPI   D3A 8001   3.211  14.747   8.387  0.2062 -0.0067 -0.0105
  514PYPI   C4A 8002   3.002  15.073   8.280  0.0872 -0.0504  0.0530
  514PYPI   C1B 8003   2.946  15.125   8.996 -0.0315  0.0752 -0.1436
  514PYPI   C2B 8004   3.005  15.376   8.656 -0.2867 -0.1584  0.1239
  514PYPI   C3B 8005   3.386  15.621   8.452  0.2403 -0.4282  0.4134
  514PYPI   C4B 8006   3.143  15.739   8.070  0.0445  0.1164 -0.0337
  515PYPI    C1 8007   4.067   6.782   9.712  0.0251  0.0187  0.3829
  515PYPI    C2 8008   4.007   6.389   9.663 -0.0073  0.0996 -0.3255
  515PYPI    C3 8009   3.835   6.581   9.969 -0.5170 -0.3201 -0.3359
  515PYPI   PO4 8010   4.114   6.778   9.393  0.0697 -0.2058 -0.0273
  515PYPI   GL1 8011   3.729   6.765   9.131 -0.0474  0.0420 -0.0086
  515PYPI   GL2 8012   3.721   6.481   9.178  0.1496  0.0674  0.1166
  515PYPI   C1A 8013   3.675   6.841   8.686  0.1270 -0.1011 -0.0778
  515PYPI   C2A 8014   3.500   6.851   8.253 -0.0757  0.0730 -0.2247
  515PYPI   D3A 8015   3.607   6.909   7.890 -0.2270 -0.2927  0.1828
  515PYPI   C4A 8016   3.359   6.939   7.564 -0.2183  0.0538  0.0206
  515PYPI   C1B 8017   3.591   6.371   8.805 -0.1049 -0.4513  0.0181
  515PYPI   C2B 8018   3.642   6.352   8.425  0.1711 -0.2282 -0.1345
  515PYPI   C3B 8019   3.693   6.380   8.098 -0.3975  0.1177  0.1532
  515PYPI   C4B 8020   3.882   6.499   7.666  0.0276 -0.1568 -0.0854
  516PYPI    C1 8021  16.981  10.147   9.882 -0.0477  0.1695 -0.0328
  516PYPI    C2 8022  17.316  10.076  10.088 -0.1294 -0.0734  0.0204
  516PYPI    C3 8023  17.034  10.315  10.241  0.0122  0.1224 -0.0194
  516PYPI   PO4 8024  17.075  10.215   9.654  0.4428 -0.1387 -0.1030
  516PYPI   GL1 8025  16.986  10.621   9.397 -0.2434 -0.1057 -0.2362
  516PYPI   GL2 8026  16.638  10.548   9.436 -0.0183 -0.0033 -0.0237
  516PYPI   C1A 8027  16.866  10.761   8.909 -0.0267  0.3509 -0.1401
  516PYPI   C2A 8028  16.927  10.735   8.491  0.0945  0.1853  0.4746
  516PYPI   D3A 8029  17.273  10.864   8.264 -0.0239  0.0966  0.0820
  516PYPI   C4A 8030  17.190  11.076   7.961  0.1704  0.1904 -0.0991
  516PYPI   C1B 8031  16.448  10.627   9.079  0.1169  0.3364  0.0027
  516PYPI   C2B 8032  16.439  10.560   8.574 -0.1651  0.0517  0.3156
  516PYPI   C3B 8033  16.524  10.587   8.215  0.1227  0.0961  0.1900
  516PYPI   C4B 8034  16.987  10.517   7.961 -0.1608 -0.0458 -0.0301
  517PYPI    C1 8035  14.183   5.216  10.368 -0.2417 -0.1037  0.1062
  517PYPI    C2 8036  14.347   5.243  10.731  0.1734  0.0832 -0.0888
  517PYPI    C3 8037  14.202   5.570  10.552 -0.1618 -0.0330 -0.0358
  517PYPI   PO4 8038  14.314   5.202  10.136  0.5607 -0.0879  0.3088
  517PYPI   GL1 8039  14.327   5.086   9.725  0.2469 -0.2847 -0.3222
  517PYPI   GL2 8040  14.570   4.994   9.678 -0.0840  0.2531  0.2450
  517PYPI   C1A 8041  14.169   5.013   9.354  0.0059 -0.0128 -0.2288
  517PYPI   C2A 8042  14.192   5.008   8.940  0.1657 -0.0253  0.1662
  517PYPI   D3A 8043  14.166   4.941   8.533 -0.0538 -0.3411 -0.0741
  517PYPI   C4A 8044  14.364   4.771   8.211  0.1180  0.2737  0.2018
  517PYPI   C1B 8045  14.635   5.096   9.179 -0.2820 -0.1733  0.3899
  517PYPI   C2B 8046  14.691   5.076   8.649 -0.2517 -0.2609 -0.3359
  517PYPI   C3B 8047  14.621   5.190   8.267 -0.3072 -0.0797 -0.0484
  517PYPI   C4B 8048  14.604   5.221   7.805  0.0500 -0.3158  0.0856
  518PYPI    C1 8049  18.436   7.267  10.161 -0.0946  0.2378  0.1009
  518PYPI    C2 8050  18.156   7.025  10.312  0.1291 -0.0509  0.0620
  518PYPI    C3 8051  18.371   7.258  10.556 -0.0410  0.0619  0.1064
  518PYPI   PO4 8052  18.222   7.338   9.940 -0.2183  0.0615 -0.0670
  518PYPI   GL1 8053  18.137   7.144   9.527 -0.2682 -0.1372 -0.0367
  518PYPI   GL2 8054  18.098   7.538   9.500  0.0473 -0.1002  0.1586
  518PYPI   C1A 8055  18.052   7.056   9.084 -0.0225 -0.0858 -0.0402
  518PYPI   C2A 8056  17.887   6.896   8.839 -0.1315 -0.0647  0.0128
  518PYPI   D3A 8057  17.913   6.879   8.412 -0.1192 -0.2442 -0.2354
  518PYPI   C4A 8058  17.548   6.859   8.091 -0.2502  0.0957 -0.0302
  518PYPI   C1B 8059  18.285   7.533   9.051 -0.0875  0.1645 -0.4863
  518PYPI   C2B 8060  18.285   7.236   8.715  0.2994 -0.3611 -0.1100
  518PYPI   C3B 8061  18.113   7.248   8.195  0.0081  0.1731 -0.1556
  518PYPI   C4B 8062  17.786   7.199   7.856 -0.0325 -0.0640  0.2240
  519PYPI    C1 8063  10.002  16.677  10.067  0.0736 -0.0126 -0.0659
  519PYPI    C2 8064  10.133  16.323   9.935  0.2012 -0.0836  0.2435
  519PYPI    C3 8065  10.368  16.550  10.166 -0.0177  0.0354  0.3527
  519PYPI   PO4 8066  10.000  16.787   9.800 -0.2260 -0.0878  0.0937
  519PYPI   GL1 8067   9.788  16.804   9.332 -0.0129  0.0977 -0.0045
  519PYPI   GL2 8068   9.563  16.982   9.167 -0.0415  0.0458 -0.1951
  519PYPI   C1A 8069   9.847  16.471   9.017 -0.3778 -0.0365 -0.2115
  519PYPI   C2A 8070   9.770  16.481   8.619 -0.0902 -0.0805  0.0578
  519PYPI   D3A 8071   9.544  16.713   8.266 -0.1614  0.1916  0.2892
  519PYPI   C4A 8072   9.489  16.522   7.835  0.0390 -0.4341 -0.1261
  519PYPI   C1B 8073   9.738  17.006   8.655  0.1359  0.0977  0.0827
  519PYPI   C2B 8074  10.078  16.888   8.408 -0.2310 -0.0054  0.3109
  519PYPI   C3B 8075  10.431  16.857   8.553  0.1996  0.0494 -0.3371
  519PYPI   C4B 8076  10.622  16.997   8.766  0.3321  0.2395  0.2606
  520PYPI    C1 8077  17.279  17.265  10.934  0.1027  0.0599  0.0197
  520PYPI    C2 8078  16.901  17.387  10.984  0.1359  0.2357 -0.1476
  520PYPI    C3 8079  16.977  17.007  10.887  0.0083  0.1760 -0.0168
  520PYPI   PO4 8080  17.321  17.437  10.684 -0.0876 -0.0263 -0.2380
  520PYPI   GL1 8081  17.273  17.411  10.136 -0.1291  0.1898  0.0575
  520PYPI   GL2 8082  17.594  17.721  10.054 -0.0435 -0.0061  0.3272
  520PYPI   C1A 8083  17.004  17.377   9.813 -0.1639 -0.1777 -0.1760
  520PYPI   C2A 8084  16.930  17.409   9.340  0.2342  0.0497  0.0286
  520PYPI   D3A 8085  16.654  17.128   9.035 -0.4217 -0.1587 -0.1243
  520PYPI   C4A 8086  16.732  17.265   8.603  0.0592 -0.0986  0.3228
  520PYPI   C1B 8087  17.809  17.738   9.548  0.2434 -0.0107 -0.2766
  520PYPI   C2B 8088  17.843  17.580   9.173 -0.3845 -0.0920  0.0388
  520PYPI   C3B 8089  17.889  17.631   8.625 -0.0368 -0.2256 -0.0667
  520PYPI   C4B 8090  17.999  17.775   8.264  0.1105  0.1003  0.0405
  521PYPI    C1 8091   6.860   1.659  10.570 -0.1396 -0.0491  0.0221
  521PYPI    C2 8092   6.662   2.000  10.504  0.2171  0.1675  0.0450
  521PYPI    C3 8093   6.614   1.805  10.849 -0.3259 -0.0469 -0.1411
  521PYPI   PO4 8094   6.793   1.605  10.232  0.1247 -0.1489  0.0339
  521PYPI   GL1 8095   6.777   1.647   9.836  0.0032  0.1031 -0.2328
  521PYPI   GL2 8096   6.871   1.256   9.901 -0.3708  0.0689 -0.0303
  521PYPI   C1A 8097   6.460   1.639   9.560  0.0445 -0.0817  0.0809
  521PYPI   C2A 8098   6.317   1.329   9.267  0.3408 -0.2418  0.1028
  521PYPI   D3A 8099   6.123   1.143   9.040  0.0184 -0.0392  0.0230
  521PYPI   C4A 8100   6.324   1.084   8.702 -0.2235  0.0975  0.2026
  521PYPI   C1B 8101   6.825   1.316   9.472 -0.0866  0.0005  0.1228
  521PYPI   C2B 8102   6.782   1.073   8.964  0.1844  0.3272  0.0641
  521PYPI   C3B 8103   6.806   1.021   8.488  0.2928 -0.1147 -0.2183
  521PYPI   C4B 8104   6.588   1.220   8.195  0.1509  0.0979 -0.0022
  522PYPI    C1 8105   2.345   4.608  10.013 -0.2238  0.0002 -0.1553
  522PYPI    C2 8106   2.696   4.773  10.112 -0.2012 -0.1800  0.0753
  522PYPI    C3 8107   2.396   5.004   9.983 -0.0605 -0.0020  0.0621
  522PYPI   PO4 8108   2.310   4.473   9.831 -0.0425 -0.0322  0.1537
  522PYPI   GL1 8109   2.259   4.587   9.440 -0.1547  0.0066 -0.2701
  522PYPI   GL2 8110   2.149   4.852   9.553 -0.2301  0.2000  0.2575
  522PYPI   C1A 8111   2.349   4.419   9.009 -0.3045  0.0849  0.2069
  522PYPI   C2A 8112   2.648   4.121   8.692 -0.2497 -0.2849 -0.0139
  522PYPI   D3A 8113   2.558   3.907   8.386 -0.2394 -0.0590 -0.0684
  522PYPI   C4A 8114   2.688   3.930   7.926  0.1373 -0.1612  0.2482
  522PYPI   C1B 8115   1.995   4.868   9.106 -0.0773  0.0637  0.0183
  522PYPI   C2B 8116   1.879   4.685   8.731  0.1129 -0.0577 -0.0661
  522PYPI   C3B 8117   1.517   4.689   8.400 -0.1507  0.0775 -0.0263
  522PYPI   C4B 8118   1.396   4.821   7.973  0.1377 -0.0465 -0.2074
  523PYPI    C1 8119   3.354   6.403  10.091 -0.0905  0.1265  0.2571
  523PYPI    C2 8120   3.069   6.648  10.228 -0.1745  0.1843 -0.0159
  523PYPI    C3 8121   3.213   6.358  10.463 -0.3479  0.2518  0.1770
  523PYPI   PO4 8122   3.292   6.417   9.831 -0.0641 -0.0353 -0.1684
  523PYPI   GL1 8123   3.210   6.532   9.389 -0.1647  0.0253  0.0810
  523PYPI   GL2 8124   3.196   6.224   9.379  0.0688 -0.0520  0.0676
  523PYPI   C1A 8125   3.162   6.661   8.971 -0.0452  0.0072  0.1036
  523PYPI   C2A 8126   3.206   6.615   8.556 -0.7523 -0.1285 -0.3449
  523PYPI   D3A 8127   3.198   6.423   8.236  0.0534 -0.0695 -0.0814
  523PYPI   C4A 8128   3.227   6.428   7.843 -0.0650  0.1176  0.0408
  523PYPI   C1B 8129   3.413   6.076   9.157 -0.0442  0.0533 -0.0328
  523PYPI   C2B 8130   3.459   5.910   8.795 -0.0429  0.3070  0.0775
  523PYPI   C3B 8131   3.458   5.928   8.353 -0.1398  0.3876  0.3889
  523PYPI   C4B 8132   3.526   5.950   7.961 -0.0913  0.1148 -0.0756
  524PYPI    C1 8133  11.272   6.913  10.059  0.3029 -0.0671  0.2330
  524PYPI    C2 8134  10.939   7.129  10.111  0.0688 -0.3532 -0.0380
  524PYPI    C3 8135  11.050   6.862  10.387  0.0707 -0.2623  0.0496
  524PYPI   PO4 8136  11.424   7.144   9.925 -0.0967  0.3747  0.1295
  524PYPI   GL1 8137  11.539   6.992   9.614 -0.3564  0.2964  0.0810
  524PYPI   GL2 8138  11.753   6.928   9.456 -0.0899 -0.4438  0.2132
  524PYPI   C1A 8139  11.462   7.257   9.186  0.1097 -0.1601 -0.2796
  524PYPI   C2A 8140  11.663   7.282   8.867  0.0791  0.2194 -0.0071
  524PYPI   D3A 8141  12.108   7.339   8.828  0.2812  0.3154 -0.0454
  524PYPI   C4A 8142  12.451   7.226   8.686 -0.0565 -0.1350 -0.1009
  524PYPI   C1B 8143  11.680   6.853   9.036 -0.1659 -0.3239 -0.0484
  524PYPI   C2B 8144  12.046   6.790   8.743 -0.1751 -0.0476  0.1702
  524PYPI   C3B 8145  12.094   6.542   8.371  0.1329  0.0414 -0.1575
  524PYPI   C4B 8146  12.069   6.419   7.870 -0.0604 -0.2121  0.0643
  525PYPI    C1 8147   0.402   7.996   9.903  0.0569  0.1701 -0.0954
  525PYPI    C2 8148   0.066   8.190   9.806  0.0972  0.2437 -0.0891
  525PYPI    C3 8149   0.344   8.372  10.029  0.0735  0.1297  0.0348
  525PYPI   PO4 8150   0.372   7.845   9.701  0.0602 -0.5564  0.1997
  525PYPI   GL1 8151   0.326   7.822   9.233 -0.0707 -0.0273  0.5316
  525PYPI   GL2 8152   0.304   7.458   9.364  0.1577 -0.4315 -0.4310
  525PYPI   C1A 8153   0.278   7.897   8.720  0.0379  0.2848 -0.2480
  525PYPI   C2A 8154   0.051   7.893   8.321  0.0072  0.0595 -0.0683
  525PYPI   D3A 8155  -0.205   7.752   7.937  0.2598 -0.0025 -0.0114
  525PYPI   C4A 8156  -0.111   7.589   7.619 -0.0293  0.2127 -0.2814
  525PYPI   C1B 8157   0.292   7.360   8.860 -0.2680  0.0740 -0.0102
  525PYPI   C2B 8158   0.056   7.179   8.454  0.0561 -0.3351 -0.0287
  525PYPI   C3B 8159   0.249   6.857   8.138  0.0438 -0.0043  0.1908
  525PYPI   C4B 8160   0.522   6.758   7.743 -0.0016  0.2283  0.0725
  526PYPI    C1 8161  15.966   0.499  10.362  0.0368  0.0816  0.1371
  526PYPI    C2 8162  15.647   0.621  10.570 -0.0592 -0.1015  0.0989
  526PYPI    C3 8163  15.631   0.281  10.359  0.0931 -0.0047 -0.0719
  526PYPI   PO4 8164  16.042   0.750  10.045  0.0354 -0.3479 -0.1241
  526PYPI   GL1 8165  16.165   0.673   9.627 -0.0526  0.0569 -0.2957
  526PYPI   GL2 8166  16.363   0.865   9.459  0.0115  0.1657  0.1063
  526PYPI   C1A 8167  15.898   0.630   9.271  0.0188  0.2064  0.2493
  526PYPI   C2A 8168  15.859   0.643   8.833 -0.0597  0.1820 -0.0911
  526PYPI   D3A 8169  15.565   0.885   8.601 -0.2538 -0.0849  0.1564
  526PYPI   C4A 8170  15.479   0.749   8.156 -0.0738  0.1843  0.0488
  526PYPI   C1B 8171  16.301   0.760   9.065 -0.2535 -0.0992  0.0850
  526PYPI   C2B 8172  16.291   0.561   8.621  0.1088  0.0576 -0.0756
  526PYPI   C3B 8173  16.212   0.197   8.439  0.0196  0.0312 -0.4394
  526PYPI   C4B 8174  16.334  -0.246   8.309  0.1471 -0.2336  0.0839
  527PYPI    C1 8175   5.025  10.912   9.503  0.1007 -0.0464 -0.2129
  527PYPI    C2 8176   5.376  11.071   9.608  0.1288 -0.0762 -0.2611
  527PYPI    C3 8177   5.268  10.714   9.752  0.0422  0.0098 -0.1109
  527PYPI   PO4 8178   4.723  11.088   9.502  0.0058  0.2866 -0.1586
  527PYPI   GL1 8179   4.554  11.280   9.132 -0.4361  0.1202 -0.0635
  527PYPI   GL2 8180   4.984  11.283   9.117 -0.1144 -0.0113 -0.1411
  527PYPI   C1A 8181   4.545  11.189   8.789 -0.1412 -0.0857  0.2369
  527PYPI   C2A 8182   4.508  11.178   8.422 -0.2878 -0.1155 -0.0339
  527PYPI   D3A 8183   4.620  11.085   7.953  0.1680  0.2936 -0.0041
  527PYPI   C4A 8184   4.338  10.959   7.571 -0.0485 -0.2030 -0.2640
  527PYPI   C1B 8185   5.087  11.108   8.666 -0.1813  0.2058  0.1719
  527PYPI   C2B 8186   5.276  11.426   8.306 -0.1385  0.1935 -0.0203
  527PYPI   C3B 8187   5.354  11.472   7.947 -0.1679  0.0759 -0.0239
  527PYPI   C4B 8188   5.282  11.785   7.602 -0.2739 -0.2416  0.2092
  528PYPI    C1 8189  18.178  10.816   9.965  0.0805  0.0280  0.0117
  528PYPI    C2 8190  18.200  10.673  10.337 -0.0122  0.1995  0.0845
  528PYPI    C3 8191  18.416  10.993  10.233  0.0864  0.0949 -0.0373
  528PYPI   PO4 8192  18.059  10.631   9.849  0.0289  0.0476  0.1465
  528PYPI   GL1 8193  17.754  10.639   9.601 -0.3443 -0.0499  0.0338
  528PYPI   GL2 8194  17.531  10.497   9.475  0.1141 -0.1665 -0.1611
  528PYPI   C1A 8195  17.683  10.931   9.316 -0.4473  0.1341 -0.1398
  528PYPI   C2A 8196  17.799  11.111   8.926 -0.0112  0.1494 -0.0426
  528PYPI   D3A 8197  17.899  11.086   8.635 -0.0564 -0.0293  0.1758
  528PYPI   C4A 8198  18.299  10.953   8.526  0.2265  0.0274 -0.0260
  528PYPI   C1B 8199  17.394  10.570   9.106 -0.0411 -0.2618 -0.1643
  528PYPI   C2B 8200  17.356  10.444   8.630  0.0972 -0.3438  0.1665
  528PYPI   C3B 8201  17.588  10.461   8.192 -0.4302  0.0225  0.1299
  528PYPI   C4B 8202  17.672  10.775   7.908  0.2935  0.1782  0.1333
  529PYPI    C1 8203   2.698  13.429  10.603 -0.3572 -0.0252  0.2122
  529PYPI    C2 8204   3.068  13.280  10.638 -0.3251  0.0208  0.0762
  529PYPI    C3 8205   2.975  13.627  10.813 -0.2515  0.1004 -0.0414
  529PYPI   PO4 8206   2.730  13.351  10.237 -0.2945  0.1322  0.0906
  529PYPI   GL1 8207   2.478  13.325   9.933  0.0177  0.0316  0.0850
  529PYPI   GL2 8208   2.226  13.366   9.920  0.2427 -0.3327 -0.0104
  529PYPI   C1A 8209   2.512  13.021   9.623 -0.0721  0.0067 -0.1535
  529PYPI   C2A 8210   2.476  12.751   9.189  0.0932  0.4005 -0.1139
  529PYPI   D3A 8211   2.614  12.427   9.033  0.0511  0.0115  0.0854
  529PYPI   C4A 8212   2.432  12.107   8.775 -0.2715  0.2639  0.0648
  529PYPI   C1B 8213   2.182  13.477   9.558 -0.0841  0.0721  0.0045
  529PYPI   C2B 8214   1.848  13.470   9.320 -0.2516 -0.1126  0.3116
  529PYPI   C3B 8215   1.694  13.524   8.847  0.0717  0.2071  0.1532
  529PYPI   C4B 8216   1.550  13.496   8.463  0.2566 -0.1523 -0.3085
  530PYPI    C1 8217  11.981   0.533   9.748 -0.2087  0.1595  0.1678
  530PYPI    C2 8218  12.102   0.414  10.110 -0.0668 -0.2322 -0.0026
  530PYPI    C3 8219  11.711   0.424  10.023 -0.0983 -0.1966  0.1400
  530PYPI   PO4 8220  12.129   0.470   9.616 -0.1529 -0.3211 -0.0493
  530PYPI   GL1 8221  12.404   0.558   9.260  0.2480 -0.0531 -0.0803
  530PYPI   GL2 8222  12.519   0.293   9.437 -0.0280  0.2646 -0.0301
  530PYPI   C1A 8223  12.232   0.366   8.962 -0.3228  0.1377  0.0116
  530PYPI   C2A 8224  12.158   0.237   8.538  0.1207 -0.2664 -0.1952
  530PYPI   D3A 8225  12.262   0.118   8.072 -0.2195 -0.1177 -0.1296
  530PYPI   C4A 8226  12.015  -0.162   7.854  0.1193  0.0588 -0.1286
  530PYPI   C1B 8227  12.557   0.011   9.030 -0.1844 -0.0290  0.1219
  530PYPI   C2B 8228  12.229  -0.192   8.795  0.1307  0.1208 -0.2783
  530PYPI   C3B 8229  12.173  -0.389   8.295  0.2600  0.1608 -0.1484
  530PYPI   C4B 8230  12.342  -0.474   7.808  0.0105 -0.0765  0.0177
  531PYPI    C1 8231   7.168   2.055  10.415 -0.1044 -0.0549 -0.0155
  531PYPI    C2 8232   7.528   2.024  10.243 -0.0063  0.0766  0.1627
  531PYPI    C3 8233   7.418   1.764  10.527 -0.0869 -0.0156  0.0479
  531PYPI   PO4 8234   7.061   2.118  10.079 -0.0444 -0.0824  0.1762
  531PYPI   GL1 8235   7.161   2.048   9.667  0.0973  0.3049 -0.1914
  531PYPI   GL2 8236   7.191   2.293   9.475  0.1001 -0.0398  0.2108
  531PYPI   C1A 8237   6.986   1.757   9.440 -0.2330  0.1853  0.1037
  531PYPI   C2A 8238   6.753   1.661   9.037  0.0203  0.1595  0.2405
  531PYPI   D3A 8239   6.674   1.618   8.656 -0.1136  0.5061 -0.1551
  531PYPI   C4A 8240   6.594   1.723   8.286  0.0001  0.2988  0.2877
  531PYPI   C1B 8241   7.128   2.361   9.058 -0.2029 -0.0990 -0.1490
  531PYPI   C2B 8242   7.191   2.471   8.605 -0.1123 -0.1609 -0.3069
  531PYPI   C3B 8243   7.607   2.607   8.413 -0.2723  0.0196  0.0030
  531PYPI   C4B 8244   7.768   2.520   8.057 -0.1441  0.2454  0.0974
  532PYPI    C1 8245  17.179   3.948  10.489  0.0302 -0.0125  0.0677
  532PYPI    C2 8246  16.811   4.097  10.537  0.0094 -0.0130 -0.0881
  532PYPI    C3 8247  17.073   4.112  10.839 -0.1467 -0.0934  0.0529
  532PYPI   PO4 8248  17.341   4.041  10.362 -0.0028  0.2070 -0.0286
  532PYPI   GL1 8249  17.485   4.155   9.860 -0.1915 -0.3103  0.1380
  532PYPI   GL2 8250  17.510   4.412  10.054 -0.0323  0.3104 -0.2653
  532PYPI   C1A 8251  17.497   4.045   9.455  0.0562 -0.1274 -0.2016
  532PYPI   C2A 8252  17.301   3.862   9.194  0.0455  0.0503 -0.1989
  532PYPI   D3A 8253  17.221   4.015   8.852 -0.0310 -0.1403  0.1112
  532PYPI   C4A 8254  16.849   4.076   8.569  0.1145  0.3602 -0.1376
  532PYPI   C1B 8255  17.459   4.566   9.581 -0.1691 -0.2727 -0.1708
  532PYPI   C2B 8256  17.552   4.539   9.155 -0.2396 -0.0589  0.1246
  532PYPI   C3B 8257  17.527   4.597   8.710 -0.1218  0.0998  0.2814
  532PYPI   C4B 8258  17.506   4.610   8.256 -0.1801  0.0990 -0.2181
  533PYPI    C1 8259   5.930  13.989   9.933 -0.0423 -0.0347  0.3012
  533PYPI    C2 8260   5.614  13.970   9.689  0.0752  0.0275  0.1427
  533PYPI    C3 8261   5.594  14.185  10.026 -0.1278 -0.1559  0.2500
  533PYPI   PO4 8262   6.147  14.035   9.795 -0.2649 -0.1402  0.0857
  533PYPI   GL1 8263   6.067  14.140   9.378  0.0043  0.0637 -0.1783
  533PYPI   GL2 8264   5.807  13.801   9.262 -0.0419 -0.0078 -0.0624
  533PYPI   C1A 8265   6.053  14.238   8.956  0.1990  0.1823  0.4744
  533PYPI   C2A 8266   6.189  14.297   8.391  0.1347 -0.0097  0.1383
  533PYPI   D3A 8267   5.996  14.507   8.061  0.0352 -0.1107 -0.0571
  533PYPI   C4A 8268   6.120  14.859   8.032  0.0898 -0.0968 -0.4363
  533PYPI   C1B 8269   5.850  13.853   8.779  0.0680 -0.1553 -0.0872
  533PYPI   C2B 8270   5.968  13.835   8.385  0.2522 -0.0943  0.0853
  533PYPI   C3B 8271   6.341  13.884   8.045  0.3178 -0.0040  0.4473
  533PYPI   C4B 8272   6.477  13.731   7.802 -0.0173 -0.2726 -0.0270
  534PYPI    C1 8273  10.228   9.954   9.740 -0.2230  0.1007  0.1077
  534PYPI    C2 8274  10.049   9.933  10.097 -0.0308 -0.0658  0.1963
  534PYPI    C3 8275  10.326  10.212  10.029 -0.0946 -0.0102  0.1643
  534PYPI   PO4 8276   9.966   9.911   9.520 -0.1151 -0.2195 -0.1238
  534PYPI   GL1 8277   9.969   9.915   9.071  0.0612  0.1481 -0.1560
  534PYPI   GL2 8278  10.277  10.051   9.129  0.1243  0.3657  0.1431
  534PYPI   C1A 8279   9.816  10.106   8.628 -0.1716  0.0170  0.2891
  534PYPI   C2A 8280   9.762  10.115   8.167  0.1197  0.2311  0.1819
  534PYPI   D3A 8281   9.732  10.411   7.853 -0.0711 -0.0902  0.0397
  534PYPI   C4A 8282   9.372  10.688   7.695  0.1468 -0.1895  0.1422
  534PYPI   C1B 8283  10.363  10.123   8.681  0.1733  0.3724 -0.2019
  534PYPI   C2B 8284  10.232   9.932   8.309  0.3669 -0.0012 -0.1364
  534PYPI   C3B 8285  10.162   9.501   8.227 -0.0242 -0.1264  0.0247
  534PYPI   C4B 8286   9.954   9.210   8.186  0.4557  0.2327 -0.0797
  535PYPI    C1 8287  12.476  17.690  10.129 -0.0644 -0.0133 -0.0940
  535PYPI    C2 8288  12.244  18.006  10.048 -0.0986 -0.0764 -0.2466
  535PYPI    C3 8289  12.162  17.774  10.363 -0.0454  0.0929 -0.1059
  535PYPI   PO4 8290  12.433  17.573   9.868  0.0395 -0.0445  0.0650
  535PYPI   GL1 8291  12.500  17.560   9.394 -0.1798  0.2890 -0.0923
  535PYPI   GL2 8292  12.314  17.331   9.291  0.2084  0.1606 -0.1378
  535PYPI   C1A 8293  12.560  17.533   8.902  0.2901 -0.1819 -0.1923
  535PYPI   C2A 8294  12.705  17.282   8.548 -0.0662  0.2688 -0.4980
  535PYPI   D3A 8295  12.805  17.021   8.150  0.1221 -0.1807 -0.2351
  535PYPI   C4A 8296  12.496  16.735   8.054 -0.1647 -0.2011 -0.1048
  535PYPI   C1B 8297  12.056  17.561   8.974 -0.2475 -0.1667 -0.0244
  535PYPI   C2B 8298  11.813  17.638   8.575 -0.2035  0.1467  0.1798
  535PYPI   C3B 8299  11.848  17.400   8.218 -0.0562 -0.3866  0.0317
  535PYPI   C4B 8300  11.898  17.011   7.906  0.2229 -0.1480 -0.2018
  536PYPI    C1 8301  10.340   4.876   9.843  0.0036  0.0365 -0.0852
  536PYPI    C2 8302  10.378   4.906  10.240 -0.0328  0.3957 -0.1055
  536PYPI    C3 8303  10.696   4.816  10.015 -0.0445  0.0357  0.0148
  536PYPI   PO4 8304  10.048   4.802   9.874  0.5810 -0.2309  0.1127
  536PYPI   GL1 8305   9.942   4.937   9.557  0.1287 -0.0972 -0.1116
  536PYPI   GL2 8306   9.614   4.802   9.428  0.2477  0.1897  0.0455
  536PYPI   C1A 8307  10.000   4.752   9.127  0.1706 -0.3269 -0.0519
  536PYPI   C2A 8308  10.047   4.542   8.757 -0.2016  0.1054  0.0554
  536PYPI   D3A 8309   9.892   4.235   8.516  0.3322 -0.2346  0.4166
  536PYPI   C4A 8310  10.095   3.987   8.083 -0.0079 -0.2449 -0.3453
  536PYPI   C1B 8311   9.541   4.778   9.092 -0.4722  0.0655  0.2050
  536PYPI   C2B 8312   9.704   4.876   8.653  0.0188 -0.1106 -0.0156
  536PYPI   C3B 8313   9.913   4.696   8.265 -0.3608  0.1507  0.1675
  536PYPI   C4B 8314   9.954   4.414   7.965  0.0906  0.0332 -0.3265
  537PYPI    C1 8315   5.523  13.630  10.043 -0.2318 -0.0022 -0.0270
  537PYPI    C2 8316   5.429  13.411  10.364  0.1878 -0.2362 -0.0580
  537PYPI    C3 8317   5.809  13.433  10.241  0.1091  0.2786 -0.2295
  537PYPI   PO4 8318   5.358  13.544   9.846  0.0557 -0.0580 -0.2313
  537PYPI   GL1 8319   5.477  13.521   9.362 -0.0215 -0.1379  0.0664
  537PYPI   GL2 8320   5.278  13.215   9.181  0.0428  0.1691  0.2328
  537PYPI   C1A 8321   5.558  13.478   8.849 -0.0304  0.0133 -0.1574
  537PYPI   C2A 8322   5.550  13.477   8.436 -0.0487 -0.1137 -0.1873
  537PYPI   D3A 8323   5.535  13.644   8.064 -0.0705  0.1043 -0.1851
  537PYPI   C4A 8324   5.889  13.745   7.872 -0.3426  0.0398 -0.0566
  537PYPI   C1B 8325   5.038  13.391   8.821 -0.5276  0.0757  0.1627
  537PYPI   C2B 8326   5.094  13.537   8.531  0.0036 -0.4096 -0.0670
  537PYPI   C3B 8327   5.057  13.555   8.193  0.0566  0.0428 -0.2454
  537PYPI   C4B 8328   5.111  13.646   7.681  0.1391 -0.1981  0.1555
  538PYPI    C1 8329   2.638   8.917  10.008 -0.1338 -0.0143  0.0141
  538PYPI    C2 8330   2.394   9.155  10.217  0.1672  0.0318  0.3205
  538PYPI    C3 8331   2.768   9.089  10.345  0.2906 -0.1065 -0.0963
  538PYPI   PO4 8332   2.632   8.872   9.680 -0.0526  0.0286  0.0322
  538PYPI   GL1 8333   2.714   8.722   9.407 -0.4436 -0.3372  0.0511
  538PYPI   GL2 8334   2.496   8.407   9.303  0.0480  0.0221 -0.0366
  538PYPI   C1A 8335   2.905   8.870   9.000  0.0208  0.1648 -0.0042
  538PYPI   C2A 8336   3.250   8.818   8.806  0.3787 -0.2230 -0.2127
  538PYPI   D3A 8337   3.339   8.787   8.406  0.3500  0.0594 -0.0805
  538PYPI   C4A 8338   3.137   9.064   8.188 -0.1463 -0.4612 -0.0223
  538PYPI   C1B 8339   2.516   8.554   8.868  0.0649  0.2722 -0.3768
  538PYPI   C2B 8340   2.427   8.710   8.468 -0.0411 -0.2039  0.0091
  538PYPI   C3B 8341   2.390   8.765   8.058  0.1123 -0.4106 -0.0434
  538PYPI   C4B 8342   2.269   8.992   7.745 -0.0046  0.1059  0.4230
  539PYPI    C1 8343  16.890  13.219  10.991  0.0427  0.2034 -0.0527
  539PYPI    C2 8344  16.532  13.391  11.043 -0.1456 -0.2363  0.1595
  539PYPI    C3 8345  16.561  13.046  10.842  0.1656 -0.1878  0.1163
  539PYPI   PO4 8346  17.029  13.356  10.801 -0.0196  0.2276 -0.0682
  539PYPI   GL1 8347  16.990  13.640  10.420 -0.1354  0.2790 -0.0134
  539PYPI   GL2 8348  16.917  13.506  10.130  0.0960 -0.1126  0.0454
  539PYPI   C1A 8349  17.316  13.825  10.048 -0.5899  0.2058 -0.0106
  539PYPI   C2A 8350  17.700  14.142   9.950 -0.2190 -0.2111  0.0329
  539PYPI   D3A 8351  18.067  14.201   9.824 -0.2284 -0.0438  0.5901
  539PYPI   C4A 8352  18.193  14.494  10.085  0.2524 -0.1406  0.3925
  539PYPI   C1B 8353  16.876  13.370   9.706 -0.0671 -0.1020  0.0354
  539PYPI   C2B 8354  16.693  13.556   9.294  0.3710 -0.0100 -0.1086
  539PYPI   C3B 8355  16.751  13.473   8.894  0.0566  0.2764 -0.0675
  539PYPI   C4B 8356  16.511  13.366   8.484 -0.1255  0.2108  0.3147
  540ERGO   ROH 8357   2.572   8.036   8.957  0.0612  0.1834  0.0207
  540ERGO    R1 8358   2.705   7.968   8.717  0.1240  0.0534  0.0913
  540ERGO    R2 8359   2.569   7.911   8.483  0.1826 -0.1401  0.1030
  540ERGO    R3 8360   2.730   8.105   8.381  0.1525 -0.1678  0.0014
  540ERGO    R4 8361   2.588   7.996   8.148  0.1717 -0.3145  0.0570
  540ERGO    R5 8362   2.804   8.016   8.171  0.1685 -0.2677  0.0486
  540ERGO    C1 8363   2.751   8.227   7.858  0.1371 -0.4420 -0.0650
  540ERGO    C2 8364   2.593   8.390   7.685 -0.1039  0.3084  0.1177
  541ERGO   ROH 8365   1.411  11.457   9.422  0.1551  0.1383 -0.0886
  541ERGO    R1 8366   1.530  11.531   9.176  0.0755 -0.0522 -0.1832
  541ERGO    R2 8367   1.431  11.449   8.931 -0.3487  0.2296 -0.0978
  541ERGO    R3 8368   1.430  11.715   8.879  0.1826  0.2567 -0.0380
  541ERGO    R4 8369   1.435  11.589   8.615 -0.7026  0.2373 -0.1053
  541ERGO    R5 8370   1.573  11.740   8.689 -0.1486 -0.0859 -0.3655
  541ERGO    C1 8371   1.436  11.921   8.382 -0.4099  0.2672 -0.0535
  541ERGO    C2 8372   1.266  12.067   8.124  0.2333 -0.1575  0.2305
  542ERGO   ROH 8373   8.439  12.812   9.477  0.2680 -0.0955  0.0255
  542ERGO    R1 8374   8.626  12.853   9.268  0.2016  0.0616 -0.0033
  542ERGO    R2 8375   8.662  12.672   9.062  0.2150  0.1656 -0.0879
  542ERGO    R3 8376   8.615  12.890   8.906  0.1022  0.2157  0.0131
  542ERGO    R4 8377   8.813  12.734   8.758 -0.0299  0.2336 -0.1990
  542ERGO    R5 8378   8.828  12.944   8.813  0.0351  0.2206 -0.1492
  542ERGO    C1 8379   8.857  12.975   8.434 -0.2783  0.3204 -0.1688
  542ERGO    C2 8380   9.085  12.919   8.089 -0.2991  0.0617 -0.5128
  543ERGO   ROH 8381   8.160  16.279   8.971  0.0676  0.2457  0.0000
  543ERGO    R1 8382   8.061  16.390   8.730  0.1976  0.0910 -0.1276
  543ERGO    R2 8383   8.203  16.383   8.493  0.2176 -0.2875 -0.1082
  543ERGO    R3 8384   7.975  16.269   8.398  0.1200 -0.1747 -0.0136
  543ERGO    R4 8385   8.084  16.418   8.170  0.1658 -0.3235 -0.0934
  543ERGO    R5 8386   7.882  16.434   8.251  0.1931 -0.1638 -0.0501
  543ERGO    C1 8387   7.801  16.331   7.893  0.0442 -0.2383  0.0040
  543ERGO    C2 8388   7.684  16.136   7.679 -0.1247 -0.1794 -0.1226
  544ERGO   ROH 8389  13.159   0.764   9.337 -0.0467  0.0744  0.1193
  544ERGO    R1 8390  13.150   0.604   9.104 -0.0609  0.0508  0.1359
  544ERGO    R2 8391  13.011   0.679   8.877  0.0861  0.1196  0.0680
  544ERGO    R3 8392  13.251   0.637   8.756  0.1091 -0.0638  0.1727
  544ERGO    R4 8393  13.058   0.652   8.535  0.2007 -0.0067  0.0926
  544ERGO    R5 8394  13.200   0.491   8.572  0.0886 -0.0861  0.1948
  544ERGO    C1 8395  13.310   0.598   8.223  0.2890 -0.2524  0.2054
  544ERGO    C2 8396  13.195   0.492   7.791  0.4165  0.0210 -0.2295
  545ERGO   ROH 8397   1.601   6.935   9.320 -0.0721  0.0282  0.0953
  545ERGO    R1 8398   1.642   6.955   9.041  0.0456 -0.0965  0.1044
  545ERGO    R2 8399   1.724   6.740   8.888 -0.1302 -0.2252  0.2001
  545ERGO    R3 8400   1.503   6.801   8.742 -0.0131 -0.0338  0.0966
  545ERGO    R4 8401   1.683   6.666   8.553 -0.0751 -0.3145  0.2117
  545ERGO    R5 8402   1.589   6.862   8.526  0.1462 -0.2103  0.1010
  545ERGO    C1 8403   1.451   6.681   8.220  0.0670 -0.1869  0.1213
  545ERGO    C2 8404   1.461   6.550   7.890 -0.2421 -0.0489 -0.2185
  546ERGO   ROH 8405  12.629  11.913   9.788  0.0514 -0.1296 -0.0821
  546ERGO    R1 8406  12.810  12.068   9.636  0.2419 -0.2506  0.0193
  546ERGO    R2 8407  12.978  11.957   9.448 -0.1939 -0.3002 -0.3489
  546ERGO    R3 8408  12.864  12.140   9.283  0.0398  0.2657  0.0829
  546ERGO    R4 8409  13.120  12.072   9.154 -0.3425 -0.3607 -0.4462
  546ERGO    R5 8410  13.049  12.273   9.205  0.3276 -0.1798 -0.0529
  546ERGO    C1 8411  13.095  12.311   8.828 -0.2095  0.1354 -0.0973
  546ERGO    C2 8412  13.138  12.521   8.517 -0.2074 -0.0203  0.5363
  547ERGO   ROH 8413  15.598  13.836   9.869  0.3681 -0.1490  0.1257
  547ERGO    R1 8414  15.763  13.781   9.646  0.1510 -0.0133 -0.0716
  547ERGO    R2 8415  15.673  13.642   9.425 -0.0789  0.1772 -0.0858
  547ERGO    R3 8416  15.765  13.861   9.292 -0.1557  0.2524 -0.0211
  547ERGO    R4 8417  15.795  13.640   9.101  0.0429  0.2680 -0.0430
  547ERGO    R5 8418  15.950  13.780   9.164 -0.0520  0.3604  0.0395
  547ERGO    C1 8419  15.952  13.845   8.788  0.0418  0.3913  0.0427
  547ERGO    C2 8420  16.066  13.897   8.523  0.1427  0.0405  0.0164
  548ERGO   ROH 8421   8.595   1.254   9.415 -0.0213 -0.1426  0.0605
  548ERGO    R1 8422   8.780   1.224   9.202 -0.0224 -0.0895  0.0520
  548ERGO    R2 8423   8.848   0.978   9.098  0.0031 -0.0661  0.0129
  548ERGO    R3 8424   8.773   1.093   8.863 -0.0148 -0.0387  0.0319
  548ERGO    R4 8425   9.028   0.963   8.803  0.0262  0.0447  0.0212
  548ERGO    R5 8426   8.977   1.172   8.767 -0.0303  0.0385  0.0610
  548ERGO    C1 8427   9.062   1.063   8.411  0.0228  0.1349  0.0440
  548ERGO    C2 8428   9.265   1.215   8.187  0.2780  0.0526 -0.1166
  549ERGO   ROH 8429   1.616  15.327   9.877  0.1303 -0.0155 -0.1062
  549ERGO    R1 8430   1.598  15.475   9.636  0.0685 -0.0607 -0.1288
  549ERGO    R2 8431   1.550  15.357   9.392 -0.0148 -0.1033 -0.0887
  549ERGO    R3 8432   1.345  15.535   9.381 -0.0043 -0.0888 -0.0651
  549ERGO    R4 8433   1.458  15.534   9.110  0.0646  0.0130 -0.0432
  549ERGO    R5 8434   1.425  15.709   9.236  0.0425 -0.0337  0.0219
  549ERGO    C1 8435   1.212  15.804   8.935  0.1205  0.0941  0.0056
  549ERGO    C2 8436   1.243  15.903   8.516  0.1026 -0.3052  0.1512
  550ERGO   ROH 8437   5.186  16.472   9.504  0.1204  0.0307  0.1323
  550ERGO    R1 8438   5.189  16.367   9.241 -0.2864  0.0309  0.1238
  550ERGO    R2 8439   5.001  16.436   9.051 -0.1596  0.6061  0.2057
  550ERGO    R3 8440   5.221  16.499   8.904 -0.0106 -0.0346  0.1187
  550ERGO    R4 8441   5.000  16.496   8.711 -0.1701  0.7634  0.2303
  550ERGO    R5 8442   5.188  16.386   8.696 -0.5078  0.1445  0.0781
  550ERGO    C1 8443   5.206  16.590   8.374 -0.0363  0.2536  0.1628
  550ERGO    C2 8444   5.175  17.010   8.259  0.2861 -0.0288  0.1447
  551ERGO   ROH 8445  11.690  18.441   9.305 -0.3140  0.1158 -0.0265
  551ERGO    R1 8446  11.617  18.400   9.035 -0.4000 -0.0893  0.0263
  551ERGO    R2 8447  11.798  18.320   8.842 -0.3092  0.3881 -0.1000
  551ERGO    R3 8448  11.618  18.121   8.800  0.1825 -0.1115  0.0413
  551ERGO    R4 8449  11.725  18.182   8.534 -0.3285  0.3421 -0.0748
  551ERGO    R5 8450  11.515  18.177   8.591 -0.2591 -0.2828  0.2029
  551ERGO    C1 8451  11.514  17.914   8.315  0.1218 -0.1538  0.0725
  551ERGO    C2 8452  11.455  17.703   7.923 -0.0142 -0.3221 -0.2232
  552ERGO   ROH 8453   2.433   9.104   9.304  0.0008 -0.0834 -0.1178
  552ERGO    R1 8454   2.371   9.248   9.068 -0.1135  0.0460 -0.0103
  552ERGO    R2 8455   2.401   9.139   8.816  0.1304  0.3121 -0.0987
  552ERGO    R3 8456   2.140   9.211   8.789  0.0349 -0.0254 -0.1259
  552ERGO    R4 8457   2.233   9.168   8.515  0.0582 -0.1213 -0.1064
  552ERGO    R5 8458   2.135   9.347   8.592 -0.1529 -0.1774 -0.2307
  552ERGO    C1 8459   1.891   9.252   8.315 -0.0736 -0.6906 -0.1365
  552ERGO    C2 8460   1.841   9.169   7.982  0.1638  0.0728  0.1861
  553ERGO   ROH 8461   9.070  11.289   9.279 -0.0250  0.2683  0.0328
  553ERGO    R1 8462   9.115  11.373   9.012 -0.0813  0.2943  0.0302
  553ERGO    R2 8463   9.112  11.198   8.799  0.3032  0.2330  0.0591
  553ERGO    R3 8464   8.928  11.373   8.700  0.0173 -0.1074 -0.0326
  553ERGO    R4 8465   9.100  11.308   8.471  0.4329  0.4275  0.1194
  553ERGO    R5 8466   9.052  11.508   8.545 -0.1018  0.2777  0.2006
  553ERGO    C1 8467   8.922  11.537   8.188  0.2401  0.2213  0.0684
  553ERGO    C2 8468   8.751  11.571   7.828 -0.2376  0.0188 -0.1646
  554ERGO   ROH 8469   0.145  10.548   9.486 -0.0676 -0.0068  0.0308
  554ERGO    R1 8470   0.306  10.766   9.407 -0.2163  0.1287  0.1000
  554ERGO    R2 8471   0.504  10.744   9.215 -0.0499  0.2685  0.2576
  554ERGO    R3 8472   0.370  10.950   9.099 -0.1575  0.1155  0.1025
  554ERGO    R4 8473   0.613  10.918   8.937 -0.1300  0.1179  0.1295
  554ERGO    R5 8474   0.542  11.102   9.031 -0.2293  0.1560 -0.0043
  554ERGO    C1 8475   0.550  11.213   8.666 -0.2776 -0.1135 -0.0907
  554ERGO    C2 8476   0.740  11.438   8.430 -0.2963  0.0671 -0.1029
  555ERGO   ROH 8477  13.300   6.333   9.273 -0.0287  0.2042  0.0323
  555ERGO    R1 8478  13.239   6.309   8.997 -0.1677  0.2765  0.0550
  555ERGO    R2 8479  13.138   6.520   8.848  0.0568  0.4149  0.0844
  555ERGO    R3 8480  13.350   6.465   8.688 -0.0721  0.1188  0.0109
  555ERGO    R4 8481  13.160   6.602   8.514  0.0566  0.3623  0.0721
  555ERGO    R5 8482  13.253   6.409   8.476 -0.2173  0.2365  0.0500
  555ERGO    C1 8483  13.372   6.599   8.168 -0.0647  0.0536 -0.0040
  555ERGO    C2 8484  13.414   6.642   7.760 -0.2462  0.1769 -0.0567
  556ERGO   ROH 8485   0.867  12.158   9.616  0.3277 -0.0523  0.0122
  556ERGO    R1 8486   0.662  12.153   9.421  0.3087  0.1637  0.0226
  556ERGO    R2 8487   0.698  12.249   9.165  0.3912  0.1456  0.0227
  556ERGO    R3 8488   0.612  12.001   9.094  0.1422  0.2311  0.0172
  556ERGO    R4 8489   0.577  12.164   8.852  0.2797  0.2698  0.0316
  556ERGO    R5 8490   0.425  12.042   8.950  0.1705  0.4151  0.0358
  556ERGO    C1 8491   0.426  11.881   8.604 -0.0188  0.4225  0.0317
  556ERGO    C2 8492   0.349  11.733   8.227  0.2657  0.1776  0.2072
  557ERGO   ROH 8493  15.812  15.640   9.888 -0.0354  0.0006 -0.2171
  557ERGO    R1 8494  15.799  15.582   9.611  0.0476 -0.1326 -0.1953
  557ERGO    R2 8495  15.992  15.667   9.432 -0.0637  0.0691 -0.2330
  557ERGO    R3 8496  16.004  15.402   9.369  0.3081  0.0535 -0.1152
  557ERGO    R4 8497  16.023  15.541   9.111 -0.3301 -0.0368 -0.2183
  557ERGO    R5 8498  15.881  15.385   9.164  0.0240 -0.2672  0.0777
  557ERGO    C1 8499  16.052  15.220   8.866 -0.1358 -0.1131 -0.0994
  557ERGO    C2 8500  16.251  15.049   8.638  0.1206 -0.1587  0.0556
  558ERGO   ROH 8501  14.153   3.226   9.341  0.1845  0.1636  0.2216
  558ERGO    R1 8502  14.147   3.423   9.138  0.1670  0.0612  0.1205
  558ERGO    R2 8503  14.376   3.510   9.010  0.1464 -0.0833 -0.0257
  558ERGO    R3 8504  14.236   3.443   8.786  0.0239 -0.1561  0.0719
  558ERGO    R4 8505  14.428   3.646   8.696 -0.1000 -0.1193 -0.0843
  558ERGO    R5 8506  14.212   3.649   8.667 -0.1148 -0.1872  0.0531
  558ERGO    C1 8507  14.328   3.662   8.304 -0.3584 -0.2086 -0.0267
  558ERGO    C2 8508  14.468   3.846   8.059 -0.2830  0.0222 -0.2446
  559ERGO   ROH 8509  17.580   0.121   9.759 -0.0802  0.0471  0.2858
  559ERGO    R1 8510  17.463   0.063   9.508 -0.0730  0.0567  0.2801
  559ERGO    R2 8511  17.592   0.114   9.268 -0.0612  0.0575  0.2850
  559ERGO    R3 8512  17.541  -0.149   9.222 -0.0688  0.0598  0.2799
  559ERGO    R4 8513  17.685  -0.059   8.984  0.1592 -0.0091  0.3948
  559ERGO    R5 8514  17.492  -0.160   8.988  0.1376  0.0291  0.2387
  559ERGO    C1 8515  17.691  -0.406   8.775  0.2803 -0.0455  0.4541
  559ERGO    C2 8516  17.757  -0.630   8.507 -0.0586 -0.0046  0.0763
  560ERGO   ROH 8517   9.314  17.584   9.038 -0.0109 -0.1079 -0.1786
  560ERGO    R1 8518   9.390  17.393   8.842 -0.1898 -0.1862 -0.1750
  560ERGO    R2 8519   9.207  17.225   8.721 -0.3896  0.1208 -0.3266
  560ERGO    R3 8520   9.312  17.329   8.493 -0.0842  0.0181 -0.2362
  560ERGO    R4 8521   9.150  17.102   8.403 -0.1878  0.1565 -0.3771
  560ERGO    R5 8522   9.360  17.138   8.356 -0.1154 -0.0247 -0.1805
  560ERGO    C1 8523   9.215  17.129   8.004  0.2163  0.0810 -0.3218
  560ERGO    C2 8524   8.998  17.176   7.883 -0.2193  0.2697 -0.1884
  561ERGO   ROH 8525  15.410  12.515   9.761 -0.4477  0.0900 -0.1109
  561ERGO    R1 8526  15.428  12.698   9.546 -0.1849  0.0569 -0.1221
  561ERGO    R2 8527  15.585  12.652   9.323 -0.1270 -0.1086 -0.0577
  561ERGO    R3 8528  15.352  12.697   9.191 -0.0345  0.0911 -0.1528
  561ERGO    R4 8529  15.558  12.698   8.982  0.0182 -0.2645 -0.0911
  561ERGO    R5 8530  15.410  12.854   9.020  0.1924 -0.0744 -0.2238
  561ERGO    C1 8531  15.323  12.768   8.659  0.1897 -0.1678 -0.1997
  561ERGO    C2 8532  15.316  12.736   8.215 -0.0957  0.2417 -0.0805
  562ERGO   ROH 8533   6.193   7.355   9.301 -0.1668 -0.1000  0.0717
  562ERGO    R1 8534   6.138   7.272   9.036 -0.1175 -0.0388  0.0418
  562ERGO    R2 8535   6.065   7.449   8.837  0.1498  0.0413  0.0084
  562ERGO    R3 8536   6.274   7.337   8.705  0.1098 -0.1577  0.1104
  562ERGO    R4 8537   6.049   7.314   8.519  0.1852  0.0833 -0.0108
  562ERGO    R5 8538   6.179   7.153   8.586 -0.0114 -0.0525  0.0446
  562ERGO    C1 8539   6.238   7.131   8.210  0.1685 -0.0790  0.0738
  562ERGO    C2 8540   6.322   6.977   7.925 -0.1042  0.0657  0.0323
  563ERGO   ROH 8541  18.689  13.845   9.975 -0.1719  0.0148 -0.0487
  563ERGO    R1 8542  18.570  14.071   9.853  0.0148  0.1208 -0.0372
  563ERGO    R2 8543  18.718  14.289   9.769  0.1958  0.0041 -0.0251
  563ERGO    R3 8544  18.593  14.241   9.532  0.1556  0.1204 -0.0284
  563ERGO    R4 8545  18.606  14.533   9.551 -0.0304  0.1181  0.2126
  563ERGO    R5 8546  18.428  14.413   9.516  0.0360  0.0290  0.1682
  563ERGO    C1 8547  18.425  14.630   9.202 -0.2002  0.2938  0.3480
  563ERGO    C2 8548  18.484  14.744   8.924 -0.0622 -0.0362  0.0805
  564ERGO   ROH 8549   9.997  13.579   9.496 -0.2400 -0.2106  0.0407
  564ERGO    R1 8550   9.971  13.689   9.236 -0.0299 -0.0616  0.0802
  564ERGO    R2 8551  10.187  13.730   9.070  0.0740 -0.2357  0.1698
  564ERGO    R3 8552  10.040  13.581   8.896 -0.0439  0.0105  0.0544
  564ERGO    R4 8553  10.277  13.661   8.743  0.1480 -0.2688  0.1966
  564ERGO    R5 8554  10.069  13.691   8.685  0.2132  0.0316  0.0970
  564ERGO    C1 8555  10.190  13.482   8.389  0.0805 -0.0570  0.1038
  564ERGO    C2 8556  10.028  13.329   7.985  0.0702  0.4495 -0.1703
  565ERGO   ROH 8557   9.973   2.746   9.284 -0.0547 -0.1120 -0.1031
  565ERGO    R1 8558   9.961   2.630   9.026 -0.0431 -0.0501 -0.1324
  565ERGO    R2 8559   9.802   2.731   8.824 -0.0846 -0.0385 -0.0976
  565ERGO    R3 8560  10.036   2.733   8.685 -0.0935  0.0568 -0.1106
  565ERGO    R4 8561   9.831   2.679   8.483 -0.0631 -0.1919 -0.0728
  565ERGO    R5 8562  10.010   2.561   8.521  0.0219 -0.0449 -0.0215
  565ERGO    C1 8563  10.067   2.651   8.155 -0.0588 -0.1918 -0.0705
  565ERGO    C2 8564   9.894   2.648   7.908 -0.0166  0.1194 -0.0863
  566ERGO   ROH 8565  15.581   8.167   9.219 -0.2877 -0.1953  0.0710
  566ERGO    R1 8566  15.501   8.257   8.963 -0.3459 -0.1751  0.0968
  566ERGO    R2 8567  15.658   8.224   8.738 -0.2138  0.2015  0.1295
  566ERGO    R3 8568  15.434   8.106   8.639  0.0013 -0.1014 -0.0146
  566ERGO    R4 8569  15.602   8.156   8.404  0.0244  0.2771  0.0722
  566ERGO    R5 8570  15.395   8.219   8.431 -0.0906 -0.0555  0.0248
  566ERGO    C1 8571  15.359   8.007   8.116  0.3649  0.0366 -0.0966
  566ERGO    C2 8572  15.347   7.862   7.770 -0.0620  0.2224  0.0314
  567ERGO   ROH 8573   0.242  15.591   9.511 -0.0537 -0.3021  0.1697
  567ERGO    R1 8574   0.233  15.437   9.274  0.0016 -0.2148  0.1083
  567ERGO    R2 8575   0.196  15.550   9.024 -0.1387 -0.1388  0.1556
  567ERGO    R3 8576   0.425  15.415   8.965 -0.0532  0.0505  0.0545
  567ERGO    R4 8577   0.307  15.480   8.704 -0.2369 -0.0790  0.1095
  567ERGO    R5 8578   0.368  15.282   8.774 -0.0333 -0.0173  0.0994
  567ERGO    C1 8579   0.586  15.313   8.463 -0.2139  0.1335 -0.0121
  567ERGO    C2 8580   0.784  14.993   8.359  0.3725 -0.1778  0.2393
  568ERGO   ROH 8581   5.565   1.861   9.692  0.0351  0.1150  0.0105
  568ERGO    R1 8582   5.518   1.787   9.423  0.0376 -0.0412  0.0506
  568ERGO    R2 8583   5.310   1.620   9.348 -0.0382  0.0074  0.1302
  568ERGO    R3 8584   5.248   1.826   9.182  0.0896 -0.0666 -0.0096
  568ERGO    R4 8585   5.199   1.585   9.023  0.1908 -0.1265  0.0654
  568ERGO    R5 8586   5.324   1.754   8.967  0.2356 -0.1631  0.0776
  568ERGO    C1 8587   5.076   1.758   8.677  0.4442 -0.2739 -0.1035
  568ERGO    C2 8588   5.066   1.964   8.380  0.3879  0.1270  0.0942
  569ERGO   ROH 8589   3.381   2.819   9.606 -0.1858 -0.1341 -0.0280
  569ERGO    R1 8590   3.491   2.712   9.368 -0.1351 -0.0518 -0.0403
  569ERGO    R2 8591   3.334   2.631   9.154 -0.0837  0.0530 -0.1080
  569ERGO    R3 8592   3.494   2.801   9.015 -0.0264  0.0840 -0.0082
  569ERGO    R4 8593   3.338   2.662   8.810  0.1906 -0.0357 -0.1160
  569ERGO    R5 8594   3.555   2.678   8.819  0.1878  0.0500  0.0687
  569ERGO    C1 8595   3.491   2.839   8.479  0.4042 -0.0581 -0.0269
  569ERGO    C2 8596   3.321   2.827   8.173  0.3251  0.3838 -0.0811
  570ERGO   ROH 8597  17.783  16.564  10.158  0.1883 -0.0198  0.1305
  570ERGO    R1 8598  17.810  16.489   9.886  0.0618 -0.0301  0.1199
  570ERGO    R2 8599  17.756  16.662   9.678 -0.0764 -0.0511  0.1374
  570ERGO    R3 8600  18.009  16.598   9.601 -0.1035 -0.0108  0.0110
  570ERGO    R4 8601  17.863  16.640   9.350 -0.1637  0.2357  0.0865
  570ERGO    R5 8602  17.979  16.463   9.405 -0.1691  0.1709 -0.1053
  570ERGO    C1 8603  18.162  16.566   9.087 -0.2396  0.4407 -0.0618
  570ERGO    C2 8604  18.113  16.556   8.847 -0.0992  0.2399 -0.2521
  571ERGO   ROH 8605   1.793   2.159   9.285  0.0099 -0.0177 -0.1521
  571ERGO    R1 8606   1.672   2.163   9.029  0.0763 -0.0641 -0.1856
  571ERGO    R2 8607   1.560   1.939   8.914 -0.1217 -0.0333 -0.0670
  571ERGO    R3 8608   1.341   2.099   8.892  0.0432  0.1749 -0.2194
  571ERGO    R4 8609   1.346   1.944   8.642 -0.0988 -0.0439 -0.0841
  571ERGO    R5 8610   1.337   2.161   8.660  0.1231 -0.0183 -0.2724
  571ERGO    C1 8611   1.017   2.098   8.463  0.0692  0.1453 -0.2371
  571ERGO    C2 8612   0.836   2.167   8.191  0.2597 -0.2163  0.4534
  572ERGO   ROH 8613   7.796  13.538   9.184  0.0613  0.1213  0.1852
  572ERGO    R1 8614   7.930  13.523   8.935  0.1541  0.0687  0.2379
  572ERGO    R2 8615   7.811  13.604   8.697  0.1556 -0.2031  0.1444
  572ERGO    R3 8616   8.034  13.758   8.677  0.0233 -0.0136  0.1077
  572ERGO    R4 8617   7.927  13.747   8.405  0.1638 -0.3765  0.0609
  572ERGO    R5 8618   8.130  13.698   8.467  0.1830 -0.1302  0.2108
  572ERGO    C1 8619   8.203  13.975   8.216  0.0444 -0.2995 -0.0222
  572ERGO    C2 8620   8.247  14.131   8.124 -0.4555 -0.2542  0.0869
  573ERGO   ROH 8621  15.601   0.901   9.598  0.0712  0.0639 -0.1295
  573ERGO    R1 8622  15.416   0.945   9.389  0.0103  0.0591 -0.0764
  573ERGO    R2 8623  15.295   1.190   9.347  0.0686  0.0814 -0.1017
  573ERGO    R3 8624  15.395   1.160   9.096 -0.0309 -0.0178 -0.1308
  573ERGO    R4 8625  15.134   1.289   9.057  0.0736  0.2299 -0.0552
  573ERGO    R5 8626  15.204   1.105   8.962 -0.1255  0.1589 -0.0741
  573ERGO    C1 8627  15.134   1.318   8.653 -0.0171  0.2233 -0.0556
  573ERGO    C2 8628  15.094   1.577   8.435 -0.3255  0.0001  0.2526
  574ERGO   ROH 8629   7.668  15.450   9.254  0.0267  0.0795 -0.0963
  574ERGO    R1 8630   7.509  15.438   9.020 -0.0476  0.0649 -0.0455
  574ERGO    R2 8631   7.432  15.665   8.881  0.0572  0.0465 -0.1354
  574ERGO    R3 8632   7.545  15.534   8.671 -0.0850 -0.1302 -0.1043
  574ERGO    R4 8633   7.405  15.761   8.550  0.1037 -0.0430 -0.1652
  574ERGO    R5 8634   7.383  15.551   8.495 -0.0925 -0.0447 -0.0898
  574ERGO    C1 8635   7.495  15.694   8.160 -0.0027 -0.2611 -0.1536
  574ERGO    C2 8636   7.299  15.792   7.846 -0.1089 -0.0527  0.2761
  575ERGO   ROH 8637  13.394  12.621  10.023 -0.1205 -0.0902  0.0303
  575ERGO    R1 8638  13.522  12.526   9.789 -0.0226 -0.0192  0.0538
  575ERGO    R2 8639  13.412  12.332   9.626  0.0862 -0.0392 -0.0047
  575ERGO    R3 8640  13.450  12.519   9.432  0.0774  0.0016  0.0341
  575ERGO    R4 8641  13.505  12.263   9.300  0.1376  0.0435 -0.0069
  575ERGO    R5 8642  13.636  12.437   9.306  0.1038  0.0618  0.0403
  575ERGO    C1 8643  13.595  12.398   8.929  0.1594  0.1300  0.0282
  575ERGO    C2 8644  13.622  12.520   8.660  0.1600  0.0701 -0.2074
  576ERGO   ROH 8645  10.107  11.006   9.466 -0.0287  0.0519 -0.1286
  576ERGO    R1 8646  10.041  11.064   9.197 -0.0362  0.0503 -0.1268
  576ERGO    R2 8647  10.214  11.197   9.027 -0.0115 -0.0190 -0.1529
  576ERGO    R3 8648  10.174  10.980   8.868 -0.0949 -0.0182 -0.1343
  576ERGO    R4 8649  10.330  11.167   8.703  0.0207 -0.1049 -0.1337
  576ERGO    R5 8650  10.140  11.072   8.650 -0.0208 -0.0208 -0.1497
  576ERGO    C1 8651  10.360  10.945   8.365 -0.0389 -0.1541 -0.1050
  576ERGO    C2 8652  10.494  10.840   7.988 -0.3265  0.0501  0.1954
  577ERGO   ROH 8653   4.878  15.520   9.552  0.2632 -0.0702 -0.1039
  577ERGO    R1 8654   4.864  15.429   9.284 -0.0468 -0.2144 -0.0432
  577ERGO    R2 8655   4.644  15.292   9.185 -0.3475  0.0913  0.1660
  577ERGO    R3 8656   4.649  15.488   8.996 -0.1192 -0.0236  0.0496
  577ERGO    R4 8657   4.568  15.247   8.851 -0.2543 -0.0391  0.1621
  577ERGO    R5 8658   4.733  15.380   8.800 -0.1312 -0.2029  0.1451
  577ERGO    C1 8659   4.527  15.404   8.480  0.0143 -0.2230  0.0506
  577ERGO    C2 8660   4.448  15.463   8.139 -0.1183 -0.0898  0.1521
  578ERGO   ROH 8661   1.687   3.660   9.397 -0.2000  0.1648 -0.0263
  578ERGO    R1 8662   1.761   3.665   9.124 -0.1889  0.1644 -0.0234
  578ERGO    R2 8663   1.755   3.440   8.964 -0.0931  0.1446  0.0005
  578ERGO    R3 8664   1.600   3.597   8.805 -0.1468  0.0667 -0.0240
  578ERGO    R4 8665   1.706   3.391   8.626 -0.0145  0.1180 -0.0071
  578ERGO    R5 8666   1.718   3.607   8.597 -0.1181  0.1250 -0.0055
  578ERGO    C1 8667   1.532   3.509   8.279 -0.0193  0.0293 -0.0345
  578ERGO    C2 8668   1.467   3.339   8.018 -0.3083  0.2922  0.1956
  579ERGO   ROH 8669  10.390   6.101   9.328  0.1644 -0.1599  0.0356
  579ERGO    R1 8670  10.333   6.028   9.061  0.0530 -0.2190  0.0739
  579ERGO    R2 8671  10.528   6.016   8.866 -0.0623 -0.0411 -0.0580
  579ERGO    R3 8672  10.434   5.764   8.831  0.1495 -0.1323  0.0158
  579ERGO    R4 8673  10.531   5.844   8.566 -0.1626 -0.0230 -0.0691
  579ERGO    R5 8674  10.332   5.768   8.614 -0.0488 -0.2180  0.1052
  579ERGO    C1 8675  10.444   5.506   8.359 -0.0222 -0.0981 -0.0063
  579ERGO    C2 8676  10.630   5.207   8.331 -0.0228 -0.2385  0.0806
  580ERGO   ROH 8677   5.312   2.281   9.726  0.0704  0.1519 -0.1126
  580ERGO    R1 8678   5.261   2.187   9.464  0.0968  0.0457 -0.0804
  580ERGO    R2 8679   5.062   2.292   9.304  0.0228 -0.1108 -0.0942
  580ERGO    R3 8680   5.266   2.326   9.128 -0.0117 -0.0509 -0.1223
  580ERGO    R4 8681   5.023   2.358   8.967 -0.0426  0.0322 -0.0592
  580ERGO    R5 8682   5.188   2.222   8.926 -0.0600  0.0382 -0.1497
  580ERGO    C1 8683   5.191   2.428   8.605 -0.1130  0.1716 -0.0649
  580ERGO    C2 8684   5.062   2.633   8.294 -0.2844 -0.1424 -0.1522
  581ERGO   ROH 8685  16.549   5.478   9.674  0.0668 -0.1968  0.0890
  581ERGO    R1 8686  16.627   5.367   9.426 -0.0048 -0.1152  0.0303
  581ERGO    R2 8687  16.447   5.312   9.224 -0.0466  0.0573  0.0235
  581ERGO    R3 8688  16.614   5.467   9.076  0.0060  0.0522  0.0757
  581ERGO    R4 8689  16.440   5.336   8.879 -0.0628  0.1961  0.0324
  581ERGO    R5 8690  16.658   5.336   8.880 -0.0590  0.1095  0.0193
  581ERGO    C1 8691  16.594   5.496   8.540 -0.0226  0.2720  0.0864
  581ERGO    C2 8692  16.516   5.527   8.186  0.1904  0.2960  0.0153
  582ERGO   ROH 8693  17.941   3.324   9.889 -0.2309 -0.1685 -0.0602
  582ERGO    R1 8694  18.000   3.454   9.645 -0.1781 -0.2878 -0.1105
  582ERGO    R2 8695  17.834   3.438   9.424 -0.3557 -0.0355  0.0042
  582ERGO    R3 8696  17.846   3.710   9.437  0.1035 -0.0446 -0.0287
  582ERGO    R4 8697  17.800   3.650   9.153 -0.3912 -0.0066  0.0301
  582ERGO    R5 8698  17.960   3.774   9.236 -0.0655 -0.2518 -0.1978
  582ERGO    C1 8699  17.791   4.028   9.007  0.0192  0.0017  0.0144
  582ERGO    C2 8700  17.687   4.132   8.714  0.0391  0.1570 -0.4312
  583ERGO   ROH 8701  13.564   4.591   9.448  0.0271 -0.1543  0.1002
  583ERGO    R1 8702  13.554   4.434   9.213 -0.0198 -0.0687  0.0443
  583ERGO    R2 8703  13.330   4.420   9.053 -0.0724 -0.0545  0.1135
  583ERGO    R3 8704  13.504   4.493   8.857 -0.1519  0.0554  0.0830
  583ERGO    R4 8705  13.306   4.323   8.722  0.2421 -0.5420  0.2235
  583ERGO    R5 8706  13.523   4.298   8.719  0.3038 -0.0959  0.3406
  583ERGO    C1 8707  13.456   4.335   8.346  0.3507 -0.7228  0.2590
  583ERGO    C2 8708  13.463   4.361   8.051 -0.1126 -0.0291 -0.1182
  584ERGO   ROH 8709   9.612  12.873   9.656  0.1706  0.0405  0.1345
  584ERGO    R1 8710   9.531  12.976   9.405  0.1092  0.1020  0.1797
  584ERGO    R2 8711   9.638  13.207   9.297  0.2839 -0.0212  0.0844
  584ERGO    R3 8712   9.687  13.046   9.084 -0.0326 -0.0986  0.0648
  584ERGO    R4 8713   9.659  13.314   8.970  0.2734 -0.0614  0.0704
  584ERGO    R5 8714   9.550  13.135   8.909  0.0023  0.0795  0.1269
  584ERGO    C1 8715   9.717  13.226   8.578 -0.0299 -0.1575  0.0439
  584ERGO    C2 8716   9.587  13.180   8.295 -0.3580  0.1145 -0.2010
  585ERGO   ROH 8717   5.133   7.644   9.278 -0.2737  0.0152 -0.0849
  585ERGO    R1 8718   5.228   7.718   9.022 -0.2158  0.0898 -0.0412
  585ERGO    R2 8719   5.118   7.620   8.789 -0.1208  0.1105 -0.0901
  585ERGO    R3 8720   5.094   7.884   8.728 -0.1666  0.1161 -0.0507
  585ERGO    R4 8721   5.064   7.745   8.471  0.3067  0.1631 -0.1488
  585ERGO    R5 8722   5.204   7.907   8.516  0.1577  0.2300  0.1190
  585ERGO    C1 8723   5.009   8.065   8.229  0.5126  0.1989 -0.1460
  585ERGO    C2 8724   5.140   8.236   7.913  0.0654 -0.1265 -0.2655
  586ERGO   ROH 8725   7.784   5.839   9.238  0.2296  0.1680  0.0236
  586ERGO    R1 8726   7.767   5.655   9.024 -0.0099  0.1517  0.0544
  586ERGO    R2 8727   7.691   5.729   8.769  0.1977  0.2336  0.0147
  586ERGO    R3 8728   7.925   5.611   8.699  0.0281 -0.1773  0.1138
  586ERGO    R4 8729   7.803   5.692   8.444  0.3521  0.2110  0.0700
  586ERGO    R5 8730   7.873   5.492   8.497 -0.0645  0.0369  0.0077
  586ERGO    C1 8731   8.088   5.559   8.189  0.2828 -0.1879  0.1951
  586ERGO    C2 8732   8.080   5.209   7.972  0.1506 -0.1646 -0.1451
  587ERGO   ROH 8733   4.118   1.196   9.386  0.0527 -0.1091 -0.1771
  587ERGO    R1 8734   4.058   1.343   9.151  0.0040  0.0525 -0.0656
  587ERGO    R2 8735   4.061   1.619   9.144  0.3066  0.0569  0.0466
  587ERGO    R3 8736   4.232   1.579   8.937  0.0790 -0.0553 -0.1245
  587ERGO    R4 8737   4.063   1.802   8.850  0.2126  0.1361  0.0949
  587ERGO    R5 8738   4.100   1.617   8.741 -0.0676  0.1276  0.0068
  587ERGO    C1 8739   4.225   1.871   8.485 -0.0558  0.0769 -0.0377
  587ERGO    C2 8740   4.423   1.959   8.266 -0.1590 -0.0897 -0.1192
  588ERGO   ROH 8741   8.789   3.284   9.461 -0.1776 -0.1954  0.0104
  588ERGO    R1 8742   8.656   3.410   9.244  0.0175 -0.0441 -0.0261
  588ERGO    R2 8743   8.773   3.610   9.093  0.3024 -0.1973 -0.0287
  588ERGO    R3 8744   8.709   3.445   8.886  0.1332 -0.1463 -0.0167
  588ERGO    R4 8745   8.649   3.714   8.787  0.1619 -0.1346  0.0493
  588ERGO    R5 8746   8.514   3.543   8.789  0.1153 -0.0832  0.1009
  588ERGO    C1 8747   8.518   3.620   8.416 -0.0786 -0.0503  0.1058
  588ERGO    C2 8748   8.661   3.674   8.170  0.0675 -0.1658 -0.1118
  589ERGO   ROH 8749   7.088  10.102   9.076 -0.1117 -0.0208 -0.0250
  589ERGO    R1 8750   7.002  10.082   8.807 -0.0065 -0.0781 -0.0545
  589ERGO    R2 8751   6.995  10.299   8.637 -0.1865 -0.0630 -0.0269
  589ERGO    R3 8752   7.148  10.140   8.479  0.0356  0.1206 -0.0022
  589ERGO    R4 8753   6.969  10.281   8.293 -0.0766 -0.0597 -0.0357
  589ERGO    R5 8754   6.998  10.065   8.308  0.1615 -0.0327 -0.0487
  589ERGO    C1 8755   7.098  10.120   7.944  0.1958  0.1146 -0.0178
  589ERGO    C2 8756   6.997  10.084   7.570  0.1646 -0.4439  0.0257
  590ERGO   ROH 8757   6.718   8.336   8.837  0.0328  0.1481  0.0043
  590ERGO    R1 8758   6.630   8.221   8.594 -0.0005  0.2549 -0.0361
  590ERGO    R2 8759   6.624   8.361   8.356  0.3186  0.2557 -0.0536
  590ERGO    R3 8760   6.773   8.152   8.267  0.0836  0.0414  0.0454
  590ERGO    R4 8761   6.641   8.256   8.027  0.0865 -0.0321  0.0220
  590ERGO    R5 8762   6.638   8.050   8.098 -0.0791  0.0293  0.1855
  590ERGO    C1 8763   6.791   8.000   7.752 -0.2694 -0.4009  0.1592
  590ERGO    C2 8764   6.946   8.051   7.450  0.4526 -0.5162 -0.1101
  591ERGO   ROH 8765   3.311  15.476   9.766  0.1798 -0.1784  0.0759
  591ERGO    R1 8766   3.330  15.462   9.484  0.0430  0.0193  0.0558
  591ERGO    R2 8767   3.125  15.541   9.318 -0.0565  0.0870  0.2134
  591ERGO    R3 8768   3.318  15.697   9.206 -0.1486  0.2075  0.2190
  591ERGO    R4 8769   3.087  15.720   9.024 -0.1011 -0.0918  0.1076
  591ERGO    R5 8770   3.291  15.663   8.970 -0.0218  0.0637  0.2216
  591ERGO    C1 8771   3.246  15.971   8.749 -0.2135 -0.0827  0.0513
  591ERGO    C2 8772   3.144  16.128   8.376  0.0786 -0.1174 -0.0933
  592ERGO   ROH 8773   8.948   6.522   8.810 -0.1357 -0.0548  0.0167
  592ERGO    R1 8774   9.076   6.475   8.562 -0.1261  0.0392  0.0034
  592ERGO    R2 8775   9.239   6.662   8.441 -0.0442  0.0498  0.1291
  592ERGO    R3 8776   9.419   6.459   8.442 -0.1182 -0.0178  0.0323
  592ERGO    R4 8777   9.521   6.648   8.242 -0.1791 -0.0770 -0.0572
  592ERGO    R5 8778   9.484   6.435   8.213 -0.2782 -0.0676 -0.0094
  592ERGO    C1 8779   9.855   6.448   8.128 -0.3270 -0.2142 -0.2566
  592ERGO    C2 8780  10.196   6.572   8.005 -0.0388  0.2638 -0.0785
  593ERGO   ROH 8781   8.410   8.006   9.417 -0.1702  0.3212 -0.1214
  593ERGO    R1 8782   8.438   8.056   9.140 -0.1848  0.0666 -0.1706
  593ERGO    R2 8783   8.548   7.871   8.966 -0.2156 -0.1034 -0.0111
  593ERGO    R3 8784   8.314   7.908   8.832 -0.2208 -0.2027 -0.0302
  593ERGO    R4 8785   8.517   7.886   8.622 -0.1903 -0.1091 -0.0138
  593ERGO    R5 8786   8.373   8.047   8.646 -0.2643 -0.1717 -0.0221
  593ERGO    C1 8787   8.280   7.929   8.296 -0.1804 -0.2056 -0.0333
  593ERGO    C2 8788   8.282   7.870   7.981  0.3208 -0.2643  0.0244
  594ERGO   ROH 8789  15.039  18.020   9.419  0.1460  0.0271  0.0729
  594ERGO    R1 8790  14.992  17.902   9.166  0.0768  0.0780  0.0618
  594ERGO    R2 8791  14.975  18.051   8.934  0.0694  0.1186  0.0899
  594ERGO    R3 8792  15.169  17.880   8.848  0.0169  0.0898  0.0269
  594ERGO    R4 8793  14.990  17.912   8.618  0.0818  0.3191  0.0007
  594ERGO    R5 8794  15.053  17.724   8.709 -0.0207  0.2298 -0.1042
  594ERGO    C1 8795  15.181  17.671   8.353  0.0397  0.4090 -0.1103
  594ERGO    C2 8796  15.249  17.587   7.940  0.2129 -0.0670  0.3308
  595ERGO   ROH 8797   7.936   7.980   9.266  0.0690  0.1299 -0.0226
  595ERGO    R1 8798   7.853   7.943   8.998 -0.1261  0.1927  0.0267
  595ERGO    R2 8799   7.739   8.146   8.848 -0.0177  0.2996  0.0802
  595ERGO    R3 8800   7.938   8.085   8.674 -0.1747  0.0904 -0.0298
  595ERGO    R4 8801   7.731   8.210   8.509 -0.0402  0.5098  0.1190
  595ERGO    R5 8802   7.824   8.016   8.475 -0.3539  0.3831 -0.0305
  595ERGO    C1 8803   7.913   8.189   8.147 -0.2007  0.4360  0.0383
  595ERGO    C2 8804   7.955   8.367   7.860 -0.2194  0.0743 -0.0601
  596ERGO   ROH 8805   9.232  15.053   9.309 -0.1209  0.0538 -0.0896
  596ERGO    R1 8806   9.372  15.030   9.064 -0.0926  0.0772 -0.0751
  596ERGO    R2 8807   9.311  14.837   8.875  0.0124  0.0146 -0.0438
  596ERGO    R3 8808   9.291  15.052   8.710 -0.0783 -0.0244 -0.0853
  596ERGO    R4 8809   9.319  14.822   8.530  0.0278 -0.0463 -0.0416
  596ERGO    R5 8810   9.441  15.003   8.530 -0.0512  0.0082 -0.0723
  596ERGO    C1 8811   9.305  15.015   8.174 -0.0484 -0.1183 -0.0792
  596ERGO    C2 8812   9.294  15.173   7.941  0.0179  0.4666 -0.2304
  597ERGO   ROH 8813   4.514   5.810   9.179  0.1573  0.0584  0.0220
  597ERGO    R1 8814   4.393   5.779   8.925  0.0909  0.0436  0.0543
  597ERGO    R2 8815   4.530   5.681   8.706  0.1010  0.2417 -0.0354
  597ERGO    R3 8816   4.324   5.504   8.696  0.2528  0.0621 -0.0158
  597ERGO    R4 8817   4.423   5.520   8.420 -0.0189  0.4178 -0.0912
  597ERGO    R5 8818   4.217   5.549   8.487  0.0159  0.1659  0.1279
  597ERGO    C1 8819   4.167   5.259   8.244  0.0538  0.3518 -0.1055
  597ERGO    C2 8820   4.223   4.852   8.111  0.1201 -0.2067  0.3111
  598ERGO   ROH 8821   2.536  13.037   8.605 -0.2174  0.0909 -0.1577
  598ERGO    R1 8822   2.620  13.028   8.335 -0.0965  0.0535 -0.1193
  598ERGO    R2 8823   2.881  13.077   8.259 -0.0878  0.1677 -0.0211
  598ERGO    R3 8824   2.857  12.834   8.138  0.0907  0.1175  0.0410
  598ERGO    R4 8825   3.047  12.983   7.971 -0.1758  0.2848 -0.1120
  598ERGO    R5 8826   2.865  12.883   7.904 -0.1149  0.0788  0.0263
  598ERGO    C1 8827   3.122  12.700   7.690 -0.0594  0.3058 -0.1066
  598ERGO    C2 8828   3.350  12.919   7.411 -0.3186  0.3222 -0.4052
  599ERGO   ROH 8829  17.111  15.788  10.006  0.1738  0.0609  0.0113
  599ERGO    R1 8830  17.161  15.842   9.733  0.0827  0.2785  0.0361
  599ERGO    R2 8831  17.015  15.726   9.529  0.2797  0.1219 -0.0105
  599ERGO    R3 8832  16.978  15.985   9.453 -0.1654  0.1007  0.1014
  599ERGO    R4 8833  16.906  15.825   9.216  0.2768  0.0564 -0.0308
  599ERGO    R5 8834  17.050  15.989   9.224 -0.0274  0.3405  0.1391
  599ERGO    C1 8835  16.808  16.124   8.962 -0.1429 -0.0017  0.0624
  599ERGO    C2 8836  16.762  16.335   8.732 -0.3123 -0.5001 -0.0372
  600ERGO   ROH 8837   8.465  11.132   9.247  0.0548 -0.1794 -0.1395
  600ERGO    R1 8838   8.630  11.149   9.018  0.0918 -0.1338 -0.1094
  600ERGO    R2 8839   8.790  10.939   8.934 -0.0508 -0.1900 -0.2396
  600ERGO    R3 8840   8.658  10.974   8.699  0.0015  0.0730 -0.2335
  600ERGO    R4 8841   8.863  10.774   8.640 -0.1397 -0.0486 -0.3428
  600ERGO    R5 8842   8.829  10.960   8.532  0.0149  0.0563 -0.2215
  600ERGO    C1 8843   8.782  10.710   8.248 -0.1421  0.2807 -0.3969
  600ERGO    C2 8844   8.688  10.601   7.937 -0.1480 -0.2478  0.0135
  601ERGO   ROH 8845   8.418   0.046   9.097  0.2106 -0.1288  0.1224
  601ERGO    R1 8846   8.324   0.163   8.857  0.1800 -0.1309  0.1334
  601ERGO    R2 8847   8.486   0.315   8.692  0.1346 -0.0554  0.1587
  601ERGO    R3 8848   8.403   0.139   8.502  0.2018 -0.0600  0.1332
  601ERGO    R4 8849   8.447   0.390   8.357 -0.0785  0.0329  0.2011
  601ERGO    R5 8850   8.265   0.270   8.356  0.0229 -0.1244  0.2405
  601ERGO    C1 8851   8.347   0.268   7.983 -0.1397  0.0799  0.2017
  601ERGO    C2 8852   8.225   0.360   7.701 -0.1519 -0.3486  0.1411
  602ERGO   ROH 8853  11.746   5.444   8.987 -0.0573  0.0354 -0.1906
  602ERGO    R1 8854  11.684   5.402   8.714 -0.0312  0.1070 -0.2081
  602ERGO    R2 8855  11.461   5.512   8.593  0.0131  0.1877 -0.2161
  602ERGO    R3 8856  11.644   5.609   8.417  0.0603  0.1778 -0.1723
  602ERGO    R4 8857  11.415   5.530   8.251  0.1358  0.0767 -0.2388
  602ERGO    R5 8858  11.622   5.467   8.225  0.1633  0.1145 -0.1404
  602ERGO    C1 8859  11.560   5.632   7.887  0.2516  0.0029 -0.2107
  602ERGO    C2 8860  11.352   5.679   7.744  0.1318  0.4396 -0.0518
  603ERGO   ROH 8861   8.706  14.035   9.733  0.0504 -0.0081 -0.0534
  603ERGO    R1 8862   8.689  14.107   9.460 -0.0063 -0.0267 -0.0549
  603ERGO    R2 8863   8.447  14.148   9.332 -0.0330 -0.0507 -0.0115
  603ERGO    R3 8864   8.558  14.388   9.268 -0.0611 -0.0474 -0.0486
  603ERGO    R4 8865   8.354  14.343   9.062 -0.0273 -0.1261 -0.0685
  603ERGO    R5 8866   8.564  14.389   9.029 -0.0284 -0.1008 -0.0490
  603ERGO    C1 8867   8.404  14.683   8.846 -0.0504 -0.1669 -0.1366
  603ERGO    C2 8868   8.382  14.908   8.688 -0.0152  0.0759 -0.0125
  604ERGO   ROH 8869   4.850   9.632   9.124 -0.0830  0.2995 -0.0738
  604ERGO    R1 8870   4.949   9.500   8.894  0.0615  0.0415  0.1297
  604ERGO    R2 8871   4.862   9.561   8.639  0.1084 -0.3464  0.0158
  604ERGO    R3 8872   5.127   9.596   8.591  0.1048 -0.2673  0.0537
  604ERGO    R4 8873   5.005   9.580   8.325  0.0920  0.0783  0.0285
  604ERGO    R5 8874   5.171   9.460   8.399  0.1032 -0.0143 -0.1337
  604ERGO    C1 8875   5.337   9.623   8.097  0.0791  0.4000  0.0714
  604ERGO    C2 8876   5.281   9.757   7.713  0.1112  0.0117  0.2517
  605ERGO   ROH 8877  14.473  17.416   7.310  0.1533 -0.1010 -0.0122
  605ERGO    R1 8878  14.611  17.584   7.491  0.2100 -0.1487 -0.0116
  605ERGO    R2 8879  14.878  17.650   7.459  0.1569 -0.0157 -0.1648
  605ERGO    R3 8880  14.783  17.904   7.475  0.0608 -0.0630  0.0556
  605ERGO    R4 8881  15.061  17.924   7.563  0.0478 -0.0463  0.1159
  605ERGO    R5 8882  14.886  17.994   7.671  0.0021 -0.2083  0.1584
  605ERGO    C1 8883  15.078  18.322   7.639 -0.1058 -0.1085  0.4862
  605ERGO    C2 8884  15.106  18.655   7.718 -0.4509 -0.0394  0.4378
  606ERGO   ROH 8885  14.289   7.020   8.157  0.1392 -0.0075 -0.0007
  606ERGO    R1 8886  14.401   6.760   8.176  0.1532 -0.0045 -0.0390
  606ERGO    R2 8887  14.255   6.531   8.126  0.1064 -0.0156  0.1337
  606ERGO    R3 8888  14.457   6.480   7.951 -0.0402 -0.0527 -0.0275
  606ERGO    R4 8889  14.278   6.249   7.927 -0.1466  0.0279  0.0387
  606ERGO    R5 8890  14.492   6.243   7.968 -0.1204 -0.0697 -0.1183
  606ERGO    C1 8891  14.481   6.037   7.648 -0.4314  0.0184 -0.1680
  606ERGO    C2 8892  14.625   5.687   7.633 -0.1840 -0.1610  0.1357
  607ERGO   ROH 8893  14.391  17.029   9.645 -0.0590 -0.3178  0.0930
  607ERGO    R1 8894  14.539  16.924   9.428 -0.0141 -0.1876  0.0590
  607ERGO    R2 8895  14.492  16.998   9.166  0.0220 -0.0495  0.0897
  607ERGO    R3 8896  14.757  17.055   9.168  0.0165 -0.0266  0.1655
  607ERGO    R4 8897  14.680  17.076   8.886  0.1009 -0.0406  0.1448
  607ERGO    R5 8898  14.842  16.955   8.968  0.0860 -0.0232  0.1946
  607ERGO    C1 8899  15.039  17.174   8.726  0.1415 -0.0138  0.2482
  607ERGO    C2 8900  15.058  17.149   8.397  0.1239  0.2249  0.0165
  608ERGO   ROH 8901   9.325  15.475   9.216 -0.0181  0.0387  0.0049
  608ERGO    R1 8902   9.380  15.597   8.967 -0.1950  0.1112 -0.0010
  608ERGO    R2 8903   9.471  15.454   8.749  0.2039  0.2560  0.0612
  608ERGO    R3 8904   9.258  15.568   8.625 -0.0150 -0.2393 -0.0406
  608ERGO    R4 8905   9.445  15.503   8.408  0.3420  0.3555  0.0648
  608ERGO    R5 8906   9.355  15.698   8.448 -0.2100  0.1121  0.0993
  608ERGO    C1 8907   9.230  15.638   8.093  0.2170 -0.0518 -0.0290
  608ERGO    C2 8908   9.160  15.606   7.747  0.1706 -0.2163  0.2310
  609ERGO   ROH 8909  16.382  11.964   9.901 -0.0957  0.1859 -0.0988
  609ERGO    R1 8910  16.296  11.820   9.672 -0.0864  0.0538 -0.0217
  609ERGO    R2 8911  16.171  11.942   9.459 -0.2189 -0.0915 -0.0358
  609ERGO    R3 8912  16.369  11.823   9.316 -0.1920 -0.0350 -0.0430
  609ERGO    R4 8913  16.144  11.843   9.129 -0.2517 -0.2507  0.0150
  609ERGO    R5 8914  16.256  11.662   9.179 -0.1323 -0.1595  0.0588
  609ERGO    C1 8915  16.315  11.673   8.802 -0.2454 -0.2904  0.0378
  609ERGO    C2 8916  16.227  11.492   8.628 -0.2453  0.1240 -0.2349
  610ERGO   ROH 8917  14.562  12.984   9.882 -0.1964  0.0763  0.2148
  610ERGO    R1 8918  14.401  13.005   9.650 -0.0577  0.0694  0.1173
  610ERGO    R2 8919  14.433  13.207   9.465  0.0655  0.0532  0.1209
  610ERGO    R3 8920  14.454  13.000   9.290  0.1555  0.0390  0.1478
  610ERGO    R4 8921  14.452  13.240   9.121  0.0632  0.0174  0.1170
  610ERGO    R5 8922  14.321  13.066   9.102  0.1339 -0.0390  0.1347
  610ERGO    C1 8923  14.484  13.064   8.757  0.1463 -0.0168  0.1400
  610ERGO    C2 8924  14.586  13.285   8.468  0.2126  0.0544  0.0365
  611ERGO   ROH 8925   6.284   9.095   9.246  0.0204 -0.1889  0.0522
  611ERGO    R1 8926   6.171   9.021   8.997  0.1857 -0.2982  0.0094
  611ERGO    R2 8927   6.004   9.188   8.853 -0.0723 -0.5302  0.0423
  611ERGO    R3 8928   6.183   9.143   8.654  0.0379 -0.1627  0.0491
  611ERGO    R4 8929   5.924   9.156   8.519  0.0584 -0.2347 -0.0211
  611ERGO    R5 8930   6.070   8.995   8.504  0.2055 -0.1030 -0.1490
  611ERGO    C1 8931   6.046   9.095   8.137  0.2379  0.2825 -0.0516
  611ERGO    C2 8932   5.903   9.088   7.860  0.4564  0.1517  0.0521
  612ERGO   ROH 8933  10.901  17.730   9.378 -0.0562  0.0674 -0.1638
  612ERGO    R1 8934  10.864  17.716   9.098 -0.0806 -0.1445 -0.1516
  612ERGO    R2 8935  10.966  17.509   8.945 -0.1342 -0.2884 -0.0007
  612ERGO    R3 8936  10.707  17.485   8.863 -0.1461 -0.2980  0.0414
  612ERGO    R4 8937  10.866  17.399   8.633 -0.1806 -0.0624 -0.0676
  612ERGO    R5 8938  10.711  17.552   8.633 -0.2239 -0.1096  0.0949
  612ERGO    C1 8939  10.566  17.312   8.375 -0.2189  0.0602 -0.0670
  612ERGO    C2 8940  10.657  17.082   8.098  0.0802 -0.0258  0.0362
  613ERGO   ROH 8941   1.168  10.138   9.524 -0.0857 -0.1724  0.0144
  613ERGO    R1 8942   1.289  10.087   9.274  0.0170 -0.1978  0.0695
  613ERGO    R2 8943   1.256  10.253   9.055 -0.1039 -0.3556 -0.0323
  613ERGO    R3 8944   1.528  10.254   9.056 -0.1026 -0.0860  0.0223
  613ERGO    R4 8945   1.454  10.326   8.781 -0.1249 -0.4734 -0.0799
  613ERGO    R5 8946   1.588  10.165   8.842  0.0252 -0.2750  0.1330
  613ERGO    C1 8947   1.824  10.370   8.623 -0.1358 -0.2888 -0.0563
  613ERGO    C2 8948   2.054  10.503   8.473 -0.0608 -0.1367 -0.0525
  614ERGO   ROH 8949   1.272   3.566   9.657  0.2244  0.1572 -0.0256
  614ERGO    R1 8950   1.162   3.506   9.403  0.2269  0.0111  0.0070
  614ERGO    R2 8951   1.058   3.701   9.237 -0.1276 -0.1269  0.0584
  614ERGO    R3 8952   1.232   3.594   9.057 -0.0217  0.1514 -0.0100
  614ERGO    R4 8953   0.970   3.581   8.924 -0.0613 -0.2784  0.0968
  614ERGO    R5 8954   1.109   3.416   8.954  0.2252 -0.0554  0.0450
  614ERGO    C1 8955   1.083   3.411   8.574  0.0767 -0.1054  0.0550
  614ERGO    C2 8956   1.041   3.424   8.269  0.1860  0.3057  0.1017
  615ERGO   ROH 8957  17.730   7.471   9.128 -0.1557 -0.0154  0.0331
  615ERGO    R1 8958  17.772   7.525   8.853 -0.0543 -0.0057  0.0500
  615ERGO    R2 8959  17.758   7.329   8.659  0.0868 -0.0130  0.0441
  615ERGO    R3 8960  17.579   7.500   8.546  0.0837 -0.0668 -0.0322
  615ERGO    R4 8961  17.598   7.276   8.357  0.0290 -0.1855  0.1037
  615ERGO    R5 8962  17.625   7.488   8.311  0.0410 -0.2170 -0.0331
  615ERGO    C1 8963  17.337   7.406   8.075 -0.0075 -0.3365  0.0666
  615ERGO    C2 8964  17.208   7.181   7.898 -0.0059  0.0260 -0.2450
  616ERGO   ROH 8965  16.907   7.916   9.820  0.2307 -0.1743  0.0051
  616ERGO    R1 8966  16.874   8.115   9.620  0.0719 -0.1027  0.1012
  616ERGO    R2 8967  17.079   8.193   9.452 -0.0023  0.1109  0.1077
  616ERGO    R3 8968  16.899   8.132   9.258  0.0106  0.0825  0.1044
  616ERGO    R4 8969  17.099   8.299   9.124 -0.0626  0.1956  0.1309
  616ERGO    R5 8970  16.883   8.331   9.126 -0.0771  0.1081  0.1513
  616ERGO    C1 8971  16.941   8.303   8.750 -0.0855  0.2180  0.1414
  616ERGO    C2 8972  16.997   8.354   8.473  0.0256  0.0836  0.1398
  617ERGO   ROH 8973  10.063  12.042   9.491  0.3314  0.0827 -0.1299
  617ERGO    R1 8974   9.973  12.034   9.222  0.2531 -0.2118 -0.0980
  617ERGO    R2 8975  10.018  12.241   9.045 -0.2569 -0.1716 -0.1889
  617ERGO    R3 8976  10.126  12.044   8.892  0.1261  0.0011 -0.1533
  617ERGO    R4 8977  10.061  12.258   8.702 -0.2315 -0.1211 -0.1839
  617ERGO    R5 8978   9.999  12.049   8.689  0.1420 -0.2440 -0.1753
  617ERGO    C1 8979  10.188  12.082   8.359  0.1427  0.0704 -0.1475
  617ERGO    C2 8980  10.457  12.062   8.052 -0.0757 -0.4195 -0.1320
  618ERGO   ROH 8981   3.367  11.894   9.329 -0.0257 -0.1419 -0.0842
  618ERGO    R1 8982   3.477  11.737   9.121 -0.0931 -0.1193 -0.1353
  618ERGO    R2 8983   3.435  11.794   8.854 -0.0448  0.0044 -0.1107
  618ERGO    R3 8984   3.707  11.789   8.843 -0.0446 -0.1365 -0.1003
  618ERGO    R4 8985   3.620  11.701   8.577 -0.0889  0.1361 -0.1867
  618ERGO    R5 8986   3.758  11.596   8.710 -0.1492 -0.0571 -0.2650
  618ERGO    C1 8987   3.983  11.642   8.406 -0.1144  0.0806 -0.2214
  618ERGO    C2 8988   4.209  11.446   8.163 -0.0215 -0.4503  0.2741
  619ERGO   ROH 8989   2.790  14.594   9.408  0.2300 -0.0355 -0.0097
  619ERGO    R1 8990   2.842  14.653   9.136  0.1351 -0.0517 -0.0318
  619ERGO    R2 8991   2.811  14.467   8.935  0.0333 -0.0543 -0.0140
  619ERGO    R3 8992   2.652  14.659   8.826  0.0181 -0.0365  0.0395
  619ERGO    R4 8993   2.782  14.533   8.596 -0.0220 -0.0083 -0.0004
  619ERGO    R5 8994   2.779  14.746   8.643 -0.0106 -0.0140  0.0297
  619ERGO    C1 8995   2.616  14.752   8.298 -0.0684  0.0349  0.0579
  619ERGO    C2 8996   2.355  14.689   7.998 -0.0572  0.0557 -0.0452
  620ERGO   ROH 8997  16.597   8.481   9.451 -0.1883  0.2866  0.0971
  620ERGO    R1 8998  16.484   8.528   9.195 -0.1543  0.0503  0.0368
  620ERGO    R2 8999  16.545   8.751   9.044 -0.2967  0.0163 -0.0685
  620ERGO    R3 9000  16.608   8.567   8.855 -0.0887 -0.0379  0.0492
  620ERGO    R4 9001  16.538   8.808   8.703 -0.2372 -0.1657 -0.1013
  620ERGO    R5 9002  16.453   8.609   8.677 -0.0716 -0.2529 -0.0234
  620ERGO    C1 9003  16.592   8.667   8.327 -0.0072 -0.3226 -0.0099
  620ERGO    C2 9004  16.499   8.715   8.019 -0.3861 -0.1996 -0.1449
  621ERGO   ROH 9005   6.256  15.808   9.387  0.1110  0.2846  0.0671
  621ERGO    R1 9006   6.255  15.969   9.154  0.0691  0.1994  0.0075
  621ERGO    R2 9007   6.156  15.880   8.912  0.0447  0.1027  0.0519
  621ERGO    R3 9008   6.005  16.105   8.927  0.0296  0.0971 -0.0112
  621ERGO    R4 9009   5.964  16.007   8.654  0.2145  0.1407 -0.0566
  621ERGO    R5 9010   6.029  16.207   8.712  0.1724  0.1329  0.0200
  621ERGO    C1 9011   5.711  16.294   8.519  0.2991  0.1576 -0.1792
  621ERGO    C2 9012   5.650  16.391   8.340 -0.0647 -0.1538  0.1426
  622ERGO   ROH 9013  15.884   3.355   9.704  0.0234  0.0641  0.0432
  622ERGO    R1 9014  15.792   3.291   9.444 -0.0816  0.0676  0.0799
  622ERGO    R2 9015  15.559   3.395   9.340  0.0779  0.3790  0.0325
  622ERGO    R3 9016  15.722   3.473   9.136  0.1972  0.0151 -0.0186
  622ERGO    R4 9017  15.451   3.482   9.022  0.1695  0.5499  0.0463
  622ERGO    R5 9018  15.623   3.375   8.941 -0.0574  0.1774  0.0196
  622ERGO    C1 9019  15.542   3.605   8.647  0.3346  0.3078  0.0063
  622ERGO    C2 9020  15.444   3.751   8.427  0.1437 -0.2515 -0.0956
  623ERGO   ROH 9021   6.387  16.550   9.208 -0.0116  0.2298  0.0283
  623ERGO    R1 9022   6.258  16.478   8.967  0.1155  0.0669  0.0072
  623ERGO    R2 9023   6.109  16.657   8.818  0.0471 -0.0784 -0.1002
  623ERGO    R3 9024   6.275  16.579   8.617  0.1649 -0.0348 -0.0207
  623ERGO    R4 9025   6.108  16.788   8.498  0.0563 -0.1843 -0.1437
  623ERGO    R5 9026   6.139  16.586   8.421  0.2180 -0.1930 -0.0669
  623ERGO    C1 9027   6.263  16.790   8.123  0.1722 -0.2050 -0.0943
  623ERGO    C2 9028   6.134  16.984   7.896  0.2052 -0.2448 -0.0095
  624ERGO   ROH 9029   6.084   5.155   9.416  0.2060 -0.0716  0.2493
  624ERGO    R1 9030   6.144   5.336   9.207  0.2373 -0.1178  0.2192
  624ERGO    R2 9031   6.384   5.331   9.071  0.1365 -0.3479  0.0507
  624ERGO    R3 9032   6.223   5.313   8.853 -0.0350 -0.1732  0.1589
  624ERGO    R4 9033   6.432   5.501   8.774 -0.0389 -0.1775  0.1172
  624ERGO    R5 9034   6.217   5.535   8.764 -0.0431 -0.1131  0.2995
  624ERGO    C1 9035   6.309   5.584   8.397 -0.3020  0.0857  0.2576
  624ERGO    C2 9036   6.365   5.876   8.146 -0.2701 -0.3999  0.0599
  625ERGO   ROH 9037   7.102  17.027   9.036  0.2344 -0.0877 -0.2275
  625ERGO    R1 9038   7.177  16.999   8.764  0.1818 -0.1118 -0.2394
  625ERGO    R2 9039   7.028  17.104   8.557  0.1413 -0.1325 -0.2193
  625ERGO    R3 9040   7.263  17.221   8.489  0.1268 -0.1367 -0.2775
  625ERGO    R4 9041   7.071  17.320   8.291 -0.0068  0.1586 -0.0136
  625ERGO    R5 9042   7.262  17.222   8.249 -0.0702  0.1360 -0.2805
  625ERGO    C1 9043   7.318  17.555   8.071 -0.1066  0.3239  0.0516
  625ERGO    C2 9044   7.299  17.732   7.790 -0.2853  0.0740  0.3996
  626ERGO   ROH 9045   4.374   3.599   9.157 -0.1086 -0.0165  0.1113
  626ERGO    R1 9046   4.375   3.789   8.947 -0.2902 -0.0127  0.1130
  626ERGO    R2 9047   4.595   3.830   8.785 -0.3177  0.2233  0.1401
  626ERGO    R3 9048   4.416   3.784   8.586 -0.2457  0.0357  0.1156
  626ERGO    R4 9049   4.640   3.919   8.454 -0.3976  0.3670  0.1663
  626ERGO    R5 9050   4.431   3.978   8.446 -0.4832  0.0978  0.1654
  626ERGO    C1 9051   4.499   3.927   8.074 -0.3765  0.2747  0.1585
  626ERGO    C2 9052   4.582   4.012   7.768 -0.0470  0.0029 -0.0053
  627ERGO   ROH 9053  18.260  17.470   9.501  0.0117  0.1904  0.0329
  627ERGO    R1 9054  18.318  17.562   9.239 -0.1826  0.1940 -0.0116
  627ERGO    R2 9055  18.502  17.437   9.074  0.0815  0.4896  0.0397
  627ERGO    R3 9056  18.292  17.430   8.901  0.0783 -0.0226  0.0514
  627ERGO    R4 9057  18.527  17.474   8.732 -0.0218  0.3851  0.0211
  627ERGO    R5 9058  18.346  17.594   8.736 -0.2741  0.0154 -0.0278
  627ERGO    C1 9059  18.346  17.488   8.370 -0.0850 -0.1564  0.0214
  627ERGO    C2 9060  18.431  17.525   8.071 -0.2290 -0.1317  0.1071
  628ERGO   ROH 9061   5.227   6.631   9.072 -0.2373  0.0696 -0.2171
  628ERGO    R1 9062   5.314   6.620   8.803 -0.3073 -0.0401 -0.2367
  628ERGO    R2 9063   5.139   6.601   8.590 -0.3853  0.2190 -0.2027
  628ERGO    R3 9064   5.271   6.822   8.503 -0.0876  0.0419 -0.2144
  628ERGO    R4 9065   5.146   6.711   8.262 -0.3015  0.2401 -0.1938
  628ERGO    R5 9066   5.357   6.760   8.288 -0.2239 -0.0619 -0.2380
  628ERGO    C1 9067   5.274   6.982   7.990  0.0267  0.0861 -0.1996
  628ERGO    C2 9068   5.099   7.165   7.652 -0.3034 -0.1788 -0.0978
  629ERGO   ROH 9069   5.529   4.334   9.289  0.0502 -0.1906  0.0951
  629ERGO    R1 9070   5.533   4.399   9.013  0.0137 -0.1091  0.1144
  629ERGO    R2 9071   5.679   4.256   8.829  0.0379 -0.0144  0.0652
  629ERGO    R3 9072   5.440   4.237   8.701  0.0359 -0.0410  0.0708
  629ERGO    R4 9073   5.635   4.296   8.489  0.0469 -0.1238  0.0500
  629ERGO    R5 9074   5.450   4.406   8.531  0.0512 -0.0950  0.0139
  629ERGO    C1 9075   5.385   4.301   8.170  0.0503 -0.2125  0.0467
  629ERGO    C2 9076   5.380   4.226   7.879 -0.0000  0.3495  0.1301
  630ERGO   ROH 9077  11.642  12.541   9.937 -0.0433  0.2295  0.0348
  630ERGO    R1 9078  11.730  12.649   9.691  0.0320  0.0967  0.0020
  630ERGO    R2 9079  11.990  12.620   9.600  0.0647  0.0439  0.0918
  630ERGO    R3 9080  11.867  12.519   9.380  0.1230 -0.0762  0.1154
  630ERGO    R4 9081  12.132  12.604   9.285  0.0128  0.1642  0.0625
  630ERGO    R5 9082  11.939  12.662   9.201 -0.0490 -0.0215  0.0974
  630ERGO    C1 9083  12.099  12.501   8.895  0.0374  0.1214  0.0676
  630ERGO    C2 9084  12.212  12.419   8.636 -0.1091 -0.1847 -0.4048
  631ERGO   ROH 9085  18.067  11.168   9.653  0.2542  0.0768  0.1175
  631ERGO    R1 9086  18.072  11.313   9.411  0.2146 -0.0379  0.0481
  631ERGO    R2 9087  18.305  11.414   9.303  0.1779  0.0094  0.0239
  631ERGO    R3 9088  18.227  11.275   9.083  0.2613 -0.1267  0.0783
  631ERGO    R4 9089  18.398  11.491   8.979 -0.3724  0.3480 -0.0662
  631ERGO    R5 9090  18.194  11.443   8.916 -0.3498 -0.1393  0.1577
  631ERGO    C1 9091  18.378  11.404   8.584 -0.6146  0.4174 -0.0677
  631ERGO    C2 9092  18.532  11.423   8.203 -0.2969 -0.2116 -0.0735
  632ERGO   ROH 9093   1.975   9.227   9.265 -0.0032  0.2988 -0.0923
  632ERGO    R1 9094   1.819   9.114   9.057  0.1337  0.1394 -0.1096
  632ERGO    R2 9095   1.578   9.222   8.977  0.0563 -0.0799 -0.1665
  632ERGO    R3 9096   1.696   9.221   8.732  0.1009 -0.0061 -0.1467
  632ERGO    R4 9097   1.420   9.309   8.682  0.1942  0.3309 -0.1261
  632ERGO    R5 9098   1.524   9.144   8.584  0.0382  0.2945 -0.2419
  632ERGO    C1 9099   1.438   9.358   8.280  0.3162  0.6394 -0.0840
  632ERGO    C2 9100   1.349   9.522   7.877  0.0916 -0.1927 -0.0584
  633ERGO   ROH 9101   7.358  17.410   9.356 -0.0180 -0.0814 -0.0996
  633ERGO    R1 9102   7.440  17.425   9.086  0.0800  0.0347 -0.0638
  633ERGO    R2 9103   7.261  17.448   8.877  0.1485 -0.0261 -0.1256
  633ERGO    R3 9104   7.413  17.665   8.813  0.0405  0.0841 -0.0178
  633ERGO    R4 9105   7.214  17.649   8.599  0.1950 -0.0632 -0.1611
  633ERGO    R5 9106   7.430  17.658   8.575  0.2118  0.0915 -0.0097
  633ERGO    C1 9107   7.329  17.969   8.378  0.1208  0.0188 -0.0806
  633ERGO    C2 9108   7.320  18.134   8.147 -0.2671  0.0394 -0.1540
  634ERGO   ROH 9109  16.670   0.447   9.527  0.2178  0.2151  0.1099
  634ERGO    R1 9110  16.581   0.411   9.261  0.0464  0.0283  0.1886
  634ERGO    R2 9111  16.715   0.517   9.043 -0.2878  0.1864  0.0475
  634ERGO    R3 9112  16.713   0.260   8.957  0.0227  0.1590  0.1141
  634ERGO    R4 9113  16.767   0.418   8.716 -0.3194  0.1700  0.0483
  634ERGO    R5 9114  16.610   0.270   8.741 -0.1021 -0.0412  0.1659
  634ERGO    C1 9115  16.796   0.118   8.445 -0.0461  0.1347  0.1113
  634ERGO    C2 9116  16.887   0.111   8.184 -0.0286 -0.1778 -0.0276
  635ERGO   ROH 9117  11.839   0.651   9.264  0.2861 -0.0396  0.0878
  635ERGO    R1 9118  11.703   0.560   9.032  0.2609 -0.3287  0.2129
  635ERGO    R2 9119  11.678   0.715   8.805 -0.3238 -0.3526  0.2552
  635ERGO    R3 9120  11.789   0.498   8.684  0.0653 -0.0919  0.1170
  635ERGO    R4 9121  11.723   0.679   8.464 -0.4874 -0.1418  0.2082
  635ERGO    R5 9122  11.663   0.471   8.483 -0.0331 -0.2956  0.1952
  635ERGO    C1 9123  11.853   0.454   8.152 -0.2174  0.2257  0.0511
  635ERGO    C2 9124  11.826   0.311   7.773  0.1228 -0.2107 -0.1474
  636ERGO   ROH 9125  16.929   3.428   9.347  0.1898 -0.0084  0.0545
  636ERGO    R1 9126  16.828   3.457   9.084  0.0781  0.0646  0.1046
  636ERGO    R2 9127  16.980   3.557   8.877  0.0081  0.0693  0.0542
  636ERGO    R3 9128  16.907   3.326   8.754 -0.0996  0.1088  0.0435
  636ERGO    R4 9129  16.894   3.529   8.543 -0.0930  0.1404  0.0742
  636ERGO    R5 9130  16.735   3.392   8.601 -0.1209  0.1837  0.0996
  636ERGO    C1 9131  16.774   3.295   8.234 -0.2530  0.2188  0.0759
  636ERGO    C2 9132  16.864   3.349   7.951  0.4384 -0.1704 -0.0076
  637ERGO   ROH 9133  18.256   9.540   9.422  0.0595 -0.1396  0.1196
  637ERGO    R1 9134  18.272   9.521   9.140 -0.0587  0.1163  0.0937
  637ERGO    R2 9135  18.346   9.288   9.010  0.0897  0.2952 -0.1379
  637ERGO    R3 9136  18.112   9.325   8.878 -0.0072  0.1942  0.0003
  637ERGO    R4 9137  18.255   9.125   8.719  0.1227  0.4580 -0.2417
  637ERGO    R5 9138  18.171   9.312   8.647 -0.0884  0.4524 -0.0427
  637ERGO    C1 9139  17.982   9.065   8.426  0.0510  0.4579 -0.1724
  637ERGO    C2 9140  17.740   8.868   8.191 -0.3475 -0.4488 -0.3384
  638ERGO   ROH 9141  16.219   1.802   9.708 -0.0196  0.1627 -0.0793
  638ERGO    R1 9142  16.123   1.714   9.456 -0.1145  0.1323 -0.0334
  638ERGO    R2 9143  16.072   1.888   9.247 -0.0630  0.0938 -0.0820
  638ERGO    R3 9144  16.239   1.721   9.112 -0.1745 -0.0386 -0.0573
  638ERGO    R4 9145  16.037   1.797   8.915 -0.0022  0.2350 -0.1273
  638ERGO    R5 9146  16.095   1.595   8.969 -0.2394  0.1570 -0.1646
  638ERGO    C1 9147  16.172   1.589   8.595 -0.0714  0.1930 -0.1305
  638ERGO    C2 9148  16.184   1.539   8.265  0.0591 -0.2710  0.2542
  639ERGO   ROH 9149  10.401   0.009   8.852 -0.2332 -0.0388  0.1548
  639ERGO    R1 9150  10.239  -0.133   8.668 -0.0576 -0.0736  0.0250
  639ERGO    R2 9151  10.165  -0.027   8.424 -0.0525 -0.0079  0.0526
  639ERGO    R3 9152  10.273  -0.257   8.327  0.1619  0.1235 -0.0282
  639ERGO    R4 9153  10.045  -0.201   8.151 -0.1175 -0.2143  0.2096
  639ERGO    R5 9154  10.083  -0.387   8.259  0.2588 -0.1503  0.2004
  639ERGO    C1 9155  10.076  -0.518   7.901  0.0458 -0.2110  0.2252
  639ERGO    C2 9156  10.072  -0.413   7.480  0.1986 -0.3372  0.1650
  640ERGO   ROH 9157  10.348  15.448   9.625 -0.0341  0.0573  0.0895
  640ERGO    R1 9158  10.273  15.366   9.364 -0.0724 -0.1144  0.1529
  640ERGO    R2 9159  10.349  15.505   9.137 -0.2490 -0.1659  0.0621
  640ERGO    R3 9160  10.445  15.262   9.060 -0.1101 -0.1369  0.1386
  640ERGO    R4 9161  10.446  15.424   8.815 -0.4354 -0.2771  0.0327
  640ERGO    R5 9162  10.352  15.229   8.842 -0.2579 -0.3434  0.2272
  640ERGO    C1 9163  10.591  15.149   8.555 -0.4136 -0.3145  0.0875
  640ERGO    C2 9164  10.668  15.265   8.245 -0.2396 -0.0251 -0.1514
  641ERGO   ROH 9165   2.116   7.829   9.223 -0.0095 -0.0920  0.1462
  641ERGO    R1 9166   2.121   7.694   8.974  0.0187 -0.0067  0.1015
  641ERGO    R2 9167   1.940   7.748   8.772  0.0102  0.0229  0.1240
  641ERGO    R3 9168   2.165   7.786   8.625 -0.0004  0.1173  0.1295
  641ERGO    R4 9169   1.964   7.696   8.431 -0.0366  0.2779  0.0794
  641ERGO    R5 9170   2.161   7.609   8.463 -0.0355  0.2347 -0.0056
  641ERGO    C1 9171   2.189   7.703   8.095 -0.0737  0.5150  0.0588
  641ERGO    C2 9172   2.098   7.571   7.844 -0.0141 -0.1529 -0.1998
  642ERGO   ROH 9173   2.276   0.479   9.941  0.1941  0.0554  0.0749
  642ERGO    R1 9174   2.231   0.405   9.672  0.3179  0.0627  0.0509
  642ERGO    R2 9175   1.979   0.399   9.559  0.3185 -0.3230  0.0489
  642ERGO    R3 9176   2.093   0.562   9.373  0.0531 -0.0680  0.1024
  642ERGO    R4 9177   1.914   0.388   9.220  0.3526 -0.3291  0.0432
  642ERGO    R5 9178   2.126   0.420   9.183  0.3032  0.0443  0.0606
  642ERGO    C1 9179   1.983   0.534   8.848  0.1233 -0.0933  0.0901
  642ERGO    C2 9180   1.838   0.548   8.607 -0.0890  0.3063  0.0383
  643ERGO   ROH 9181   5.097  13.791   9.438  0.1668 -0.1634  0.0453
  643ERGO    R1 9182   5.149  13.947   9.208  0.2302 -0.2259  0.0150
  643ERGO    R2 9183   5.317  13.862   9.006  0.0707 -0.4073 -0.0556
  643ERGO    R3 9184   5.100  13.913   8.849  0.0494 -0.2043  0.0389
  643ERGO    R4 9185   5.330  13.934   8.668 -0.0183 -0.3150 -0.0385
  643ERGO    R5 9186   5.174  14.084   8.699  0.1064 -0.2173  0.0624
  643ERGO    C1 9187   5.134  14.024   8.324 -0.0901 -0.0706  0.0602
  643ERGO    C2 9188   5.016  14.057   8.045  0.0657 -0.0619 -0.1939
  644ERGO   ROH 9189  14.596   4.552   9.444 -0.2924  0.1947 -0.0118
  644ERGO    R1 9190  14.632   4.469   9.176 -0.2183  0.0509  0.0422
  644ERGO    R2 9191  14.502   4.589   8.964 -0.0391  0.0418 -0.0729
  644ERGO    R3 9192  14.755   4.617   8.867  0.0269 -0.1668  0.0307
  644ERGO    R4 9193  14.582   4.631   8.631  0.1207  0.1075 -0.0275
  644ERGO    R5 9194  14.753   4.498   8.660 -0.0195 -0.0768 -0.0222
  644ERGO    C1 9195  14.866   4.683   8.345  0.2757 -0.0502  0.0963
  644ERGO    C2 9196  14.951   4.824   8.056  0.4163 -0.2042 -0.2769
  645ERGO   ROH 9197  10.644   7.470   9.534 -0.0844  0.2207 -0.0474
  645ERGO    R1 9198  10.763   7.408   9.284 -0.0998  0.1293 -0.0338
  645ERGO    R2 9199  10.764   7.586   9.072 -0.0756  0.0709 -0.0900
  645ERGO    R3 9200  11.032   7.542   9.079 -0.0840  0.0298 -0.0763
  645ERGO    R4 9201  10.978   7.624   8.803 -0.0491  0.0487 -0.0706
  645ERGO    R5 9202  11.083   7.444   8.867 -0.0826  0.0338 -0.0738
  645ERGO    C1 9203  11.354   7.605   8.654 -0.0416 -0.0028 -0.0464
  645ERGO    C2 9204  11.633   7.541   8.412 -0.3164  0.0719 -0.1118
  646ERGO   ROH 9205  12.252   5.395   9.067  0.0663 -0.0132  0.0217
  646ERGO    R1 9206  12.440   5.299   8.878 -0.0318 -0.1865  0.0124
  646ERGO    R2 9207  12.391   5.081   8.717 -0.3559  0.0286 -0.1762
  646ERGO    R3 9208  12.454   5.254   8.517  0.0178  0.0807 -0.0233
  646ERGO    R4 9209  12.533   4.990   8.415 -0.4304 -0.0069 -0.2026
  646ERGO    R5 9210  12.659   5.168   8.427 -0.1006 -0.2311 -0.0240
  646ERGO    C1 9211  12.675   5.101   8.052 -0.1229  0.0213 -0.0744
  646ERGO    C2 9212  12.768   4.781   7.806 -0.0273  0.1121 -0.3288
  647ERGO   ROH 9213  17.093   4.774   9.864  0.0169 -0.1836  0.1591
  647ERGO    R1 9214  16.887   4.790   9.670  0.0484 -0.0860  0.1336
  647ERGO    R2 9215  16.859   5.006   9.500  0.1986 -0.0923  0.1019
  647ERGO    R3 9216  16.868   4.815   9.307  0.1040 -0.1232  0.1272
  647ERGO    R4 9217  16.812   5.062   9.162  0.0591 -0.1369  0.1132
  647ERGO    R5 9218  16.697   4.878   9.152  0.0405 -0.1328  0.1899
  647ERGO    C1 9219  16.793   4.915   8.785 -0.1110 -0.1919  0.1435
  647ERGO    C2 9220  16.768   5.057   8.388 -0.0609 -0.1269 -0.2150
  648ERGO   ROH 9221  18.616   2.734   9.897  0.1950  0.0584  0.0866
  648ERGO    R1 9222  18.765   2.763   9.657  0.3199  0.0898  0.1670
  648ERGO    R2 9223  18.647   2.834   9.417  0.3804 -0.2413  0.0347
  648ERGO    R3 9224  18.835   3.030   9.420  0.1126  0.0232  0.0268
  648ERGO    R4 9225  18.728   3.034   9.147  0.2114 -0.2419 -0.0181
  648ERGO    R5 9226  18.938   3.018   9.204  0.2165  0.0710  0.0727
  648ERGO    C1 9227  18.952   3.335   8.993 -0.1382  0.0060 -0.0562
  648ERGO    C2 9228  18.853   3.432   8.790  0.3021  0.2305 -0.2375
  649ERGO   ROH 9229   1.235  18.488   9.627 -0.0677 -0.2747 -0.0935
  649ERGO    R1 9230   1.133  18.627   9.402 -0.1022 -0.2256 -0.0472
  649ERGO    R2 9231   1.226  18.584   9.146 -0.0195 -0.0441 -0.0478
  649ERGO    R3 9232   0.963  18.540   9.092  0.0174 -0.1762 -0.1270
  649ERGO    R4 9233   1.075  18.640   8.840 -0.0575  0.3407  0.0355
  649ERGO    R5 9234   0.902  18.719   8.946 -0.1289  0.0215  0.1678
  649ERGO    C1 9235   0.741  18.631   8.611 -0.0449  0.4406  0.0097
  649ERGO    C2 9236   0.680  18.575   8.309  0.2890 -0.0074 -0.0090
  650ERGO   ROH 9237   6.240   3.052   9.043  0.1432 -0.0875  0.0221
  650ERGO    R1 9238   6.267   2.842   8.855  0.2027 -0.0355 -0.0276
  650ERGO    R2 9239   6.087   2.803   8.649  0.0992 -0.1614  0.0862
  650ERGO    R3 9240   6.311   2.814   8.495 -0.0117  0.0579 -0.0625
  650ERGO    R4 9241   6.093   2.761   8.306 -0.0912 -0.1191  0.0769
  650ERGO    R5 9242   6.277   2.646   8.328  0.0297  0.0443 -0.0569
  650ERGO    C1 9243   6.306   2.747   7.962 -0.3062  0.1114 -0.0682
  650ERGO    C2 9244   6.186   2.881   7.638  0.1518 -0.2235 -0.2859
  651ERGO   ROH 9245   2.735   6.525   9.273 -0.1341  0.2577  0.0473
  651ERGO    R1 9246   2.641   6.497   9.007  0.0151  0.0455  0.0143
  651ERGO    R2 9247   2.548   6.711   8.859 -0.1064 -0.1078 -0.1316
  651ERGO    R3 9248   2.733   6.626   8.679  0.0552 -0.0307 -0.0052
  651ERGO    R4 9249   2.587   6.839   8.540  0.2111  0.0667 -0.0274
  651ERGO    R5 9250   2.620   6.636   8.468  0.2534  0.1004 -0.1099
  651ERGO    C1 9251   2.784   6.833   8.186  0.5476  0.2407  0.1519
  651ERGO    C2 9252   2.907   6.833   7.800 -0.0681 -0.0253 -0.4028
  652ERGO   ROH 9253  14.855  15.347   9.668  0.0434  0.1100 -0.0973
  652ERGO    R1 9254  14.724  15.464   9.447 -0.0769 -0.0125 -0.0929
  652ERGO    R2 9255  14.860  15.594   9.245 -0.2005  0.0727 -0.1299
  652ERGO    R3 9256  14.725  15.420   9.085 -0.0899 -0.0528 -0.0865
  652ERGO    R4 9257  14.766  15.657   8.918 -0.2541 -0.0740 -0.1428
  652ERGO    R5 9258  14.576  15.559   8.959 -0.1838 -0.1873 -0.1172
  652ERGO    C1 9259  14.584  15.531   8.579 -0.1813 -0.2775 -0.1096
  652ERGO    C2 9260  14.422  15.366   8.286  0.2873 -0.5250 -0.3069
  653ERGO   ROH 9261  17.210   2.373   9.811  0.1854 -0.0416  0.1172
  653ERGO    R1 9262  17.254   2.475   9.551  0.2860  0.1412  0.2042
  653ERGO    R2 9263  17.499   2.463   9.427  0.2075 -0.2872  0.0800
  653ERGO    R3 9264  17.358   2.341   9.229 -0.1747  0.2384  0.0059
  653ERGO    R4 9265  17.574   2.485   9.090  0.3588 -0.4171  0.1028
  653ERGO    R5 9266  17.360   2.500   9.049  0.3929  0.3143  0.0588
  653ERGO    C1 9267  17.486   2.383   8.708  0.0881  0.0008  0.0465
  653ERGO    C2 9268  17.501   2.373   8.330  0.2365  0.2682 -0.1875
  654ERGO   ROH 9269  11.369   6.512   9.226  0.1464 -0.2505 -0.0100
  654ERGO    R1 9270  11.425   6.425   8.963  0.0504 -0.2180 -0.0438
  654ERGO    R2 9271  11.254   6.472   8.751  0.0494 -0.0401 -0.0160
  654ERGO    R3 9272  11.476   6.580   8.638  0.1115 -0.1594 -0.0040
  654ERGO    R4 9273  11.337   6.449   8.416  0.1777 -0.2676  0.0309
  654ERGO    R5 9274  11.544   6.419   8.475  0.1433 -0.2715  0.1257
  654ERGO    C1 9275  11.593   6.538   8.115  0.3107 -0.5121  0.0695
  654ERGO    C2 9276  11.627   6.713   7.849  0.0279  0.0581  0.2501
  655ERGO   ROH 9277   6.916   6.648   9.281 -0.0641 -0.2363 -0.0488
  655ERGO    R1 9278   6.992   6.778   9.042 -0.0113 -0.1662  0.0054
  655ERGO    R2 9279   7.230   6.725   8.912 -0.0006 -0.1586  0.0198
  655ERGO    R3 9280   7.067   6.680   8.700  0.0207 -0.0624 -0.0174
  655ERGO    R4 9281   7.335   6.705   8.584  0.0116  0.1096  0.0054
  655ERGO    R5 9282   7.157   6.817   8.525 -0.0229  0.0911  0.0809
  655ERGO    C1 9283   7.244   6.651   8.193  0.0387  0.3561 -0.0380
  655ERGO    C2 9284   7.463   6.533   7.855  0.0688 -0.5968 -0.6020
  656ERGO   ROH 9285   9.274   0.765   9.197 -0.1046 -0.0308  0.0783
  656ERGO    R1 9286   9.401   0.743   8.945 -0.0220 -0.0178  0.1186
  656ERGO    R2 9287   9.355   0.532   8.774 -0.0670  0.0574  0.0363
  656ERGO    R3 9288   9.297   0.730   8.597  0.0993  0.1433  0.0756
  656ERGO    R4 9289   9.354   0.496   8.430 -0.0877  0.1342  0.0278
  656ERGO    R5 9290   9.447   0.693   8.414  0.0731  0.0614  0.0722
  656ERGO    C1 9291   9.299   0.661   8.064  0.0564  0.2595  0.0599
  656ERGO    C2 9292   9.127   0.597   7.719  0.1704  0.0399 -0.4600
  657ERGO   ROH 9293   6.747  13.680   9.294 -0.2027  0.1358 -0.0935
  657ERGO    R1 9294   6.707  13.547   9.047 -0.0429 -0.0341 -0.0284
  657ERGO    R2 9295   6.698  13.272   9.027 -0.1747 -0.0418  0.1810
  657ERGO    R3 9296   6.460  13.320   8.906 -0.0361 -0.0070 -0.0888
  657ERGO    R4 9297   6.563  13.079   8.774 -0.1207 -0.3082  0.3504
  657ERGO    R5 9298   6.497  13.262   8.676  0.1164 -0.3828  0.0173
  657ERGO    C1 9299   6.261  13.012   8.513  0.0408 -0.4308  0.1956
  657ERGO    C2 9300   6.273  12.928   8.185  0.1500  0.0276  0.1873
  658ERGO   ROH 9301   6.292  17.306   9.531 -0.1781 -0.0037  0.0568
  658ERGO    R1 9302   6.356  17.484   9.321 -0.2017 -0.0059  0.0496
  658ERGO    R2 9303   6.285  17.435   9.058 -0.2549  0.0067  0.0681
  658ERGO    R3 9304   6.172  17.682   9.076 -0.2268  0.0201  0.0866
  658ERGO    R4 9305   6.145  17.608   8.794 -0.0098  0.1419  0.0220
  658ERGO    R5 9306   6.234  17.791   8.873 -0.0369  0.0974  0.1778
  658ERGO    C1 9307   5.957  17.940   8.657  0.1594  0.2336  0.0125
  658ERGO    C2 9308   5.862  18.089   8.352  0.0275  0.3554 -0.0198
  659ERGO   ROH 9309   7.596   4.843   9.481 -0.2037 -0.0246  0.0424
  659ERGO    R1 9310   7.643   4.796   9.206 -0.0421 -0.0134  0.0670
  659ERGO    R2 9311   7.670   4.542   9.100 -0.0787 -0.0136  0.0567
  659ERGO    R3 9312   7.472   4.626   8.933  0.0643  0.0880 -0.0647
  659ERGO    R4 9313   7.552   4.363   8.830 -0.0757  0.0027  0.0446
  659ERGO    R5 9314   7.541   4.549   8.717  0.1168 -0.0187 -0.0104
  659ERGO    C1 9315   7.297   4.337   8.516  0.0604  0.1075 -0.0765
  659ERGO    C2 9316   7.104   4.343   8.224 -0.1101 -0.1454 -0.0100
  660ERGO   ROH 9317  14.450  15.865   9.405 -0.1519  0.1540 -0.0662
  660ERGO    R1 9318  14.450  16.044   9.186 -0.0887  0.0612 -0.1438
  660ERGO    R2 9319  14.676  16.092   9.035 -0.0313  0.0287 -0.0759
  660ERGO    R3 9320  14.513  16.024   8.828  0.0599 -0.0855 -0.1096
  660ERGO    R4 9321  14.760  16.117   8.700  0.0231  0.0667 -0.0589
  660ERGO    R5 9322  14.558  16.188   8.660 -0.0113 -0.0671 -0.1070
  660ERGO    C1 9323  14.657  16.066   8.312  0.1405 -0.0187 -0.0807
  660ERGO    C2 9324  14.571  15.991   7.922  0.5977 -0.0260  0.2690
  661ERGO   ROH 9325  13.704   4.141   9.664 -0.0736 -0.1777  0.0200
  661ERGO    R1 9326  13.798   4.125   9.397 -0.0020 -0.1405  0.0422
  661ERGO    R2 9327  13.976   3.931   9.313 -0.1709 -0.2835  0.0054
  661ERGO    R3 9328  13.784   3.883   9.126 -0.1632  0.0051 -0.0818
  661ERGO    R4 9329  14.020   3.964   8.972  0.0979 -0.5354  0.0120
  661ERGO    R5 9330  13.820   4.050   8.959  0.2699 -0.1414 -0.1474
  661ERGO    C1 9331  13.865   3.937   8.598  0.2616 -0.4113 -0.0660
  661ERGO    C2 9332  13.964   4.020   8.265 -0.2213  0.0311  0.1006
  662ERGO   ROH 9333  13.697  16.582   9.494 -0.0813  0.1890 -0.0567
  662ERGO    R1 9334  13.544  16.481   9.278  0.0057 -0.0547 -0.0082
  662ERGO    R2 9335  13.480  16.634   9.057 -0.2661 -0.1682 -0.0104
  662ERGO    R3 9336  13.593  16.428   8.922 -0.0046 -0.0270 -0.0145
  662ERGO    R4 9337  13.544  16.632   8.718 -0.4595 -0.1530 -0.0482
  662ERGO    R5 9338  13.479  16.424   8.712 -0.1274 -0.2697  0.0507
  662ERGO    C1 9339  13.688  16.436   8.393 -0.3266 -0.0115 -0.0738
  662ERGO    C2 9340  13.831  16.365   8.096 -0.0722  0.2058 -0.1243
  663ERGO   ROH 9341   8.130  16.718   9.059  0.2343  0.0166 -0.0312
  663ERGO    R1 9342   8.091  16.879   8.830  0.1476  0.0518  0.0072
  663ERGO    R2 9343   8.253  16.862   8.607  0.0642  0.0858 -0.0584
  663ERGO    R3 9344   8.016  16.825   8.478  0.0153  0.1044  0.0265
  663ERGO    R4 9345   8.215  16.849   8.263 -0.0440 -0.0074 -0.0426
  663ERGO    R5 9346   8.031  16.965   8.284 -0.0098  0.0431 -0.0199
  663ERGO    C1 9347   7.971  16.805   7.943 -0.1530 -0.0442  0.0463
  663ERGO    C2 9348   7.949  16.697   7.583  0.1997  0.0885  0.3950
  664ERGO   ROH 9349   4.561  13.779   9.329  0.0338  0.1777  0.1095
  664ERGO    R1 9350   4.674  13.827   9.074  0.0617  0.1252  0.1116
  664ERGO    R2 9351   4.614  13.672   8.853  0.2233 -0.0354  0.1744
  664ERGO    R3 9352   4.552  13.912   8.742  0.0777 -0.1343  0.0371
  664ERGO    R4 9353   4.612  13.739   8.514  0.1981 -0.2197  0.1372
  664ERGO    R5 9354   4.702  13.933   8.557  0.0731 -0.1402  0.0350
  664ERGO    C1 9355   4.554  14.004   8.213  0.0468 -0.4198 -0.0133
  664ERGO    C2 9356   4.477  14.078   7.853  0.0833 -0.0350 -0.0795
  665ERGO   ROH 9357  15.392  11.382   9.807  0.0896  0.2542  0.0924
  665ERGO    R1 9358  15.366  11.311   9.534  0.0195  0.0865  0.1423
  665ERGO    R2 9359  15.173  11.419   9.369  0.0292  0.0434  0.1091
  665ERGO    R3 9360  15.386  11.482   9.213  0.0214 -0.1275  0.0253
  665ERGO    R4 9361  15.156  11.595   9.072  0.0619  0.1784  0.1852
  665ERGO    R5 9362  15.305  11.460   8.989 -0.1220  0.0442  0.0551
  665ERGO    C1 9363  15.346  11.756   8.753  0.0736  0.0967  0.1508
  665ERGO    C2 9364  15.147  11.783   8.439  0.0523 -0.1632 -0.3167
  666ERGO   ROH 9365   0.804   7.638   9.374  0.0769 -0.0010  0.0726
  666ERGO    R1 9366   0.738   7.521   9.124  0.0201  0.0157  0.0798
  666ERGO    R2 9367   0.654   7.671   8.908 -0.0215  0.0314  0.1064
  666ERGO    R3 9368   0.859   7.545   8.781 -0.0517  0.0323  0.0559
  666ERGO    R4 9369   0.704   7.671   8.566 -0.1920 -0.1036  0.0797
  666ERGO    R5 9370   0.761   7.461   8.579 -0.1296 -0.0814  0.1413
  666ERGO    C1 9371   0.926   7.553   8.248 -0.3196 -0.1814  0.0167
  666ERGO    C2 9372   1.074   7.532   7.954  0.3310  0.1163  0.1300
  667ERGO   ROH 9373   0.669   8.692   9.251 -0.0247  0.0739  0.0184
  667ERGO    R1 9374   0.503   8.760   9.032 -0.0078  0.1040  0.0132
  667ERGO    R2 9375   0.595   8.901   8.813  0.0377  0.0476 -0.0134
  667ERGO    R3 9376   0.495   8.690   8.675 -0.0363  0.0591  0.0247
  667ERGO    R4 9377   0.589   8.876   8.469  0.2453 -0.1308 -0.0058
  667ERGO    R5 9378   0.390   8.789   8.484  0.1714  0.0385 -0.0957
  667ERGO    C1 9379   0.491   8.664   8.138  0.2967 -0.2240  0.0345
  667ERGO    C2 9380   0.397   8.534   7.981 -0.3667 -0.2032  0.1704
  668ERGO   ROH 9381   9.175  14.113   9.450  0.0003 -0.1267 -0.0614
  668ERGO    R1 9382   9.069  13.976   9.227  0.0803 -0.1687 -0.0741
  668ERGO    R2 9383   8.966  14.108   9.006 -0.1453 -0.2036  0.0074
  668ERGO    R3 9384   9.144  13.952   8.871 -0.0103  0.0451 -0.1093
  668ERGO    R4 9385   8.971  14.064   8.663 -0.3108 -0.1946  0.0032
  668ERGO    R5 9386   9.015  13.853   8.695  0.0092 -0.1369 -0.0238
  668ERGO    C1 9387   9.140  13.892   8.337 -0.2805  0.0439 -0.1089
  668ERGO    C2 9388   9.305  13.910   8.140 -0.0150  0.2813  0.1423
  669ERGO   ROH 9389   8.365  17.867   9.290 -0.2246  0.2011 -0.0936
  669ERGO    R1 9390   8.358  17.796   9.016 -0.2779  0.2994 -0.1193
  669ERGO    R2 9391   8.284  17.974   8.818  0.0986  0.5099 -0.0892
  669ERGO    R3 9392   8.524  17.906   8.711  0.0140  0.1030 -0.0335
  669ERGO    R4 9393   8.379  18.033   8.491  0.2131  0.1554 -0.1235
  669ERGO    R5 9394   8.473  17.837   8.488 -0.0607  0.0239  0.0124
  669ERGO    C1 9395   8.660  18.003   8.201  0.2004 -0.4329 -0.0912
  669ERGO    C2 9396   8.984  17.975   7.957 -0.2302  0.0586 -0.3683
  670ERGO   ROH 9397  14.121  11.077   9.931  0.1209 -0.1749  0.1033
  670ERGO    R1 9398  14.094  11.072   9.649 -0.1441 -0.0793  0.1247
  670ERGO    R2 9399  14.206  10.874   9.493 -0.0619  0.1214 -0.0692
  670ERGO    R3 9400  13.952  10.845   9.402 -0.1213 -0.1344  0.1603
  670ERGO    R4 9401  14.116  10.695   9.211 -0.0750  0.3546 -0.2162
  670ERGO    R5 9402  13.973  10.852   9.163 -0.3681  0.2162  0.1374
  670ERGO    C1 9403  13.825  10.565   8.961 -0.1385  0.2504 -0.0863
  670ERGO    C2 9404  13.749  10.414   8.689  0.1386  0.1752  0.3258
  671ERGO   ROH 9405  14.503  13.619  10.109  0.4724 -0.0473 -0.1599
  671ERGO    R1 9406  14.350  13.636   9.872  0.2295 -0.0553 -0.0074
  671ERGO    R2 9407  14.370  13.849   9.697  0.0103 -0.0350 -0.0076
  671ERGO    R3 9408  14.418  13.653   9.514 -0.1325 -0.0061 -0.0779
  671ERGO    R4 9409  14.361  13.893   9.354  0.0959  0.1128  0.0080
  671ERGO    R5 9410  14.263  13.698   9.337 -0.0714  0.2006 -0.0832
  671ERGO    C1 9411  14.400  13.735   8.983  0.0117  0.2261 -0.0488
  671ERGO    C2 9412  14.463  13.691   8.720  0.0884 -0.3591 -0.3657
  672ERGO   ROH 9413   8.282  18.238   9.461  0.0124 -0.2273 -0.1993
  672ERGO    R1 9414   8.180  18.247   9.197  0.0845 -0.1621 -0.2244
  672ERGO    R2 9415   8.038  18.464   9.101 -0.0133 -0.2030 -0.1590
  672ERGO    R3 9416   8.226  18.457   8.904  0.0449  0.0052 -0.1146
  672ERGO    R4 9417   7.984  18.561   8.773 -0.0414 -0.2141 -0.1584
  672ERGO    R5 9418   8.104  18.391   8.708  0.1482 -0.0951 -0.1519
  672ERGO    C1 9419   8.129  18.612   8.398 -0.0031 -0.0249 -0.1162
  672ERGO    C2 9420   8.002  18.732   8.082 -0.2669  0.4067  0.0388
  673ERGO   ROH 9421  18.074   5.075  10.108  0.3063 -0.2622 -0.0943
  673ERGO    R1 9422  18.099   5.067   9.826  0.1882 -0.1534 -0.1087
  673ERGO    R2 9423  18.052   4.838   9.679  0.1009 -0.0901 -0.1811
  673ERGO    R3 9424  17.880   4.999   9.543  0.0623 -0.0159 -0.0460
  673ERGO    R4 9425  17.989   4.817   9.340  0.0264  0.1089 -0.1810
  673ERGO    R5 9426  17.987   5.035   9.332  0.0139  0.1153 -0.0498
  673ERGO    C1 9427  17.790   4.955   9.015 -0.0532  0.2944 -0.0542
  673ERGO    C2 9428  17.767   4.970   8.604  0.2824  0.1066 -0.1504
  674ERGO   ROH 9429   4.151   6.520   8.903  0.0945 -0.4698 -0.2238
  674ERGO    R1 9430   4.124   6.440   8.633 -0.0088 -0.2823 -0.2705
  674ERGO    R2 9431   4.049   6.616   8.433  0.1371 -0.0882 -0.1576
  674ERGO    R3 9432   4.278   6.529   8.315  0.0442 -0.2362 -0.2323
  674ERGO    R4 9433   4.135   6.673   8.103  0.2215  0.1580 -0.0954
  674ERGO    R5 9434   4.211   6.469   8.093 -0.0169  0.0733 -0.3029
  674ERGO    C1 9435   4.400   6.625   7.800  0.1835  0.1623 -0.1291
  674ERGO    C2 9436   4.358   6.757   7.492 -0.2231 -0.2651 -0.3077
  675PSPI    C1 9437   5.833  14.621   5.247 -0.0180  0.0231  0.1365
  675PSPI    C2 9438   6.155  14.598   5.012 -0.1741 -0.0525 -0.0728
  675PSPI    C3 9439   5.891  14.894   4.961 -0.1605 -0.0151  0.0700
  675PSPI   PO4 9440   5.927  14.675   5.531 -0.1381  0.1640 -0.3965
  675PSPI   GL1 9441   5.957  14.525   6.042 -0.1182 -0.1732  0.1771
  675PSPI   GL2 9442   5.731  14.769   5.978  0.0833 -0.2531  0.0326
  675PSPI   C1A 9443   6.082  14.594   6.444 -0.0106 -0.0315 -0.2929
  675PSPI   C2A 9444   6.270  14.660   6.862 -0.0983 -0.1760 -0.3827
  675PSPI   C3A 9445   6.684  14.579   7.066  0.0922  0.1043  0.1230
  675PSPI   C4A 9446   7.091  14.640   7.245 -0.1964  0.0936 -0.2364
  675PSPI   C1B 9447   5.569  14.850   6.440 -0.1240 -0.0705 -0.0678
  675PSPI   C2B 9448   5.639  15.051   6.847  0.3534 -0.0575  0.0213
  675PSPI   C3B 9449   5.909  14.813   7.155  0.3837  0.0883  0.1915
  675PSPI   C4B 9450   6.142  14.453   7.283 -0.0454 -0.1591  0.0588
  676PSPI    C1 9451  17.795   0.187   5.791  0.0971  0.2463 -0.2636
  676PSPI    C2 9452  17.738  -0.194   5.900 -0.2577  0.3394 -0.1113
  676PSPI    C3 9453  18.012  -0.105   5.623 -0.0228 -0.0026  0.0043
  676PSPI   PO4 9454  17.496   0.245   5.711 -0.1804  0.0263  0.0367
  676PSPI   GL1 9455  17.263   0.275   6.166 -0.0208  0.5964  0.0043
  676PSPI   GL2 9456  17.554   0.141   6.238 -0.1922  0.1259  0.4290
  676PSPI   C1A 9457  17.218   0.729   6.148 -0.0563 -0.1442  0.0135
  676PSPI   C2A 9458  17.257   1.187   6.265  0.1151 -0.2117  0.1845
  676PSPI   C3A 9459  17.517   1.395   6.683 -0.0884  0.4595 -0.0759
  676PSPI   C4A 9460  17.690   1.374   7.193 -0.3458  0.0842  0.1795
  676PSPI   C1B 9461  17.492   0.503   6.543 -0.0805 -0.0757  0.0721
  676PSPI   C2B 9462  17.303   0.970   6.678  0.3107  0.3270 -0.0351
  676PSPI   C3B 9463  17.173   1.051   7.099  0.0451  0.1895  0.0177
  676PSPI   C4B 9464  17.307   1.151   7.516 -0.2550  0.0197  0.2381
  677PSPI    C1 9465  13.779  17.611   5.265  0.0896 -0.0279 -0.1246
  677PSPI    C2 9466  13.532  17.297   5.254  0.1027 -0.0400 -0.0791
  677PSPI    C3 9467  13.413  17.650   5.108  0.0302 -0.0262  0.0129
  677PSPI   PO4 9468  13.861  17.657   5.458  0.1117 -0.0796  0.0105
  677PSPI   GL1 9469  14.083  17.853   5.720  0.1252 -0.0240  0.2183
  677PSPI   GL2 9470  13.879  18.214   5.847  0.2684 -0.0722 -0.1828
  677PSPI   C1A 9471  13.797  17.716   6.139  0.0301  0.0924  0.1362
  677PSPI   C2A 9472  13.830  17.419   6.453  0.0787  0.1414 -0.0164
  677PSPI   C3A 9473  14.145  17.495   6.726 -0.0424 -0.1494  0.2031
  677PSPI   C4A 9474  14.371  17.149   6.865 -0.3639  0.3139 -0.0030
  677PSPI   C1B 9475  14.109  18.323   6.125  0.0313  0.1148 -0.1749
  677PSPI   C2B 9476  14.284  18.397   6.534  0.0579 -0.2962 -0.1216
  677PSPI   C3B 9477  14.502  18.437   6.976 -0.0463  0.0006  0.0700
  677PSPI   C4B 9478  14.731  18.316   7.116  0.0427  0.0052  0.0803
  678PSPI    C1 9479   7.257  15.876   5.071 -0.0190  0.1906 -0.3071
  678PSPI    C2 9480   7.120  16.243   5.153 -0.1688  0.0450  0.1214
  678PSPI    C3 9481   6.867  15.933   5.134 -0.0091 -0.0820  0.0340
  678PSPI   PO4 9482   7.484  15.873   5.241 -0.1711  0.1011 -0.2008
  678PSPI   GL1 9483   7.518  16.263   5.555 -0.1860  0.0835  0.0651
  678PSPI   GL2 9484   7.783  16.551   5.648  0.1035  0.1029  0.0958
  678PSPI   C1A 9485   7.375  16.225   5.915  0.4195 -0.1876 -0.0925
  678PSPI   C2A 9486   7.330  16.479   6.340 -0.2605  0.0293 -0.0755
  678PSPI   C3A 9487   7.114  16.779   6.533 -0.0934  0.0324 -0.2018
  678PSPI   C4A 9488   7.246  16.986   7.004  0.1602  0.1205 -0.1035
  678PSPI   C1B 9489   7.779  16.438   6.108  0.1859 -0.0093 -0.0708
  678PSPI   C2B 9490   7.739  16.355   6.568  0.0974 -0.1130  0.1310
  678PSPI   C3B 9491   7.685  16.089   6.941  0.0269 -0.1157 -0.2627
  678PSPI   C4B 9492   7.393  16.156   7.253 -0.4305  0.3417  0.2249
  679PSPI    C1 9493   7.964   3.244   5.760  0.3357  0.2317 -0.0795
  679PSPI    C2 9494   7.989   3.292   5.364 -0.0647  0.1346 -0.1204
  679PSPI    C3 9495   7.919   3.607   5.599  0.1279  0.1852 -0.1298
  679PSPI   PO4 9496   8.072   2.885   5.711 -0.0607  0.3332 -0.0377
  679PSPI   GL1 9497   8.005   2.503   6.062 -0.0188 -0.2545 -0.0854
  679PSPI   GL2 9498   7.822   2.432   6.402 -0.1229  0.0455 -0.0565
  679PSPI   C1A 9499   7.604   2.204   5.982  0.2542 -0.2719  0.0504
  679PSPI   C2A 9500   7.442   1.893   6.247 -0.0037  0.1012  0.2352
  679PSPI   C3A 9501   7.469   2.027   6.623  0.0902 -0.3962  0.1626
  679PSPI   C4A 9502   7.692   2.339   6.841 -0.1161 -0.0083  0.2137
  679PSPI   C1B 9503   8.032   2.798   6.676 -0.2296 -0.0359  0.1046
  679PSPI   C2B 9504   7.973   3.200   6.745 -0.3002  0.2519  0.1176
  679PSPI   C3B 9505   7.895   3.582   6.945  0.0322 -0.1076  0.2066
  679PSPI   C4B 9506   8.136   4.000   7.222 -0.0163 -0.2422 -0.2396
  680PSPI    C1 9507  11.043  16.871   5.408  0.4442  0.3837 -0.2841
  680PSPI    C2 9508  10.790  17.054   5.158 -0.0155 -0.0390 -0.1455
  680PSPI    C3 9509  10.889  16.671   5.097  0.0644 -0.0728  0.1778
  680PSPI   PO4 9510  11.072  16.878   5.662  0.2110 -0.4274 -0.2116
  680PSPI   GL1 9511  10.858  16.899   6.012  0.0039 -0.0918  0.1967
  680PSPI   GL2 9512  10.716  17.067   6.108  0.2435  0.0009 -0.2114
  680PSPI   C1A 9513  11.151  16.850   6.368  0.1722  0.0178 -0.0525
  680PSPI   C2A 9514  11.236  16.635   6.690 -0.3509 -0.2769 -0.1280
  680PSPI   C3A 9515  11.425  16.665   7.099  0.0509  0.3259 -0.2781
  680PSPI   C4A 9516  11.589  16.868   7.543  0.1300  0.0857 -0.1322
  680PSPI   C1B 9517  10.778  17.043   6.596 -0.0174 -0.0217 -0.0479
  680PSPI   C2B 9518  10.879  16.724   7.043 -0.0055  0.3817  0.1872
  680PSPI   C3B 9519  10.589  16.725   7.256  0.0282  0.0706  0.2343
  680PSPI   C4B 9520  10.338  16.430   7.620  0.2018  0.1208 -0.0134
  681PSPI    C1 9521   1.994   1.887   5.566 -0.2073 -0.0598 -0.3432
  681PSPI    C2 9522   2.274   1.996   5.302 -0.0330  0.0774 -0.1059
  681PSPI    C3 9523   1.901   2.139   5.270  0.0479  0.2845 -0.1382
  681PSPI   PO4 9524   2.083   1.882   5.768  0.0031 -0.1418  0.0771
  681PSPI   GL1 9525   2.027   1.944   6.128  0.0365 -0.1488  0.0257
  681PSPI   GL2 9526   1.815   2.164   6.224 -0.0938  0.0522 -0.1883
  681PSPI   C1A 9527   2.181   2.060   6.564  0.0505 -0.3149 -0.0508
  681PSPI   C2A 9528   2.215   2.292   6.978  0.1343 -0.1977 -0.2860
  681PSPI   C3A 9529   2.117   2.381   7.342  0.0462 -0.0671 -0.1694
  681PSPI   C4A 9530   2.168   2.596   7.640  0.0514 -0.1936  0.0568
  681PSPI   C1B 9531   1.690   2.002   6.630 -0.3099  0.1837 -0.0009
  681PSPI   C2B 9532   1.714   2.039   7.083 -0.1928  0.2220  0.0790
  681PSPI   C3B 9533   1.639   2.163   7.524  0.3749 -0.2683 -0.2677
  681PSPI   C4B 9534   1.551   2.330   7.896  0.2032 -0.1481  0.3307
  682PSPI    C1 9535  16.070   9.346   5.337  0.0005 -0.2232 -0.0893
  682PSPI    C2 9536  15.806   9.241   5.055  0.0573 -0.0888 -0.1937
  682PSPI    C3 9537  15.854   9.627   5.151  0.0929 -0.1275 -0.0532
  682PSPI   PO4 9538  16.129   9.272   5.561 -0.2466  0.0557  0.2881
  682PSPI   GL1 9539  16.043   9.013   5.907  0.2346 -0.1948 -0.0147
  682PSPI   GL2 9540  15.714   8.846   5.816  0.1375  0.4339  0.2255
  682PSPI   C1A 9541  16.218   8.819   6.263 -0.1338  0.0771 -0.2992
  682PSPI   C2A 9542  16.380   8.738   6.583 -0.0959  0.0375  0.0504
  682PSPI   C3A 9543  16.212   8.585   6.985 -0.2861 -0.0596 -0.3159
  682PSPI   C4A 9544  15.927   8.350   7.274  0.0377  0.0213  0.3159
  682PSPI   C1B 9545  15.753   8.612   6.211 -0.1313  0.1206 -0.0057
  682PSPI   C2B 9546  15.899   8.480   6.577 -0.1356 -0.0718 -0.3947
  682PSPI   C3B 9547  16.177   8.105   6.659 -0.0483  0.3600 -0.1369
  682PSPI   C4B 9548  16.190   7.878   7.017 -0.2518 -0.3024  0.1638
  683PSPI    C1 9549   6.654  15.532   5.048  0.0895  0.0565  0.0453
  683PSPI    C2 9550   6.969  15.526   4.801  0.0558  0.0043  0.0035
  683PSPI    C3 9551   6.631  15.710   4.691  0.0881  0.1036  0.0688
  683PSPI   PO4 9552   6.683  15.265   5.256 -0.0503 -0.0181  0.1974
  683PSPI   GL1 9553   6.575  15.297   5.678  0.0668  0.4057 -0.2506
  683PSPI   GL2 9554   6.739  15.625   5.625  0.0431 -0.1808 -0.1382
  683PSPI   C1A 9555   6.629  15.416   6.165  0.1593  0.1915  0.0310
  683PSPI   C2A 9556   6.645  15.338   6.577 -0.3727 -0.3820  0.1887
  683PSPI   C3A 9557   6.726  15.455   7.013 -0.1311  0.1433 -0.2455
  683PSPI   C4A 9558   6.654  15.534   7.482 -0.2818 -0.2079  0.3101
  683PSPI   C1B 9559   7.081  15.341   5.950 -0.0893  0.0242  0.0434
  683PSPI   C2B 9560   7.176  15.209   6.308 -0.0917 -0.0885 -0.2195
  683PSPI   C3B 9561   7.496  15.210   6.559 -0.1198  0.0208  0.3208
  683PSPI   C4B 9562   7.537  15.702   6.564  0.0427  0.2280 -0.1265
  684PSPI    C1 9563  10.893   5.875   5.502 -0.0077 -0.1042 -0.1537
  684PSPI    C2 9564  11.061   6.238   5.491  0.0409 -0.1198  0.0528
  684PSPI    C3 9565  11.069   6.005   5.167  0.2241 -0.0327 -0.0069
  684PSPI   PO4 9566  10.801   5.838   5.800 -0.2663  0.3157 -0.0104
  684PSPI   GL1 9567  10.999   5.734   6.278 -0.1680 -0.0741 -0.0650
  684PSPI   GL2 9568  10.685   5.636   6.243  0.0043  0.0822  0.0130
  684PSPI   C1A 9569  11.045   5.873   6.712 -0.1259 -0.0442  0.0428
  684PSPI   C2A 9570  11.023   6.274   7.012 -0.2818 -0.0632 -0.2094
  684PSPI   C3A 9571  11.115   6.606   7.188 -0.1225  0.1248 -0.1711
  684PSPI   C4A 9572  10.870   6.973   7.365 -0.2222  0.1561 -0.1129
  684PSPI   C1B 9573  10.554   5.655   6.628  0.1558  0.1917  0.0823
  684PSPI   C2B 9574  10.600   5.610   7.072 -0.4732 -0.2074  0.1582
  684PSPI   C3B 9575  10.510   5.303   7.334 -0.0876 -0.1165 -0.0477
  684PSPI   C4B 9576  10.498   5.299   7.763  0.2724 -0.2028 -0.0887
  685PSPI    C1 9577   8.910   8.175   5.408  0.3078 -0.0425 -0.0106
  685PSPI    C2 9578   8.963   8.334   5.045  0.1149 -0.0042 -0.0228
  685PSPI    C3 9579   8.858   7.950   5.081  0.1512 -0.0127 -0.0067
  685PSPI   PO4 9580   8.788   8.255   5.493 -0.0019  0.1092 -0.1605
  685PSPI   GL1 9581   8.576   8.172   5.899 -0.0834 -0.0625 -0.1263
  685PSPI   GL2 9582   8.818   8.143   6.124  0.2688  0.0719  0.3180
  685PSPI   C1A 9583   8.130   8.071   5.853 -0.2544 -0.1727  0.0537
  685PSPI   C2A 9584   7.759   8.085   6.112 -0.4088  0.0753 -0.2835
  685PSPI   C3A 9585   7.611   7.872   6.512 -0.1437 -0.3173  0.2533
  685PSPI   C4A 9586   7.775   7.845   6.973  0.0890 -0.1163 -0.0353
  685PSPI   C1B 9587   8.395   8.055   6.326  0.2743 -0.2420  0.2326
  685PSPI   C2B 9588   8.137   8.214   6.649  0.0788  0.1765  0.2398
  685PSPI   C3B 9589   7.938   8.405   6.984  0.0871  0.2528 -0.0858
  685PSPI   C4B 9590   7.532   8.564   6.929 -0.0204  0.1013  0.1381
  686PSPI    C1 9591   0.488   4.326   5.627 -0.0700 -0.3279  0.2043
  686PSPI    C2 9592   0.402   3.948   5.529 -0.1244 -0.2318 -0.1320
  686PSPI    C3 9593   0.110   4.196   5.641 -0.1442 -0.1855 -0.2839
  686PSPI   PO4 9594   0.693   4.395   5.723 -0.0793 -0.1600  0.0787
  686PSPI   GL1 9595   0.735   4.559   6.142 -0.1288  0.1381  0.2960
  686PSPI   GL2 9596   0.529   4.592   6.172  0.2969 -0.1241 -0.0343
  686PSPI   C1A 9597   0.893   4.622   6.573 -0.1881 -0.0950  0.0602
  686PSPI   C2A 9598   0.860   4.768   6.962 -0.1252 -0.0051 -0.3223
  686PSPI   C3A 9599   0.728   4.818   7.393 -0.1682  0.1662 -0.1331
  686PSPI   C4A 9600   0.509   4.890   7.819  0.1775 -0.1013  0.1851
  686PSPI   C1B 9601   0.386   4.778   6.616 -0.0234  0.0180 -0.0001
  686PSPI   C2B 9602   0.304   4.930   7.020 -0.0823  0.3202  0.2232
  686PSPI   C3B 9603   0.076   4.692   7.322  0.1688 -0.2958  0.1836
  686PSPI   C4B 9604  -0.040   4.771   7.735  0.6129 -0.1313 -0.0025
  687PSPI    C1 9605   4.395  17.665   5.649  0.0671 -0.2101 -0.0225
  687PSPI    C2 9606   4.618  17.986   5.562 -0.1517  0.0143  0.2240
  687PSPI    C3 9607   4.261  17.938   5.389 -0.1279 -0.0881  0.2022
  687PSPI   PO4 9608   4.380  17.702   5.964  0.4079  0.0597 -0.2603
  687PSPI   GL1 9609   4.150  17.881   6.257 -0.1926 -0.1897 -0.0470
  687PSPI   GL2 9610   3.833  17.847   6.331  0.0443  0.3092 -0.0464
  687PSPI   C1A 9611   4.287  18.143   6.576  0.0868 -0.0663  0.1384
  687PSPI   C2A 9612   4.006  18.233   6.933 -0.0979  0.1478 -0.2641
  687PSPI   C3A 9613   4.089  18.653   7.323  0.1051  0.0347  0.2382
  687PSPI   C4A 9614   4.003  18.823   7.693  0.0099 -0.1589 -0.3032
  687PSPI   C1B 9615   3.903  17.682   6.736  0.0958  0.2436 -0.0127
  687PSPI   C2B 9616   4.086  17.717   7.090  0.6598  0.0497 -0.0005
  687PSPI   C3B 9617   4.208  17.696   7.423 -0.3596 -0.1218  0.0943
  687PSPI   C4B 9618   4.136  17.393   7.624 -0.1394  0.1268 -0.0162
  688PSPI    C1 9619  11.967   0.547   5.434  0.0717  0.2566  0.1618
  688PSPI    C2 9620  12.344   0.682   5.442  0.1508  0.0588 -0.0892
  688PSPI    C3 9621  12.236   0.406   5.174 -0.1651  0.0854  0.0063
  688PSPI   PO4 9622  11.819   0.780   5.480 -0.5950  0.0328 -0.1141
  688PSPI   GL1 9623  11.868   1.203   5.618  0.3421  0.0810 -0.0361
  688PSPI   GL2 9624  11.979   1.605   5.663 -0.1202  0.1080  0.1280
  688PSPI   C1A 9625  11.906   1.306   6.108 -0.0517  0.3221  0.1401
  688PSPI   C2A 9626  11.964   1.420   6.495 -0.1937  0.0156  0.1630
  688PSPI   C3A 9627  11.881   1.418   6.956 -0.0086 -0.2578  0.2741
  688PSPI   C4A 9628  12.139   1.480   7.263 -0.0090 -0.1436 -0.1341
  688PSPI   C1B 9629  11.690   1.756   5.930 -0.1374  0.3858  0.2208
  688PSPI   C2B 9630  11.567   1.755   6.305 -0.1351 -0.0380 -0.0928
  688PSPI   C3B 9631  11.490   1.629   6.745  0.1532  0.0656  0.0422
  688PSPI   C4B 9632  11.352   1.830   7.050  0.1227  0.0630 -0.2398
  689PSPI    C1 9633   8.831   3.214   5.520 -0.1499  0.0806  0.2868
  689PSPI    C2 9634   8.500   2.993   5.555 -0.0682 -0.1044 -0.0695
  689PSPI    C3 9635   8.475   3.392   5.562 -0.2603 -0.1182  0.2065
  689PSPI   PO4 9636   8.945   3.192   5.690 -0.0133 -0.1619  0.2175
  689PSPI   GL1 9637   8.876   3.138   6.063 -0.2479 -0.3118 -0.4976
  689PSPI   GL2 9638   8.549   3.212   6.015 -0.0320  0.3176 -0.2802
  689PSPI   C1A 9639   8.965   2.856   6.476  0.0297  0.0723 -0.2932
  689PSPI   C2A 9640   8.863   2.697   6.913 -0.3103  0.0887  0.1472
  689PSPI   C3A 9641   8.576   2.722   7.181 -0.1141  0.2676  0.2035
  689PSPI   C4A 9642   8.489   2.966   7.589 -0.0583  0.2713 -0.5252
  689PSPI   C1B 9643   8.460   3.160   6.325  0.1380  0.2780 -0.1548
  689PSPI   C2B 9644   8.481   2.982   6.763 -0.5763 -0.1534 -0.0330
  689PSPI   C3B 9645   8.327   3.182   7.140  0.0805  0.0260  0.2338
  689PSPI   C4B 9646   7.925   3.037   7.240 -0.0520  0.3261  0.1393
  690PSPI    C1 9647  18.402  13.166   5.767  0.0095  0.0889  0.0924
  690PSPI    C2 9648  18.007  13.108   5.738  0.0478 -0.1868  0.0943
  690PSPI    C3 9649  18.261  12.831   5.600  0.2419  0.0120  0.0454
  690PSPI   PO4 9650  18.460  13.245   6.038  0.1190 -0.2229 -0.0709
  690PSPI   GL1 9651  18.465  13.088   6.440  0.2270 -0.0479 -0.2736
  690PSPI   GL2 9652  18.883  13.198   6.325  0.0965 -0.3035 -0.0076
  690PSPI   C1A 9653  18.462  13.067   6.831  0.2118  0.0244  0.2731
  690PSPI   C2A 9654  18.643  13.037   7.266 -0.2267  0.2837 -0.0607
  690PSPI   C3A 9655  18.650  12.863   7.687  0.0384 -0.0411 -0.0068
  690PSPI   C4A 9656  18.851  12.917   8.025 -0.0463 -0.1282  0.0807
  690PSPI   C1B 9657  19.114  13.431   6.605  0.0321  0.0841 -0.0660
  690PSPI   C2B 9658  19.420  13.353   7.038 -0.2099 -0.0941 -0.2094
  690PSPI   C3B 9659  19.458  13.253   7.411 -0.1323  0.0193  0.0450
  690PSPI   C4B 9660  19.522  13.122   7.898  0.0441 -0.0087  0.3208
  691PSPI    C1 9661  10.273   8.286   5.701 -0.1067  0.1403  0.2533
  691PSPI    C2 9662  10.624   8.425   5.834 -0.1648  0.0464  0.5114
  691PSPI    C3 9663  10.574   8.033   5.776 -0.0850  0.1005  0.0376
  691PSPI   PO4 9664  10.124   8.457   5.968 -0.4059  0.2794 -0.0138
  691PSPI   GL1 9665  10.209   8.392   6.512 -0.0661  0.1866 -0.0043
  691PSPI   GL2 9666  10.523   8.475   6.552 -0.1695  0.2354 -0.2366
  691PSPI   C1A 9667  10.218   8.813   6.762 -0.4597 -0.0536  0.1467
  691PSPI   C2A 9668  10.048   8.999   7.032  0.2022  0.0225 -0.0001
  691PSPI   C3A 9669   9.793   8.960   7.313 -0.0124 -0.0911 -0.0524
  691PSPI   C4A 9670   9.480   9.111   7.579  0.1560  0.1360  0.0723
  691PSPI   C1B 9671  10.238   8.409   7.009  0.1620 -0.0676  0.1851
  691PSPI   C2B 9672  10.212   8.602   7.355  0.1769  0.0818 -0.0568
  691PSPI   C3B 9673  10.333   8.934   7.471 -0.2451 -0.3019 -0.1132
  691PSPI   C4B 9674  10.609   9.122   7.228  0.0965  0.0965 -0.2069
  692PSPI    C1 9675   1.744   5.595   5.614 -0.1935 -0.0862 -0.0472
  692PSPI    C2 9676   1.758   5.226   5.459 -0.0433 -0.0747 -0.0628
  692PSPI    C3 9677   1.716   5.543   5.219 -0.4446 -0.0974 -0.0294
  692PSPI   PO4 9678   1.488   5.675   5.769  0.2297  0.1338  0.4026
  692PSPI   GL1 9679   1.415   5.621   6.160 -0.4260  0.1364 -0.0666
  692PSPI   GL2 9680   1.173   5.409   6.289 -0.1564 -0.0192 -0.1642
  692PSPI   C1A 9681   1.580   5.843   6.451  0.2388 -0.0950  0.1506
  692PSPI   C2A 9682   1.530   5.906   6.746 -0.0869 -0.1790 -0.3526
  692PSPI   C3A 9683   1.608   6.145   7.011  0.1599 -0.3373 -0.1121
  692PSPI   C4A 9684   1.670   6.523   7.366  0.3592  0.3066 -0.1106
  692PSPI   C1B 9685   1.150   5.540   6.710 -0.0937  0.3242  0.1799
  692PSPI   C2B 9686   1.365   5.610   7.142  0.1801 -0.3045  0.0098
  692PSPI   C3B 9687   1.298   5.680   7.518  0.1877 -0.0745 -0.0233
  692PSPI   C4B 9688   1.097   5.731   7.919 -0.0519  0.0300  0.3541
  693PSPI    C1 9689  12.666   1.237   5.578 -0.2088  0.0604 -0.1956
  693PSPI    C2 9690  12.783   0.920   5.364 -0.0781 -0.1546  0.1841
  693PSPI    C3 9691  13.030   1.080   5.635 -0.1337  0.2921 -0.0201
  693PSPI   PO4 9692  12.403   1.149   5.621  0.1383  0.2665  0.0560
  693PSPI   GL1 9693  12.148   0.887   5.822 -0.0291 -0.1226  0.2421
  693PSPI   GL2 9694  11.933   0.531   5.894  0.0375  0.1359  0.1056
  693PSPI   C1A 9695  12.091   0.898   6.282 -0.2340  0.3745 -0.1694
  693PSPI   C2A 9696  12.043   0.995   6.727 -0.0825  0.3455 -0.3255
  693PSPI   C3A 9697  12.160   0.935   7.026  0.2014  0.4116  0.2684
  693PSPI   C4A 9698  12.362   0.725   7.386  0.3009  0.1084 -0.0806
  693PSPI   C1B 9699  12.176   0.416   6.236  0.0113 -0.1264  0.2489
  693PSPI   C2B 9700  12.391   0.578   6.589 -0.1080 -0.2284  0.1008
  693PSPI   C3B 9701  12.629   0.764   6.910 -0.4736  0.3817 -0.0100
  693PSPI   C4B 9702  12.921   0.722   7.337 -0.1375  0.1314 -0.1744
  694PSPI    C1 9703   2.308  10.358   5.628  0.0110  0.0128  0.1065
  694PSPI    C2 9704   2.537  10.637   5.457 -0.0872  0.0540  0.0417
  694PSPI    C3 9705   2.495  10.630   5.855  0.0699  0.0127  0.0581
  694PSPI   PO4 9706   2.468  10.107   5.524  0.0628  0.1523  0.2159
  694PSPI   GL1 9707   2.412   9.849   5.951 -0.0684 -0.0149 -0.2030
  694PSPI   GL2 9708   2.583  10.138   6.017 -0.1232 -0.0649 -0.2307
  694PSPI   C1A 9709   2.630   9.672   6.282 -0.2497  0.0516  0.0717
  694PSPI   C2A 9710   2.821   9.633   6.699 -0.0639  0.0834  0.0038
  694PSPI   C3A 9711   2.916   9.548   7.225  0.0500 -0.0530 -0.0661
  694PSPI   C4A 9712   2.946   9.447   7.717 -0.0001  0.1300 -0.1194
  694PSPI   C1B 9713   3.010  10.011   6.218  0.1608 -0.2855 -0.0869
  694PSPI   C2B 9714   3.141  10.064   6.655  0.3528 -0.2284 -0.1350
  694PSPI   C3B 9715   2.853   9.982   7.099 -0.4034 -0.1752  0.2515
  694PSPI   C4B 9716   2.815   9.938   7.517  0.0040  0.1754  0.0411
  695POPI    C1 9717   1.084   2.776   5.407  0.2430  0.1354 -0.0073
  695POPI    C2 9718   0.978   3.146   5.296  0.0805 -0.0111 -0.3545
  695POPI    C3 9719   1.166   2.905   5.037 -0.0093 -0.2473 -0.2029
  695POPI   PO4 9720   1.139   2.840   5.704  0.1475 -0.1246 -0.1096
  695POPI   GL1 9721   1.045   2.722   6.064 -0.0064 -0.1123 -0.1690
  695POPI   GL2 9722   0.677   2.807   6.192 -0.0564 -0.0467 -0.1780
  695POPI   C1A 9723   1.002   2.491   6.438 -0.1393  0.3165  0.4408
  695POPI   D2A 9724   0.746   2.264   6.771  0.0976  0.4335 -0.1508
  695POPI   C3A 9725   0.761   2.002   7.065  0.2762  0.1443  0.0130
  695POPI   C4A 9726   0.859   1.576   7.162 -0.2059  0.1622  0.1180
  695POPI   C1B 9727   0.339   2.891   6.537  0.1143  0.1674 -0.0962
  695POPI   C2B 9728   0.359   2.794   7.006 -0.1428  0.2122  0.3191
  695POPI   C3B 9729   0.679   2.725   7.380 -0.1417  0.0533 -0.2536
  695POPI   C4B 9730   0.958   2.357   7.535  0.1606  0.1948 -0.0073
  696POPI    C1 9731  15.528   2.110   5.805 -0.0313  0.0748  0.0851
  696POPI    C2 9732  15.848   2.301   5.659 -0.0553 -0.0053 -0.0737
  696POPI    C3 9733  15.625   2.071   5.419 -0.3511  0.2117 -0.0119
  696POPI   PO4 9734  15.690   1.942   5.944  0.2325  0.1312  0.1831
  696POPI   GL1 9735  15.535   1.731   6.205 -0.0932  0.1603 -0.2813
  696POPI   GL2 9736  15.725   1.433   6.092 -0.1424 -0.0652 -0.1040
  696POPI   C1A 9737  15.452   1.629   6.547  0.1613 -0.0750 -0.0510
  696POPI   D2A 9738  15.035   1.863   6.709 -0.1802  0.2180  0.1484
  696POPI   C3A 9739  15.000   1.810   7.237 -0.1007  0.0484 -0.0211
  696POPI   C4A 9740  15.101   1.985   7.649 -0.1154  0.2839  0.0600
  696POPI   C1B 9741  16.047   1.394   6.473 -0.1004  0.1531 -0.0082
  696POPI   C2B 9742  16.144   1.073   6.742  0.0874  0.0409 -0.0905
  696POPI   C3B 9743  16.155   1.058   7.204 -0.0238 -0.1674  0.1239
  696POPI   C4B 9744  16.281   1.348   7.555  0.0187 -0.1418  0.1014
  697POPI    C1 9745   4.614   4.473   5.380  0.0815 -0.0924  0.1002
  697POPI    C2 9746   4.886   4.584   5.108  0.0006 -0.0489  0.0364
  697POPI    C3 9747   4.515   4.490   4.992 -0.0645  0.0720  0.1434
  697POPI   PO4 9748   4.782   4.427   5.635 -0.0792  0.2985  0.2040
  697POPI   GL1 9749   5.018   4.175   5.976 -0.5150 -0.3144 -0.2460
  697POPI   GL2 9750   5.214   4.390   6.144  0.0269 -0.1245 -0.2647
  697POPI   C1A 9751   4.762   4.527   6.329  0.3013  0.0867  0.3575
  697POPI   D2A 9752   4.617   4.853   6.526 -0.2842 -0.1166 -0.2411
  697POPI   C3A 9753   4.892   4.995   6.966 -0.2001 -0.4008  0.1827
  697POPI   C4A 9754   5.151   5.116   7.270 -0.1941 -0.1640  0.0712
  697POPI   C1B 9755   5.160   4.274   6.548 -0.1636  0.1410 -0.0154
  697POPI   C2B 9756   4.912   4.491   6.923 -0.1863 -0.0038 -0.1283
  697POPI   C3B 9757   4.997   4.579   7.332  0.1326  0.0211 -0.0861
  697POPI   C4B 9758   5.336   4.611   7.482  0.0276  0.3255  0.2639
  698POPI    C1 9759   5.070   7.515   5.171 -0.0119 -0.0915  0.0077
  698POPI    C2 9760   5.383   7.478   4.925 -0.0260  0.2605 -0.0676
  698POPI    C3 9761   5.011   7.440   4.783 -0.0228 -0.0967  0.0104
  698POPI   PO4 9762   5.117   7.833   5.391  0.1699 -0.0831 -0.0736
  698POPI   GL1 9763   4.926   7.979   5.786 -0.0252  0.0290 -0.2320
  698POPI   GL2 9764   4.925   8.311   5.793 -0.2828  0.1929  0.0191
  698POPI   C1A 9765   4.805   7.945   6.219 -0.0585  0.0987  0.1446
  698POPI   D2A 9766   4.746   7.868   6.719  0.1931 -0.2215 -0.1001
  698POPI   C3A 9767   4.783   7.814   7.162 -0.2049  0.2849  0.1773
  698POPI   C4A 9768   5.159   7.727   7.443 -0.0844  0.1724 -0.0232
  698POPI   C1B 9769   4.969   8.466   6.193  0.0007 -0.0500  0.3080
  698POPI   C2B 9770   4.935   8.329   6.534 -0.0141 -0.0638 -0.1013
  698POPI   C3B 9771   4.968   8.322   7.010  0.4152  0.0029  0.2646
  698POPI   C4B 9772   4.972   8.230   7.402  0.1003  0.0729 -0.3892
  699POPI    C1 9773   5.847   7.839   5.069 -0.2480 -0.0957 -0.1155
  699POPI    C2 9774   6.125   7.850   4.782  0.0707  0.3995  0.1977
  699POPI    C3 9775   5.737   7.867   4.686  0.1635  0.2917 -0.2133
  699POPI   PO4 9776   6.005   7.825   5.293  0.1150 -0.1052 -0.2043
  699POPI   GL1 9777   6.093   7.857   5.747 -0.3428  0.0197  0.0072
  699POPI   GL2 9778   6.346   7.983   5.905  0.0783  0.2088  0.0322
  699POPI   C1A 9779   5.986   7.719   6.158  0.0341 -0.4664  0.1743
  699POPI   D2A 9780   6.136   7.971   6.481 -0.0129 -0.0326  0.0637
  699POPI   C3A 9781   6.280   7.800   6.909  0.2025 -0.2260 -0.3860
  699POPI   C4A 9782   6.088   7.522   7.210 -0.1166  0.1361 -0.2333
  699POPI   C1B 9783   6.337   8.410   6.029  0.1476 -0.1222  0.1029
  699POPI   C2B 9784   6.288   8.405   6.482 -0.0054  0.0872 -0.0967
  699POPI   C3B 9785   6.471   8.225   6.880 -0.1350 -0.1875  0.0157
  699POPI   C4B 9786   6.427   8.132   7.224  0.0299  0.1598 -0.2931
  700POPI    C1 9787  12.372   5.406   5.389  0.1416 -0.1272 -0.1203
  700POPI    C2 9788  12.471   5.792   5.358  0.1277 -0.1264 -0.1538
  700POPI    C3 9789  12.728   5.509   5.241  0.1543 -0.1286 -0.0905
  700POPI   PO4 9790  12.173   5.363   5.608 -0.1214  0.1459 -0.1581
  700POPI   GL1 9791  12.187   5.120   6.012  0.2434  0.2121 -0.0786
  700POPI   GL2 9792  11.895   5.334   6.087 -0.0464  0.1919  0.3090
  700POPI   C1A 9793  12.320   5.147   6.351  0.1355 -0.0241 -0.0221
  700POPI   D2A 9794  12.267   5.042   6.804 -0.0138 -0.1990  0.2942
  700POPI   C3A 9795  12.261   5.152   7.237 -0.0131 -0.1691  0.3029
  700POPI   C4A 9796  12.279   5.040   7.729 -0.1785  0.1642  0.5227
  700POPI   C1B 9797  11.807   5.122   6.370 -0.0420 -0.1414  0.0157
  700POPI   C2B 9798  11.824   5.253   6.705 -0.0747 -0.2566  0.5233
  700POPI   C3B 9799  11.758   5.258   7.155  0.0480 -0.0686  0.4758
  700POPI   C4B 9800  11.491   5.205   7.489 -0.1111 -0.3467 -0.0256
  701POPI    C1 9801   2.677  16.319   6.007  0.1570 -0.0337 -0.1427
  701POPI    C2 9802   2.544  15.988   6.189  0.2203  0.1992  0.3421
  701POPI    C3 9803   2.803  15.959   5.886 -0.2042 -0.2151  0.0035
  701POPI   PO4 9804   2.620  16.491   6.233  0.2974 -0.1903  0.1412
  701POPI   GL1 9805   2.900  16.406   6.591 -0.2481 -0.0682  0.0411
  701POPI   GL2 9806   2.618  16.285   6.660 -0.0288  0.2418  0.1443
  701POPI   C1A 9807   3.062  16.022   6.847 -0.1634 -0.4038 -0.1067
  701POPI   D2A 9808   3.142  15.807   7.198 -0.5782 -0.3357  0.0925
  701POPI   C3A 9809   3.028  15.762   7.578 -0.2521  0.2540  0.1292
  701POPI   C4A 9810   2.694  15.575   7.731 -0.0940  0.2642 -0.1419
  701POPI   C1B 9811   2.503  16.507   7.051 -0.0058  0.0956 -0.1288
  701POPI   C2B 9812   2.560  16.592   7.405  0.1291 -0.0517 -0.2014
  701POPI   C3B 9813   2.741  16.450   7.713 -0.0776 -0.1615  0.0909
  701POPI   C4B 9814   2.850  16.115   7.905 -0.0741  0.1867 -0.0480
  702POPI    C1 9815   8.849  16.645   5.367  0.3421 -0.1162 -0.1945
  702POPI    C2 9816   8.617  16.789   5.075  0.0991  0.0110  0.0567
  702POPI    C3 9817   8.725  16.404   5.073  0.0119 -0.0137 -0.1439
  702POPI   PO4 9818   9.030  16.852   5.459  0.0663 -0.1645  0.0499
  702POPI   GL1 9819   8.952  17.055   5.782 -0.4025  0.3993 -0.2244
  702POPI   GL2 9820   9.140  17.023   6.029  0.0873  0.0187 -0.0107
  702POPI   C1A 9821   8.806  17.338   6.196 -0.0176  0.1064  0.0464
  702POPI   D2A 9822   8.891  17.294   6.564 -0.2290 -0.0445  0.0136
  702POPI   C3A 9823   8.946  17.075   6.900 -0.1720  0.1304  0.0194
  702POPI   C4A 9824   8.948  16.700   7.272 -0.1610 -0.1091  0.1336
  702POPI   C1B 9825   9.377  17.441   6.336 -0.0509  0.4097 -0.1064
  702POPI   C2B 9826   9.258  17.630   6.877  0.0509  0.3048  0.1150
  702POPI   C3B 9827   9.288  17.476   7.289  0.0800  0.2214  0.1593
  702POPI   C4B 9828   9.209  17.591   7.696  0.0215  0.1936 -0.2335
  703POPI    C1 9829   5.205  15.159   5.321  0.2134  0.2717 -0.2264
  703POPI    C2 9830   5.125  15.518   5.479 -0.0936  0.1692 -0.1414
  703POPI    C3 9831   5.367  15.489   5.162  0.1141  0.4271 -0.0110
  703POPI   PO4 9832   5.277  15.001   5.592  0.1453  0.0526  0.0101
  703POPI   GL1 9833   5.262  14.877   5.996 -0.0757  0.1325  0.0277
  703POPI   GL2 9834   5.020  14.666   6.086 -0.2617 -0.0675  0.0975
  703POPI   C1A 9835   5.604  15.208   6.085 -0.0232  0.0057  0.0888
  703POPI   D2A 9836   6.011  15.497   6.149  0.1129 -0.0735  0.1540
  703POPI   C3A 9837   6.001  15.898   6.503  0.1250 -0.0744 -0.1777
  703POPI   C4A 9838   5.980  15.857   6.875 -0.2842 -0.2207  0.0177
  703POPI   C1B 9839   4.988  14.460   6.440  0.0650 -0.5115 -0.0660
  703POPI   C2B 9840   5.190  14.256   6.804  0.1054 -0.0202  0.0064
  703POPI   C3B 9841   5.104  14.161   7.185 -0.0423 -0.1062  0.2634
  703POPI   C4B 9842   5.087  14.173   7.554  0.0609 -0.1035  0.1448
  704POPI    C1 9843  17.056   4.618   5.445  0.0696 -0.0192  0.2396
  704POPI    C2 9844  16.796   4.901   5.335  0.0407 -0.1456 -0.0238
  704POPI    C3 9845  16.719   4.516   5.256  0.3213 -0.1817 -0.1332
  704POPI   PO4 9846  17.085   4.787   5.714  0.2451 -0.0416 -0.4102
  704POPI   GL1 9847  17.122   4.541   6.069  0.0779 -0.6437  0.2591
  704POPI   GL2 9848  17.257   4.325   6.067  0.1014 -0.3916  0.3516
  704POPI   C1A 9849  16.878   4.783   6.397 -0.3356 -0.0898 -0.0005
  704POPI   D2A 9850  16.822   4.854   6.754 -0.1067  0.0293  0.3561
  704POPI   C3A 9851  16.921   5.145   7.048  0.1338  0.1711 -0.2249
  704POPI   C4A 9852  17.094   5.209   7.546  0.0316 -0.3799 -0.1398
  704POPI   C1B 9853  17.092   4.312   6.495 -0.1218 -0.2184 -0.2950
  704POPI   C2B 9854  17.048   4.333   6.939  0.0202 -0.0965  0.2310
  704POPI   C3B 9855  17.055   4.570   7.359  0.1061 -0.0545 -0.0376
  704POPI   C4B 9856  16.776   4.871   7.551  0.2097  0.1479  0.1794
  705POPI    C1 9857   1.681   6.309   4.941  0.1363  0.1335 -0.0004
  705POPI    C2 9858   1.568   6.690   4.986  0.1047  0.0894  0.3128
  705POPI    C3 9859   1.302   6.395   5.034  0.1711  0.0199  0.2566
  705POPI   PO4 9860   2.051   6.409   5.025  0.0618 -0.0241 -0.4638
  705POPI   GL1 9861   2.258   6.317   5.348 -0.4128 -0.0616 -0.3851
  705POPI   GL2 9862   2.312   6.685   5.345  0.3455 -0.2977  0.3214
  705POPI   C1A 9863   2.256   6.296   5.814  0.1206 -0.2742  0.0851
  705POPI   D2A 9864   2.351   6.263   6.208 -0.1273  0.3916 -0.0064
  705POPI   C3A 9865   1.923   6.325   6.477  0.3003  0.0054  0.0653
  705POPI   C4A 9866   1.876   6.531   6.896  0.0349  0.0326  0.1096
  705POPI   C1B 9867   2.420   6.776   5.882  0.2093  0.0214 -0.0949
  705POPI   C2B 9868   2.419   6.736   6.237 -0.4382 -0.1317  0.2760
  705POPI   C3B 9869   2.326   6.517   6.646 -0.1404 -0.1650 -0.1193
  705POPI   C4B 9870   2.372   6.338   6.951 -0.2836 -0.0266 -0.0491
  706POPI    C1 9871  11.357  11.374   5.270  0.1656  0.2322  0.3204
  706POPI    C2 9872  11.659  11.280   5.514  0.1735 -0.2815  0.1243
  706POPI    C3 9873  11.664  11.158   5.133 -0.2487 -0.2383  0.1007
  706POPI   PO4 9874  11.154  11.544   5.548 -0.3091  0.1943 -0.1021
  706POPI   GL1 9875  11.102  11.426   6.009  0.1533 -0.2428 -0.1780
  706POPI   GL2 9876  10.863  11.235   6.235 -0.3383 -0.1874  0.0219
  706POPI   C1A 9877  11.415  11.348   6.368 -0.0292  0.2816 -0.2024
  706POPI   D2A 9878  11.642  11.001   6.573 -0.1155  0.2943 -0.2148
  706POPI   C3A 9879  11.592  10.973   7.004  0.0135  0.2113  0.1323
  706POPI   C4A 9880  11.351  10.963   7.332  0.2478 -0.1404  0.0188
  706POPI   C1B 9881  10.700  11.094   6.675 -0.1250 -0.0886  0.0868
  706POPI   C2B 9882  10.471  10.772   6.925  0.3162 -0.1396 -0.1118
  706POPI   C3B 9883  10.135  10.857   7.039  0.0238  0.0205 -0.0808
  706POPI   C4B 9884   9.715  10.990   7.000  0.0439  0.0227 -0.0090
  707POPI    C1 9885  10.656  12.335   5.516 -0.0845 -0.3630 -0.1837
  707POPI    C2 9886  10.400  12.585   5.695  0.3278 -0.0351 -0.0360
  707POPI    C3 9887  10.464  12.613   5.301  0.0612 -0.1885 -0.0920
  707POPI   PO4 9888  10.873  12.325   5.687 -0.0913 -0.0655  0.1679
  707POPI   GL1 9889  10.871  12.253   6.181 -0.5385 -0.0427  0.3454
  707POPI   GL2 9890  10.501  12.237   6.050 -0.2224  0.2259  0.2618
  707POPI   C1A 9891  10.725  12.400   6.568 -0.0521  0.1369 -0.0849
  707POPI   D2A 9892  10.605  12.532   7.038 -0.1261 -0.5402 -0.1954
  707POPI   C3A 9893  10.427  12.722   7.405 -0.1483 -0.3686 -0.0501
  707POPI   C4A 9894  10.379  12.910   7.846  0.0982  0.2036 -0.1044
  707POPI   C1B 9895  10.264  12.466   6.380 -0.1321 -0.0251 -0.5475
  707POPI   C2B 9896  10.250  12.827   6.575  0.2919 -0.0562 -0.0369
  707POPI   C3B 9897  10.174  12.832   6.973  0.5309 -0.2256 -0.2084
  707POPI   C4B 9898   9.945  12.743   7.369  0.0412 -0.1831 -0.0177
  708POPI    C1 9899  18.569   4.590   5.640 -0.0000 -0.2514  0.0719
  708POPI    C2 9900  18.414   4.354   5.357 -0.1483  0.0774 -0.1273
  708POPI    C3 9901  18.542   4.721   5.263  0.0810  0.0790  0.1774
  708POPI   PO4 9902  18.511   4.557   5.890 -0.0644  0.2242 -0.0970
  708POPI   GL1 9903  18.334   4.402   6.393 -0.0717 -0.0430 -0.1683
  708POPI   GL2 9904  18.516   4.133   6.495  0.1317  0.1813 -0.0238
  708POPI   C1A 9905  18.116   4.329   6.734  0.1103  0.0040 -0.2464
  708POPI   D2A 9906  17.971   4.374   7.113 -0.0060 -0.5802  0.0182
  708POPI   C3A 9907  18.113   4.578   7.392  0.3499 -0.0759  0.2412
  708POPI   C4A 9908  18.279   4.558   7.700  0.2411  0.2067  0.1101
  708POPI   C1B 9909  18.621   4.037   6.783  0.2982 -0.0766 -0.0366
  708POPI   C2B 9910  18.594   3.949   7.114  0.2608 -0.0969 -0.0191
  708POPI   C3B 9911  18.891   4.144   7.359 -0.1863  0.0414  0.2743
  708POPI   C4B 9912  18.704   4.306   7.649 -0.0439 -0.2461 -0.2353
  709POPI    C1 9913   8.578   6.639   4.952 -0.1625  0.2762  0.0145
  709POPI    C2 9914   8.878   6.806   5.158 -0.1526  0.1019  0.1434
  709POPI    C3 9915   8.911   6.755   4.763 -0.0923  0.2601  0.1272
  709POPI   PO4 9916   8.366   6.767   5.211  0.0922  0.3088 -0.1562
  709POPI   GL1 9917   8.215   6.848   5.620  0.0297  0.2432 -0.0549
  709POPI   GL2 9918   8.003   6.648   5.916  0.0875  0.2435 -0.2118
  709POPI   C1A 9919   8.494   6.922   5.914 -0.1485 -0.2180 -0.2826
  709POPI   D2A 9920   8.323   7.158   6.096 -0.4763  0.1630  0.4883
  709POPI   C3A 9921   8.384   7.238   6.512  0.1603  0.4175 -0.0581
  709POPI   C4A 9922   8.632   7.454   6.845  0.0563 -0.1416 -0.3856
  709POPI   C1B 9923   8.037   6.852   6.262  0.2115  0.0362  0.2270
  709POPI   C2B 9924   7.986   6.943   6.665  0.3712 -0.0483 -0.0751
  709POPI   C3B 9925   8.196   7.188   6.953  0.2096  0.4322  0.0055
  709POPI   C4B 9926   8.070   7.507   7.223 -0.2685  0.0625 -0.0372
  710POPI    C1 9927   3.381   7.730   5.324 -0.0006 -0.0854  0.1714
  710POPI    C2 9928   3.724   7.715   5.529  0.0459  0.0129  0.1016
  710POPI    C3 9929   3.469   7.407   5.543  0.1419 -0.0654  0.1447
  710POPI   PO4 9930   3.284   8.048   5.347  0.2373  0.1583 -0.3053
  710POPI   GL1 9931   3.224   8.276   5.736  0.0983  0.0993  0.2536
  710POPI   GL2 9932   3.401   7.984   5.833  0.0267 -0.1052  0.0949
  710POPI   C1A 9933   2.985   8.061   6.076 -0.2342  0.2301  0.2708
  710POPI   D2A 9934   2.985   7.981   6.552 -0.0500  0.0193  0.1623
  710POPI   C3A 9935   3.118   7.749   6.936  0.0230 -0.1288 -0.0762
  710POPI   C4A 9936   3.153   7.644   7.344 -0.0734  0.1184  0.0187
  710POPI   C1B 9937   3.467   7.983   6.296 -0.0061  0.0661  0.1461
  710POPI   C2B 9938   3.443   7.717   6.556  0.3797  0.0582  0.1526
  710POPI   C3B 9939   3.721   7.420   6.647  0.0476 -0.0150  0.3222
  710POPI   C4B 9940   4.067   7.223   6.638  0.4291 -0.0589 -0.0246
  711POPI    C1 9941   1.057  14.040   5.888  0.0098 -0.0093  0.0901
  711POPI    C2 9942   0.748  13.814   5.773 -0.2368  0.3513  0.0269
  711POPI    C3 9943   0.689  14.120   6.023  0.1268  0.2208  0.2807
  711POPI   PO4 9944   1.297  13.826   5.953  0.0579 -0.0070 -0.1495
  711POPI   GL1 9945   1.526  13.933   6.381 -0.2412 -0.1080 -0.2257
  711POPI   GL2 9946   1.639  14.242   6.272  0.0804  0.3879  0.0038
  711POPI   C1A 9947   1.752  14.029   6.797  0.1011  0.0956 -0.0904
  711POPI   D2A 9948   1.787  13.932   7.267 -0.1144  0.0308  0.0962
  711POPI   C3A 9949   1.893  13.955   7.692  0.0543  0.1114  0.0059
  711POPI   C4A 9950   1.842  13.822   8.135 -0.0633 -0.2638 -0.2360
  711POPI   C1B 9951   1.546  14.466   6.671  0.0924  0.0566  0.0843
  711POPI   C2B 9952   1.624  14.559   7.068  0.0813  0.0663  0.3577
  711POPI   C3B 9953   1.644  14.419   7.401 -0.0005 -0.0456 -0.0695
  711POPI   C4B 9954   1.467  14.369   7.867  0.0946 -0.1580  0.3631
  712POPI    C1 9955   8.724  14.414   5.378 -0.2840  0.3913 -0.2877
  712POPI    C2 9956   8.568  14.053   5.309 -0.0665  0.2406 -0.0108
  712POPI    C3 9957   8.765  14.244   5.018  0.0811  0.0010 -0.0710
  712POPI   PO4 9958   8.766  14.495   5.672 -0.2424  0.4170 -0.1445
  712POPI   GL1 9959   8.910  14.482   6.047  0.1365 -0.0747  0.0576
  712POPI   GL2 9960   8.500  14.503   6.109 -0.0518 -0.0633 -0.2292
  712POPI   C1A 9961   8.951  14.375   6.448  0.3750 -0.2025 -0.0221
  712POPI   D2A 9962   8.964  14.347   6.850  0.4153  0.2116 -0.1101
  712POPI   C3A 9963   9.049  14.472   7.305  0.1500 -0.1207 -0.1568
  712POPI   C4A 9964   8.865  14.520   7.808  0.0628  0.3778  0.2116
  712POPI   C1B 9965   8.564  14.723   6.593 -0.1141  0.0035  0.0056
  712POPI   C2B 9966   8.612  14.799   7.033  0.1717  0.3002 -0.0546
  712POPI   C3B 9967   8.578  15.050   7.352  0.1932  0.1057  0.4460
  712POPI   C4B 9968   8.512  15.134   7.766 -0.2050 -0.2171 -0.1317
  713POPI    C1 9969  12.864  11.134   6.123  0.4595 -0.1507  0.1630
  713POPI    C2 9970  12.953  11.317   5.779 -0.1240 -0.0316  0.0649
  713POPI    C3 9971  13.005  10.922   5.815  0.0932 -0.0203 -0.1016
  713POPI   PO4 9972  12.589  11.286   6.261  0.0613  0.1157 -0.0728
  713POPI   GL1 9973  12.331  11.165   6.619  0.3438  0.3545 -0.1125
  713POPI   GL2 9974  12.143  10.961   6.769  0.0055 -0.0197  0.2902
  713POPI   C1A 9975  12.324  11.421   6.962 -0.0736 -0.0882  0.0875
  713POPI   D2A 9976  12.253  11.471   7.327 -0.1454  0.2076 -0.2467
  713POPI   C3A 9977  12.246  11.818   7.698  0.1767  0.0885  0.0731
  713POPI   C4A 9978  12.417  12.156   7.941  0.0695  0.1209 -0.0921
  713POPI   C1B 9979  12.052  11.019   7.154 -0.3642 -0.0771 -0.3225
  713POPI   C2B 9980  12.099  11.043   7.528  0.3824 -0.1190 -0.2100
  713POPI   C3B 9981  12.181  11.245   7.775 -0.2329 -0.1487 -0.0614
  713POPI   C4B 9982  12.392  11.301   8.106  0.0014 -0.0251  0.0187
  714POPI    C1 9983  11.008  16.163   5.754  0.1098  0.1368  0.0109
  714POPI    C2 9984  11.075  16.270   5.374 -0.0789 -0.3908 -0.1808
  714POPI    C3 9985  11.319  16.010   5.555  0.3697  0.3133  0.2746
  714POPI   PO4 9986  11.008  16.439   5.893  0.1026 -0.0473  0.0944
  714POPI   GL1 9987  11.005  16.354   6.346  0.1618 -0.1175 -0.2330
  714POPI   GL2 9988  10.834  16.146   6.253  0.3142 -0.0731  0.1269
  714POPI   C1A 9989  10.996  16.234   6.811  0.0111  0.1218 -0.1925
  714POPI   D2A 9990  10.980  16.045   7.168  0.1236 -0.1273 -0.0239
  714POPI   C3A 9991  11.121  16.402   7.419  0.0056 -0.1834  0.3145
  714POPI   C4A 9992  11.562  16.406   7.688 -0.1025 -0.2245 -0.3148
  714POPI   C1B 9993  10.621  15.819   6.507  0.0934 -0.0126  0.4822
  714POPI   C2B 9994  10.677  15.745   6.897  0.0591  0.0520  0.5560
  714POPI   C3B 9995  10.418  15.578   7.269  0.0542 -0.2436  0.0427
  714POPI   C4B 9996  10.273  15.664   7.647 -0.1737  0.0891 -0.0315
  715POPI    C1 9997   4.348   1.643   5.462  0.0301 -0.0566 -0.0432
  715POPI    C2 9998   4.212   1.363   5.212 -0.0416 -0.0874  0.0302
  715POPI    C3 9999   4.572   1.322   5.380  0.0889  0.0269 -0.2163
  715POPI   PO410000   4.101   1.623   5.763 -0.4374 -0.1798 -0.0590
  715POPI   GL110001   4.154   1.851   6.043 -0.0485  0.1556 -0.3719
  715POPI   GL210002   4.013   1.894   6.280  0.3461  0.0210 -0.1936
  715POPI   C1A10003   4.482   1.905   6.361 -0.0934 -0.1001 -0.1784
  715POPI   D2A10004   4.819   1.927   6.559  0.0149  0.0280  0.0035
  715POPI   C3A10005   4.819   1.669   6.918 -0.2136  0.0849 -0.3089
  715POPI   C4A10006   4.876   1.232   7.116  0.2774  0.2366  0.4628
  715POPI   C1B10007   3.930   2.181   6.627 -0.0441 -0.1149  0.1836
  715POPI   C2B10008   3.715   2.494   6.957  0.2483 -0.2246  0.0178
  715POPI   C3B10009   3.731   2.660   7.357  0.3126  0.0449 -0.1232
  715POPI   C4B10010   3.621   2.406   7.699  0.0649 -0.3132  0.1160
  716POPI    C110011  12.479  12.277   5.443  0.2523 -0.1220 -0.0468
  716POPI    C210012  12.204  11.989   5.398 -0.0204  0.1098  0.1041
  716POPI    C310013  12.269  12.251   5.103 -0.0489  0.1288  0.1145
  716POPI   PO410014  12.562  12.153   5.695  0.0498 -0.1357 -0.1033
  716POPI   GL110015  12.369  12.062   6.090 -0.2326 -0.1178 -0.2995
  716POPI   GL210016  12.167  11.831   6.259 -0.1288 -0.1891  0.0626
  716POPI   C1A10017  12.635  11.866   6.470 -0.1621 -0.0494  0.1891
  716POPI   D2A10018  12.838  11.559   6.682  0.2157  0.2266 -0.0856
  716POPI   C3A10019  12.779  11.527   7.111 -0.0147 -0.0403 -0.0544
  716POPI   C4A10020  12.675  11.477   7.676  0.0561 -0.0994 -0.3200
  716POPI   C1B10021  12.171  12.039   6.655  0.0938  0.2048 -0.0392
  716POPI   C2B10022  12.352  11.911   6.983  0.1013 -0.1165 -0.2578
  716POPI   C3B10023  12.657  11.895   7.435  0.0538 -0.3070  0.1110
  716POPI   C4B10024  12.901  12.143   7.648 -0.0496  0.0618 -0.0918
  717POPI    C110025  11.803  15.333   5.499  0.1423  0.1148 -0.2818
  717POPI    C210026  11.585  15.549   5.755  0.1179 -0.1591 -0.0674
  717POPI    C310027  11.663  15.692   5.390 -0.3321 -0.0107 -0.1125
  717POPI   PO410028  11.979  15.247   5.627 -0.2682  0.0674  0.3658
  717POPI   GL110029  12.067  15.578   6.008 -0.3394  0.1415 -0.0358
  717POPI   GL210030  12.125  15.949   6.063 -0.0057  0.3025 -0.0478
  717POPI   C1A10031  11.713  15.334   6.225  0.3570 -0.0742 -0.0146
  717POPI   D2A10032  11.390  15.139   6.519 -0.2160 -0.0189  0.1070
  717POPI   C3A10033  11.344  14.954   6.986  0.0226  0.2502 -0.1623
  717POPI   C4A10034  11.376  14.525   7.137 -0.0859  0.2492 -0.1198
  717POPI   C1B10035  12.349  15.714   6.462 -0.2800  0.2069 -0.0729
  717POPI   C2B10036  12.390  15.465   6.901 -0.0781 -0.2582  0.1135
  717POPI   C3B10037  12.126  15.251   7.241  0.0600 -0.1681  0.0520
  717POPI   C4B10038  11.883  15.254   7.554 -0.2418  0.0946 -0.4291
  718POPI    C110039   7.617  12.562   5.125 -0.2526  0.0138 -0.0622
  718POPI    C210040   7.706  12.947   5.188  0.1472 -0.1177  0.2223
  718POPI    C310041   7.708  12.799   4.816 -0.0518  0.1605  0.1066
  718POPI   PO410042   7.390  12.562   5.264 -0.2568  0.3219 -0.0072
  718POPI   GL110043   7.459  12.720   5.642 -0.0066  0.1320  0.2783
  718POPI   GL210044   7.299  13.083   5.474 -0.1918 -0.1416 -0.2178
  718POPI   C1A10045   7.606  12.751   6.085  0.1684  0.2677  0.1441
  718POPI   D2A10046   7.733  12.626   6.458  0.1465 -0.2011 -0.1206
  718POPI   C3A10047   7.587  12.577   6.861  0.1207 -0.0284  0.4444
  718POPI   C4A10048   7.501  12.573   7.295 -0.0478  0.1835  0.1679
  718POPI   C1B10049   7.264  13.121   5.952  0.0594  0.0904  0.2976
  718POPI   C2B10050   7.131  13.076   6.440 -0.1293 -0.2723 -0.0984
  718POPI   C3B10051   7.383  13.012   6.721  0.0503  0.0033  0.0187
  718POPI   C4B10052   7.500  13.103   7.150  0.0583 -0.1681  0.0555
  719POPI    C110053  10.600   1.082   5.406  0.0832 -0.2709  0.2512
  719POPI    C210054  10.274   0.857   5.349 -0.0339 -0.0347 -0.0391
  719POPI    C310055  10.508   0.951   5.039  0.0019  0.2591  0.0740
  719POPI   PO410056  10.670   1.003   5.743  0.0741  0.2589  0.3036
  719POPI   GL110057  10.653   0.767   6.079 -0.0957  0.4570  0.0863
  719POPI   GL210058  10.992   0.942   6.167 -0.0669 -0.2246 -0.3759
  719POPI   C1A10059  10.523   0.756   6.591 -0.4108  0.0549  0.1864
  719POPI   D2A10060  10.642   0.729   6.960 -0.1837  0.1716 -0.1131
  719POPI   C3A10061  10.345   0.431   7.042  0.1132  0.3328  0.0689
  719POPI   C4A10062  10.164   0.184   6.914  0.1272 -0.0519 -0.0848
  719POPI   C1B10063  11.058   0.742   6.536 -0.1869 -0.1715 -0.2566
  719POPI   C2B10064  11.175   0.788   6.967  0.3758 -0.1091 -0.1312
  719POPI   C3B10065  11.261   0.862   7.343  0.3402  0.0905  0.0252
  719POPI   C4B10066  11.532   0.955   7.740 -0.0349 -0.1471 -0.3530
  720POPI    C110067  18.730   9.765   5.454 -0.2218 -0.1845  0.0192
  720POPI    C210068  19.072   9.664   5.272 -0.2383 -0.1977 -0.0045
  720POPI    C310069  18.735   9.703   5.059 -0.1702  0.2090 -0.0467
  720POPI   PO410070  18.784   9.622   5.712 -0.3099 -0.3891  0.3013
  720POPI   GL110071  19.043   9.511   6.077  0.2046 -0.0378 -0.3212
  720POPI   GL210072  19.047   9.922   6.088  0.2046 -0.3090  0.0878
  720POPI   C1A10073  18.995   9.565   6.597 -0.0494 -0.2639  0.3067
  720POPI   D2A10074  19.203   9.414   6.928 -0.2604  0.2024 -0.1757
  720POPI   C3A10075  19.257   9.383   7.344 -0.3357  0.2808 -0.2879
  720POPI   C4A10076  19.193   9.081   7.725 -0.1495 -0.1715  0.1753
  720POPI   C1B10077  18.835  10.073   6.551 -0.3927  0.0222 -0.0797
  720POPI   C2B10078  18.559  10.459   6.758 -0.0723  0.4131  0.0242
  720POPI   C3B10079  18.341  10.572   7.129 -0.0527 -0.0462 -0.2742
  720POPI   C4B10080  18.207  10.753   7.583  0.0584 -0.0224  0.2573
  721POPI    C110081   9.095   2.157   5.449 -0.0039 -0.2834  0.0134
  721POPI    C210082   9.347   2.436   5.586 -0.1632 -0.1617  0.0617
  721POPI    C310083   9.324   2.363   5.194  0.0426 -0.2675  0.0677
  721POPI   PO410084   8.886   2.204   5.715 -0.1995 -0.4399 -0.1344
  721POPI   GL110085   8.769   1.952   6.005  0.2247 -0.1127  0.2410
  721POPI   GL210086   8.522   1.771   5.971  0.0646 -0.2545  0.3152
  721POPI   C1A10087   8.637   1.824   6.414 -0.2999  0.0026  0.0730
  721POPI   D2A10088   8.527   1.480   6.799  0.0859  0.1454  0.0802
  721POPI   C3A10089   8.503   1.735   7.293  0.0551 -0.1845 -0.3457
  721POPI   C4A10090   8.466   1.670   7.720 -0.1549 -0.3527  0.1535
  721POPI   C1B10091   8.166   1.908   6.311 -0.1518  0.1783  0.1004
  721POPI   C2B10092   8.101   1.889   6.821 -0.1483  0.1613 -0.1977
  721POPI   C3B10093   8.065   2.191   7.121  0.0499 -0.0102 -0.1859
  721POPI   C4B10094   8.115   2.542   7.412 -0.0448 -0.1319  0.5245
  722POPI    C110095   2.300   7.088   5.074 -0.0052 -0.1389  0.1036
  722POPI    C210096   2.313   7.173   4.684 -0.0624 -0.0858  0.1131
  722POPI    C310097   2.052   6.903   4.821 -0.0754 -0.0693  0.1210
  722POPI   PO410098   2.627   7.020   5.182 -0.0205 -0.0147 -0.0790
  722POPI   GL110099   2.749   7.056   5.576  0.4442 -0.4864 -0.0721
  722POPI   GL210100   2.606   7.341   5.558  0.1426  0.0020 -0.3318
  722POPI   C1A10101   3.013   7.125   5.751 -0.1303 -0.2149 -0.2343
  722POPI   D2A10102   3.014   7.043   6.133  0.2665  0.3156 -0.0011
  722POPI   C3A10103   3.413   7.257   6.200 -0.3296 -0.1683 -0.0753
  722POPI   C4A10104   3.615   7.557   6.033  0.1839  0.2055  0.1059
  722POPI   C1B10105   2.539   7.242   5.996  0.0916  0.2058 -0.0187
  722POPI   C2B10106   2.396   7.191   6.448  0.0940 -0.3127 -0.2014
  722POPI   C3B10107   2.411   6.940   6.937 -0.0945  0.0113 -0.0979
  722POPI   C4B10108   2.175   6.707   7.208 -0.2341 -0.1258 -0.2047
  723POPI    C110109   9.089   9.936   4.946  0.1280 -0.0161  0.1745
  723POPI    C210110   8.858  10.208   4.765  0.0307 -0.1389  0.1132
  723POPI    C310111   9.241  10.292   4.844 -0.0358  0.0683  0.2214
  723POPI   PO410112   8.919   9.905   5.186  0.2357 -0.1582 -0.0246
  723POPI   GL110113   8.779  10.058   5.605 -0.0790 -0.2939  0.0071
  723POPI   GL210114   8.496  10.085   5.636  0.0099  0.0692  0.2547
  723POPI   C1A10115   8.655   9.671   5.942  0.0598  0.0359 -0.1195
  723POPI   D2A10116   8.797   9.594   6.427 -0.0783 -0.2066 -0.3620
  723POPI   C3A10117   8.489   9.595   6.810  0.0663 -0.1950 -0.1820
  723POPI   C4A10118   8.394   9.841   7.132  0.2064  0.0590  0.0084
  723POPI   C1B10119   8.475  10.258   6.106  0.0848 -0.0641  0.0801
  723POPI   C2B10120   8.402  10.450   6.572 -0.1963  0.0637  0.0088
  723POPI   C3B10121   8.371  10.308   6.972 -0.1137  0.1483 -0.0891
  723POPI   C4B10122   8.346  10.393   7.379 -0.0044 -0.3213 -0.0181
  724POPI    C110123  17.313   4.233   5.365 -0.3410 -0.0279 -0.0438
  724POPI    C210124  17.343   3.890   5.162  0.0018 -0.0527  0.0431
  724POPI    C310125  17.102   4.180   5.030 -0.0378 -0.1985 -0.2121
  724POPI   PO410126  17.174   4.070   5.617  0.0380  0.0744  0.0927
  724POPI   GL110127  16.763   4.282   5.722 -0.0208  0.1307 -0.3018
  724POPI   GL210128  16.612   4.568   5.803  0.0797 -0.0386  0.1623
  724POPI   C1A10129  16.805   4.184   6.103 -0.0793  0.1346  0.4289
  724POPI   D2A10130  16.793   3.918   6.600  0.4403  0.0888  0.1596
  724POPI   C3A10131  16.761   3.944   6.948 -0.0000  0.1340  0.1736
  724POPI   C4A10132  16.592   4.147   7.358  0.0878 -0.0116 -0.1176
  724POPI   C1B10133  16.474   4.480   6.258  0.1422 -0.1725  0.0573
  724POPI   C2B10134  16.619   4.418   6.718  0.0548  0.0017  0.0183
  724POPI   C3B10135  16.516   4.540   7.044 -0.2838 -0.1991 -0.1663
  724POPI   C4B10136  16.208   4.455   7.389 -0.0271 -0.3870 -0.3207
  725POPI    C110137  17.245  12.806   5.941 -0.1504  0.1121  0.2335
  725POPI    C210138  17.077  13.121   5.760  0.0358  0.0211 -0.1046
  725POPI    C310139  17.469  13.052   5.720 -0.0172 -0.2989 -0.1012
  725POPI   PO410140  16.981  12.712   6.056  0.0704 -0.1374 -0.0760
  725POPI   GL110141  16.962  12.630   6.564  0.0708  0.0892 -0.0255
  725POPI   GL210142  17.243  12.657   6.569 -0.5160 -0.0196  0.0147
  725POPI   C1A10143  16.927  12.784   6.930 -0.1851 -0.4908 -0.0722
  725POPI   D2A10144  16.975  13.183   7.266  0.0030 -0.1126 -0.1185
  725POPI   C3A10145  16.865  13.243   7.688 -0.0410  0.0797 -0.2953
  725POPI   C4A10146  16.821  13.483   8.018 -0.2350 -0.4635 -0.2386
  725POPI   C1B10147  17.331  12.154   6.550 -0.0951  0.2996  0.1680
  725POPI   C2B10148  17.341  11.791   6.987 -0.0658  0.4620  0.0482
  725POPI   C3B10149  17.244  12.015   7.408  0.1624  0.0938  0.0883
  725POPI   C4B10150  16.928  11.998   7.810 -0.4643  0.4529  0.0580
  726POPI    C110151   3.882  13.930   5.552  0.3285 -0.1424 -0.2379
  726POPI    C210152   4.038  14.180   5.282 -0.0047  0.2646 -0.0657
  726POPI    C310153   3.641  14.152   5.323  0.0291 -0.2342 -0.0190
  726POPI   PO410154   3.984  13.925   5.751 -0.0189 -0.3629  0.2636
  726POPI   GL110155   3.980  14.119   6.133  0.0382  0.0289  0.0227
  726POPI   GL210156   3.658  14.296   6.124  0.4454 -0.1334  0.2455
  726POPI   C1A10157   4.188  14.206   6.543 -0.2898 -0.1484  0.1153
  726POPI   D2A10158   4.098  14.446   6.900  0.1455 -0.1366  0.0838
  726POPI   C3A10159   3.693  14.396   7.147  0.1307  0.0658  0.1020
  726POPI   C4A10160   3.167  14.626   7.113  0.1575 -0.5792  0.6377
  726POPI   C1B10161   3.721  14.246   6.552  0.2465 -0.2281 -0.1785
  726POPI   C2B10162   3.859  13.989   6.960  0.1529  0.0969 -0.1951
  726POPI   C3B10163   4.110  13.731   7.243  0.1292  0.0048  0.2781
  726POPI   C4B10164   4.028  13.297   7.389 -0.1590 -0.0971  0.0434
  727POPI    C110165   8.036  14.215   5.393  0.1389  0.1393 -0.0675
  727POPI    C210166   7.764  13.952   5.524  0.1096  0.1342 -0.1383
  727POPI    C310167   8.109  13.823   5.367 -0.0355  0.1278 -0.4609
  727POPI   PO410168   7.848  14.409   5.400 -0.1726  0.0199 -0.2186
  727POPI   GL110169   7.799  14.625   5.705 -0.0292  0.0223 -0.2583
  727POPI   GL210170   7.942  14.372   5.941  0.1002 -0.0257  0.0842
  727POPI   C1A10171   7.641  15.012   5.684  0.1040  0.0503  0.2839
  727POPI   D2A10172   7.578  15.269   6.073  0.2145 -0.1536 -0.0662
  727POPI   C3A10173   7.478  15.704   6.050  0.0782 -0.1268 -0.2309
  727POPI   C4A10174   7.037  15.855   6.225 -0.0134 -0.1301  0.0554
  727POPI   C1B10175   7.962  14.342   6.382 -0.0383  0.1195  0.0141
  727POPI   C2B10176   8.074  14.715   6.741 -0.0969 -0.1709 -0.3941
  727POPI   C3B10177   8.241  15.079   6.671  0.1929 -0.1710  0.1116
  727POPI   C4B10178   8.324  15.358   7.028  0.2196  0.0499  0.1276
  728POPI    C110179   3.208   5.177   5.373 -0.1119 -0.0161 -0.1777
  728POPI    C210180   3.070   4.844   5.547 -0.1255  0.0477 -0.0652
  728POPI    C310181   3.125   4.855   5.151 -0.3201 -0.0214 -0.0951
  728POPI   PO410182   3.115   5.404   5.597 -0.0594  0.4718 -0.1655
  728POPI   GL110183   3.056   5.442   5.983 -0.0994  0.0196  0.1657
  728POPI   GL210184   2.751   5.611   5.855  0.3683  0.2580 -0.0760
  728POPI   C1A10185   3.095   5.508   6.383 -0.1353 -0.1200  0.0610
  728POPI   D2A10186   3.124   5.676   6.782  0.1940  0.3825 -0.2080
  728POPI   C3A10187   2.964   5.937   7.146 -0.0658  0.3432  0.0486
  728POPI   C4A10188   2.729   6.213   7.333 -0.1634 -0.1772  0.1251
  728POPI   C1B10189   2.569   5.718   6.169  0.0082 -0.1991  0.1248
  728POPI   C2B10190   2.751   5.977   6.432 -0.0057 -0.0515 -0.0780
  728POPI   C3B10191   2.921   6.132   6.695 -0.2750  0.0307 -0.3152
  728POPI   C4B10192   2.989   6.462   6.905 -0.0703 -0.1289  0.1829
  729POPI    C110193   5.821  11.456   4.870  0.1746  0.1378  0.1387
  729POPI    C210194   6.163  11.448   4.664  0.1117 -0.0352  0.0388
  729POPI    C310195   5.990  11.798   4.752  0.2819  0.0502  0.0371
  729POPI   PO410196   5.849  11.263   5.025 -0.0549 -0.0908 -0.0975
  729POPI   GL110197   5.988  11.302   5.381 -0.0945 -0.0998 -0.3175
  729POPI   GL210198   6.308  11.379   5.559  0.0391  0.0558 -0.1389
  729POPI   C1A10199   5.853  11.261   5.841 -0.3134 -0.0714  0.1073
  729POPI   D2A10200   6.208  11.387   6.104  0.1103  0.1251 -0.1149
  729POPI   C3A10201   6.178  11.691   6.510 -0.1117  0.0494 -0.0114
  729POPI   C4A10202   6.471  11.768   6.833 -0.0990 -0.2884  0.0985
  729POPI   C1B10203   6.575  11.602   5.822 -0.3010  0.0264  0.0031
  729POPI   C2B10204   6.533  11.797   6.184  0.0735 -0.2149 -0.1426
  729POPI   C3B10205   6.453  12.149   6.445  0.0468 -0.2480  0.2559
  729POPI   C4B10206   6.236  12.401   6.599 -0.2114 -0.1677  0.2146
  730POPI    C110207   2.733   1.848   6.016  0.0707  0.1487 -0.1692
  730POPI    C210208   2.809   1.505   5.826 -0.0626  0.0128  0.0190
  730POPI    C310209   2.580   1.784   5.652 -0.0250 -0.0292 -0.0987
  730POPI   PO410210   2.712   1.783   6.309  0.1916 -0.2758 -0.0484
  730POPI   GL110211   2.857   1.891   6.608 -0.0156 -0.1705  0.0215
  730POPI   GL210212   2.676   2.251   6.647 -0.1156  0.2885  0.1484
  730POPI   C1A10213   3.105   1.756   6.934  0.1496 -0.1897 -0.0534
  730POPI   D2A10214   3.083   1.584   7.411 -0.2055 -0.0815 -0.0448
  730POPI   C3A10215   3.163   1.820   7.831  0.3142  0.2702  0.1106
  730POPI   C4A10216   3.027   1.833   8.200  0.1909 -0.0356  0.1058
  730POPI   C1B10217   2.777   2.185   7.028  0.3206 -0.1100  0.0170
  730POPI   C2B10218   3.027   2.043   7.269  0.0519 -0.1032 -0.1211
  730POPI   C3B10219   3.448   1.993   7.419  0.0268  0.1316 -0.0409
  730POPI   C4B10220   3.715   1.904   7.716  0.3536 -0.1401 -0.1514
  731POPI    C110221   3.938  16.752   5.645  0.2708 -0.0495 -0.2674
  731POPI    C210222   3.709  16.684   5.324 -0.0132 -0.1300 -0.0510
  731POPI    C310223   3.853  17.051   5.392 -0.2990 -0.0153 -0.0499
  731POPI   PO410224   4.009  16.529   5.805  0.0408 -0.0957 -0.1116
  731POPI   GL110225   4.227  16.329   6.143  0.2850 -0.3079  0.2187
  731POPI   GL210226   4.123  16.028   6.143  0.0536 -0.2731 -0.2885
  731POPI   C1A10227   4.481  15.914   6.404  0.0559  0.1308 -0.0357
  731POPI   D2A10228   4.580  15.519   6.614  0.0638  0.1713  0.0694
  731POPI   C3A10229   4.517  15.477   7.032  0.3063  0.0390  0.2060
  731POPI   C4A10230   4.534  15.467   7.482 -0.0976 -0.0995 -0.1157
  731POPI   C1B10231   4.016  16.292   6.606  0.0619  0.1343  0.1762
  731POPI   C2B10232   4.111  16.461   6.954 -0.1820  0.3232 -0.0881
  731POPI   C3B10233   4.162  16.306   7.321  0.0396 -0.2606 -0.2548
  731POPI   C4B10234   4.334  16.152   7.712  0.1148  0.2147 -0.1227
  732POPI    C110235  12.964  13.063   5.737  0.0558  0.2965  0.0615
  732POPI    C210236  13.166  12.791   5.525 -0.1257  0.0530  0.1950
  732POPI    C310237  12.942  13.063   5.338  0.1419  0.1821  0.0560
  732POPI   PO410238  13.128  13.055   5.949 -0.0762 -0.2032  0.2435
  732POPI   GL110239  12.979  12.864   6.241  0.2478 -0.0173 -0.1392
  732POPI   GL210240  13.047  12.613   6.381 -0.1752 -0.0836 -0.0707
  732POPI   C1A10241  12.688  12.858   6.603 -0.2922  0.1571 -0.0134
  732POPI   D2A10242  12.583  12.961   6.947 -0.1879  0.1821 -0.2090
  732POPI   C3A10243  12.137  13.100   6.936 -0.1987 -0.0251  0.1721
  732POPI   C4A10244  11.880  13.493   7.025  0.0645  0.1928  0.2414
  732POPI   C1B10245  13.062  12.584   6.797  0.1342  0.2248 -0.0110
  732POPI   C2B10246  13.017  12.676   7.258 -0.2272  0.2492  0.2692
  732POPI   C3B10247  13.206  12.538   7.642  0.1174 -0.0157 -0.0760
  732POPI   C4B10248  13.002  12.368   8.026  0.0791 -0.0712 -0.4876
  733POPI    C110249   0.968   1.477   5.794 -0.0457  0.2197 -0.0646
  733POPI    C210250   1.028   1.523   5.401 -0.1253 -0.1273 -0.1204
  733POPI    C310251   0.656   1.492   5.544 -0.0943 -0.0581 -0.0240
  733POPI   PO410252   1.154   1.687   5.879  0.0820 -0.2281 -0.1858
  733POPI   GL110253   0.838   1.880   6.185  0.0504  0.2833 -0.2866
  733POPI   GL210254   0.880   1.479   6.332  0.2069  0.0051 -0.1216
  733POPI   C1A10255   1.114   1.984   6.562  0.2821 -0.1399 -0.2449
  733POPI   D2A10256   1.255   1.987   7.021 -0.0184  0.0103 -0.0929
  733POPI   C3A10257   1.156   1.891   7.417  0.3102  0.0572 -0.3063
  733POPI   C4A10258   0.887   1.752   7.763 -0.0210 -0.1521 -0.1624
  733POPI   C1B10259   0.477   1.663   6.526 -0.0128 -0.2502  0.0385
  733POPI   C2B10260   0.313   1.827   6.973  0.1409  0.0927  0.0201
  733POPI   C3B10261   0.451   1.781   7.457 -0.1861 -0.0918  0.1895
  733POPI   C4B10262   0.475   2.208   7.634 -0.2934 -0.1587 -0.0572
  734POPI    C110263  14.067   2.904   5.381 -0.1409  0.3281  0.1880
  734POPI    C210264  13.835   3.094   5.116 -0.0449  0.0945 -0.0675
  734POPI    C310265  14.219   3.198   5.156  0.0264 -0.0862 -0.2583
  734POPI   PO410266  13.851   2.793   5.539 -0.1036 -0.0830  0.1581
  734POPI   GL110267  13.915   2.460   5.832 -0.1777 -0.0926  0.1301
  734POPI   GL210268  13.772   2.150   5.968  0.2325 -0.1789  0.1019
  734POPI   C1A10269  14.204   2.198   6.170 -0.2404 -0.0088 -0.1532
  734POPI   D2A10270  14.143   1.770   6.391  0.0052 -0.0891  0.2170
  734POPI   C3A10271  14.051   1.642   6.840 -0.1382  0.1464 -0.1690
  734POPI   C4A10272  13.942   1.382   7.097 -0.1861  0.0157  0.0658
  734POPI   C1B10273  13.654   2.039   6.380 -0.0781  0.1025 -0.0616
  734POPI   C2B10274  13.534   2.011   6.723 -0.2039 -0.0768 -0.0666
  734POPI   C3B10275  13.746   2.016   7.241 -0.0428 -0.2382 -0.1703
  734POPI   C4B10276  14.106   1.955   7.318  0.2218 -0.0224 -0.2428
  735POPI    C110277  11.957   7.891   5.800  0.0053  0.2129  0.2197
  735POPI    C210278  11.767   7.915   5.449  0.0064 -0.1820  0.1867
  735POPI    C310279  12.164   7.868   5.458  0.0345  0.0523  0.2471
  735POPI   PO410280  11.717   8.108   5.937  0.1537 -0.1513  0.0581
  735POPI   GL110281  11.671   8.213   6.288 -0.1719 -0.1589 -0.2556
  735POPI   GL210282  11.586   7.851   6.397 -0.2078 -0.1891 -0.0801
  735POPI   C1A10283  11.561   8.407   6.615  0.0115  0.4301  0.0742
  735POPI   D2A10284  11.464   8.256   7.049  0.2816  0.2695 -0.2437
  735POPI   C3A10285  11.574   8.273   7.365 -0.1115 -0.0398 -0.3070
  735POPI   C4A10286  11.584   8.506   7.655  0.1324  0.1502  0.0880
  735POPI   C1B10287  11.549   7.770   6.869 -0.0573  0.3060  0.1100
  735POPI   C2B10288  11.687   7.811   7.279 -0.1187  0.3665 -0.0773
  735POPI   C3B10289  11.732   7.370   7.487  0.0069  0.0695 -0.4837
  735POPI   C4B10290  11.575   7.531   7.886  0.0487  0.0896  0.2217
  736POPI    C110291  15.559   5.133   5.153  0.0911  0.1154 -0.3633
  736POPI    C210292  15.455   4.758   5.246 -0.0128  0.2005 -0.1298
  736POPI    C310293  15.821   4.835   5.105  0.1806  0.0755  0.2873
  736POPI   PO410294  15.500   5.259   5.335 -0.1392 -0.0376 -0.4345
  736POPI   GL110295  15.296   5.420   5.745  0.0460  0.2168 -0.1865
  736POPI   GL210296  15.325   5.610   6.137 -0.1593  0.1630 -0.2446
  736POPI   C1A10297  15.272   5.120   5.996 -0.3278  0.2551  0.3513
  736POPI   D2A10298  15.206   5.029   6.388 -0.2099 -0.0971  0.0920
  736POPI   C3A10299  14.815   4.924   6.380  0.1097  0.1056 -0.1339
  736POPI   C4A10300  14.409   5.117   6.454 -0.2023 -0.3035 -0.2117
  736POPI   C1B10301  15.268   5.474   6.559  0.2011  0.1024  0.1490
  736POPI   C2B10302  15.180   5.552   6.958  0.0388 -0.0334 -0.1015
  736POPI   C3B10303  15.458   5.385   7.345 -0.0919 -0.0373 -0.0567
  736POPI   C4B10304  15.524   5.173   7.657  0.1077  0.0641 -0.0722
  737POPI    C110305  11.047   8.726   5.619 -0.0854 -0.0422 -0.3435
  737POPI    C210306  11.385   8.937   5.580  0.1495 -0.3257  0.0795
  737POPI    C310307  11.219   8.762   5.260  0.2372  0.0575 -0.1824
  737POPI   PO410308  10.921   8.877   5.818 -0.1251 -0.3926 -0.2087
  737POPI   GL110309  10.718   9.204   6.157 -0.4218  0.0242  0.0630
  737POPI   GL210310  10.398   9.312   6.130 -0.1479  0.1596  0.1072
  737POPI   C1A10311  10.759   8.958   6.665 -0.0160 -0.1593 -0.0126
  737POPI   D2A10312  10.702   8.675   7.017  0.0740  0.0803 -0.0688
  737POPI   C3A10313  10.671   8.579   7.478 -0.1377 -0.2053 -0.0068
  737POPI   C4A10314  10.444   8.554   7.793  0.0112 -0.0367  0.1885
  737POPI   C1B10315  10.411   9.317   6.547 -0.0064  0.2253  0.0212
  737POPI   C2B10316  10.281   9.447   6.869 -0.0858  0.1702 -0.2633
  737POPI   C3B10317  10.240   9.416   7.319 -0.1685 -0.0791  0.1873
  737POPI   C4B10318   9.926   9.334   7.590  0.0453  0.1947  0.1469
  738POPI    C110319  15.800   8.221   5.363 -0.0425 -0.2163  0.2329
  738POPI    C210320  15.537   8.282   5.067  0.1104  0.1098  0.1603
  738POPI    C310321  15.561   7.923   5.242 -0.1275 -0.0264 -0.0792
  738POPI   PO410322  15.720   8.359   5.599  0.3330 -0.0309 -0.0981
  738POPI   GL110323  15.967   8.316   5.920 -0.0825 -0.1688 -0.2364
  738POPI   GL210324  16.176   8.151   5.702 -0.0537  0.0562 -0.1179
  738POPI   C1A10325  16.320   8.379   6.168 -0.0684  0.1698 -0.1250
  738POPI   D2A10326  16.727   8.558   6.210  0.1663 -0.0703 -0.3463
  738POPI   C3A10327  16.813   8.510   6.530  0.1772 -0.1015  0.0883
  738POPI   C4A10328  16.677   8.459   6.938  0.0836 -0.3167  0.0659
  738POPI   C1B10329  16.159   7.915   6.174 -0.1586 -0.3616 -0.1590
  738POPI   C2B10330  16.197   7.568   6.419 -0.0204  0.1458  0.2865
  738POPI   C3B10331  16.090   7.272   6.823  0.1567  0.0130 -0.2513
  738POPI   C4B10332  15.746   7.102   7.055 -0.2673 -0.1206  0.1184
  739POPI    C110333  14.762  11.266   5.772  0.1186  0.2149  0.0388
  739POPI    C210334  15.155  11.317   5.715  0.1274  0.2509  0.1299
  739POPI    C310335  14.899  11.607   5.614  0.0929  0.0954 -0.2484
  739POPI   PO410336  14.809  11.195   6.080  0.0082  0.0073 -0.2217
  739POPI   GL110337  14.941  11.043   6.414 -0.2246 -0.1791 -0.1063
  739POPI   GL210338  14.898  11.079   6.716 -0.1080 -0.0113  0.1300
  739POPI   C1A10339  15.383  10.999   6.696  0.0797 -0.2804 -0.0734
  739POPI   D2A10340  15.581  10.958   7.065 -0.1745 -0.2130 -0.1280
  739POPI   C3A10341  15.471  10.720   7.382  0.1654 -0.1593  0.1532
  739POPI   C4A10342  15.350  10.360   7.718 -0.1173 -0.0966  0.0041
  739POPI   C1B10343  14.777  11.327   7.070 -0.1278 -0.0234 -0.1516
  739POPI   C2B10344  14.688  11.342   7.531  0.2823  0.0457 -0.1161
  739POPI   C3B10345  14.880  11.273   7.840  0.5415  0.0713 -0.5834
  739POPI   C4B10346  15.007  11.339   8.168 -0.0086 -0.1115  0.1370
  740POPI    C110347  17.545   1.537   5.475 -0.0840 -0.1176  0.2229
  740POPI    C210348  17.857   1.770   5.386 -0.0444 -0.1929  0.1647
  740POPI    C310349  17.510   1.819   5.194 -0.0021 -0.2580  0.0706
  740POPI   PO410350  17.495   1.623   5.774 -0.3661 -0.0456 -0.4098
  740POPI   GL110351  17.469   1.611   6.205  0.0839 -0.0124  0.0099
  740POPI   GL210352  17.780   1.591   6.277 -0.0254  0.2111 -0.2190
  740POPI   C1A10353  17.312   1.857   6.543 -0.1871  0.4094  0.0334
  740POPI   D2A10354  16.995   2.036   6.889  0.1477  0.2764  0.0282
  740POPI   C3A10355  17.182   2.172   7.247  0.1864 -0.0713 -0.1582
  740POPI   C4A10356  17.616   2.196   7.342  0.1826  0.0303  0.0844
  740POPI   C1B10357  17.768   1.781   6.727 -0.4148 -0.1789  0.2448
  740POPI   C2B10358  17.633   1.805   7.013  0.3026 -0.1224  0.0396
  740POPI   C3B10359  17.762   1.752   7.508  0.2924  0.4223 -0.3626
  740POPI   C4B10360  17.994   1.620   7.858  0.1915 -0.0363  0.1950
  741POPI    C110361   7.899   9.630   5.243 -0.1579 -0.0392 -0.4413
  741POPI    C210362   8.117   9.472   4.946  0.0799 -0.2449 -0.1628
  741POPI    C310363   8.126   9.307   5.311  0.0090  0.1693  0.0323
  741POPI   PO410364   8.023   9.891   5.338  0.2343  0.0966  0.0788
  741POPI   GL110365   8.031  10.263   5.546 -0.0200 -0.0854  0.0541
  741POPI   GL210366   7.907  10.112   5.875 -0.2387  0.0774  0.0711
  741POPI   C1A10367   8.211  10.577   5.870 -0.3125  0.0634  0.2351
  741POPI   D2A10368   8.404  11.033   5.811  0.4001 -0.2543 -0.1881
  741POPI   C3A10369   8.239  11.399   5.970  0.2963  0.3313 -0.3111
  741POPI   C4A10370   8.103  11.343   6.325 -0.0702  0.0652  0.3881
  741POPI   C1B10371   8.019  10.342   6.218 -0.2648  0.1220 -0.2376
  741POPI   C2B10372   7.888  10.476   6.609 -0.0067 -0.0368 -0.1945
  741POPI   C3B10373   7.859  10.876   6.546 -0.0679 -0.2764 -0.1740
  741POPI   C4B10374   7.805  11.129   6.974 -0.1667  0.0325  0.0524
  742POPS   CNO10375  14.341   6.047   5.168  0.0018 -0.0192  0.1013
  742POPS   PO410376  14.521   5.834   5.487  0.0573  0.3989 -0.1701
  742POPS   GL110377  14.528   5.735   5.899 -0.2873 -0.1126 -0.0470
  742POPS   GL210378  14.475   5.946   6.196 -0.1615  0.0899 -0.1300
  742POPS   C1A10379  14.755   5.558   6.250 -0.1756 -0.0132  0.1729
  742POPS   D2A10380  14.775   5.367   6.553 -0.1246 -0.4906 -0.0078
  742POPS   C3A10381  14.963   5.039   6.829  0.0749 -0.2222  0.4002
  742POPS   C4A10382  14.812   4.805   7.210  0.1345  0.1371  0.0285
  742POPS   C1B10383  14.680   6.022   6.569 -0.3447 -0.4221 -0.2374
  742POPS   C2B10384  14.598   5.796   6.775  0.0741  0.0351  0.1519
  742POPS   C3B10385  14.405   5.560   7.056 -0.0459  0.3240 -0.0894
  742POPS   C4B10386  14.153   5.576   7.296 -0.4447 -0.2131 -0.0627
  743POPS   CNO10387   6.781  11.496   5.312 -0.1333  0.2379 -0.0456
  743POPS   PO410388   6.657  11.076   5.241 -0.0710  0.2495 -0.2174
  743POPS   GL110389   6.905  10.885   5.507  0.3459 -0.0275 -0.0481
  743POPS   GL210390   6.765  11.147   5.725 -0.0051 -0.4038  0.0258
  743POPS   C1A10391   6.774  10.696   5.952 -0.3298  0.1364 -0.1284
  743POPS   D2A10392   6.945  10.711   6.206  0.1413  0.0649  0.3380
  743POPS   C3A10393   6.788  10.845   6.508 -0.0506  0.0747  0.2291
  743POPS   C4A10394   6.914  11.193   6.756  0.2648  0.1729  0.2051
  743POPS   C1B10395   6.753  11.176   6.156  0.1243 -0.3185  0.0062
  743POPS   C2B10396   6.562  11.359   6.482  0.0029 -0.0549  0.0166
  743POPS   C3B10397   6.302  11.357   6.882 -0.1786 -0.1949  0.0034
  743POPS   C4B10398   5.904  11.399   7.104 -0.0426 -0.2196 -0.1100
  744POPS   CNO10399  10.057   6.950   5.267  0.1823  0.2860  0.1673
  744POPS   PO410400  10.043   7.275   5.667 -0.1007 -0.0050 -0.1015
  744POPS   GL110401   9.944   7.321   6.075  0.1080 -0.0080  0.0538
  744POPS   GL210402  10.195   7.591   6.108 -0.0168 -0.3928  0.2609
  744POPS   C1A10403  10.006   7.270   6.513 -0.2587  0.0812 -0.1347
  744POPS   D2A10404  10.239   7.480   6.929 -0.0422 -0.2053 -0.2800
  744POPS   C3A10405  10.355   7.216   7.358 -0.0888  0.2683 -0.2168
  744POPS   C4A10406  10.269   6.920   7.588  0.0728 -0.0921  0.1523
  744POPS   C1B10407  10.158   7.746   6.472 -0.0989 -0.2652  0.1102
  744POPS   C2B10408   9.854   7.922   6.738 -0.1131 -0.1031  0.1222
  744POPS   C3B10409   9.803   8.241   6.984  0.2586 -0.1262 -0.0624
  744POPS   C4B10410   9.650   8.418   7.197  0.4123 -0.3525 -0.0009
  745POPS   CNO10411   2.411   1.064   5.796 -0.1051  0.1143  0.0277
  745POPS   PO410412   2.105   0.790   5.784 -0.2623  0.0836 -0.2638
  745POPS   GL110413   2.020   0.602   6.168  0.0542 -0.2045 -0.1471
  745POPS   GL210414   1.933   0.319   6.233 -0.0786 -0.2743 -0.1970
  745POPS   C1A10415   1.785   0.765   6.437  0.0037  0.0625 -0.3434
  745POPS   D2A10416   1.835   1.129   6.685 -0.1227 -0.1076 -0.2604
  745POPS   C3A10417   1.755   1.008   7.122  0.2052  0.2714  0.0318
  745POPS   C4A10418   1.786   1.032   7.602 -0.0192  0.1968 -0.1189
  745POPS   C1B10419   2.379   0.331   6.500 -0.0415 -0.0756 -0.0474
  745POPS   C2B10420   2.676   0.452   6.654  0.1108  0.0353 -0.1164
  745POPS   C3B10421   2.941   0.410   7.002  0.1418  0.3643  0.1675
  745POPS   C4B10422   3.266   0.631   7.250 -0.1285  0.1996  0.3729
  746POPS   CNO10423  13.423  13.828   5.711 -0.0650  0.1807  0.1959
  746POPS   PO410424  13.438  13.465   6.010  0.1781  0.1159  0.0315
  746POPS   GL110425  13.149  13.428   6.315  0.0396 -0.3018 -0.3421
  746POPS   GL210426  12.842  13.355   6.266 -0.0640  0.0349  0.0934
  746POPS   C1A10427  13.011  13.213   6.803  0.0172  0.2589 -0.1383
  746POPS   D2A10428  12.863  13.182   7.281 -0.2418 -0.2352 -0.1106
  746POPS   C3A10429  13.074  13.111   7.714 -0.2848  0.2777  0.1105
  746POPS   C4A10430  13.445  12.946   7.958 -0.2644 -0.0880 -0.1936
  746POPS   C1B10431  12.542  13.384   6.576 -0.1267  0.1556 -0.1148
  746POPS   C2B10432  12.411  13.498   6.968 -0.0372  0.1108  0.0399
  746POPS   C3B10433  12.478  13.473   7.397  0.3080 -0.0253 -0.2527
  746POPS   C4B10434  12.672  13.334   7.853  0.1528  0.0457 -0.2564
  747POPS   CNO10435   6.310  11.626   5.117  0.0441  0.3584  0.2157
  747POPS   PO410436   6.552  11.906   4.935  0.2785  0.5663 -0.3221
  747POPS   GL110437   6.732  12.010   5.365  0.1931 -0.2940  0.0231
  747POPS   GL210438   7.070  11.892   5.410  0.2108  0.1122  0.0587
  747POPS   C1A10439   6.898  11.969   5.881  0.4727 -0.0760  0.0160
  747POPS   D2A10440   7.034  12.154   6.261 -0.2543 -0.1745  0.3722
  747POPS   C3A10441   7.056  12.072   6.676 -0.0667  0.1619 -0.1358
  747POPS   C4A10442   7.397  11.860   6.835 -0.0434 -0.0851 -0.0446
  747POPS   C1B10443   7.236  11.692   5.688  0.1140  0.0559 -0.1694
  747POPS   C2B10444   7.180  11.658   6.233 -0.0152 -0.0874 -0.0259
  747POPS   C3B10445   7.033  11.642   6.526  0.2073 -0.3431 -0.0180
  747POPS   C4B10446   6.939  11.652   6.938  0.2794  0.1808 -0.2392
  748POPS   CNO10447   8.648   4.684   5.744  0.0671 -0.0869  0.1389
  748POPS   PO410448   8.817   5.073   5.806  0.0098 -0.0562  0.1198
  748POPS   GL110449   8.555   5.007   6.174 -0.1981  0.2217  0.0281
  748POPS   GL210450   8.293   4.815   6.216 -0.1981  0.1553 -0.3016
  748POPS   C1A10451   8.842   4.925   6.531 -0.1703  0.0673  0.2657
  748POPS   D2A10452   8.839   4.893   7.000 -0.0487  0.1584 -0.1893
  748POPS   C3A10453   8.631   4.655   7.349  0.0545  0.0373 -0.2994
  748POPS   C4A10454   8.501   4.477   7.674 -0.0441  0.1010  0.0069
  748POPS   C1B10455   7.927   4.901   6.488 -0.0603 -0.0904 -0.0171
  748POPS   C2B10456   7.929   4.978   6.935 -0.4031 -0.2803 -0.2472
  748POPS   C3B10457   7.811   5.095   7.410 -0.0752 -0.1301  0.0034
  748POPS   C4B10458   7.865   4.762   7.759 -0.1708 -0.1311 -0.1451
  749POPS   CNO10459   4.367  13.789   5.282 -0.2282  0.2807 -0.2663
  749POPS   PO410460   4.744  13.923   5.471  0.2722 -0.0534  0.0889
  749POPS   GL110461   4.488  13.809   5.829  0.0086  0.3887 -0.1076
  749POPS   GL210462   4.530  13.423   6.021  0.1457  0.0559 -0.1645
  749POPS   C1A10463   4.338  13.826   6.299  0.3461  0.1969 -0.2433
  749POPS   D2A10464   4.284  13.777   6.726 -0.2205 -0.1223  0.1448
  749POPS   C3A10465   4.593  13.817   7.136 -0.2734 -0.4396  0.2479
  749POPS   C4A10466   4.646  13.734   7.535  0.3395 -0.2208 -0.6010
  749POPS   C1B10467   4.656  13.486   6.452  0.0057 -0.1523 -0.0278
  749POPS   C2B10468   4.531  13.372   6.900 -0.0502  0.0226 -0.0911
  749POPS   C3B10469   4.367  13.058   7.145  0.3344 -0.0142  0.0163
  749POPS   C4B10470   4.563  12.914   7.439  0.0248 -0.1941  0.3446
  750POPS   CNO10471   6.327   0.571   5.609  0.1573 -0.0407 -0.1054
  750POPS   PO410472   5.971   0.410   6.001  0.4903  0.1290  0.2306
  750POPS   GL110473   5.944   0.198   6.260 -0.0947 -0.0719  0.2311
  750POPS   GL210474   5.738   0.000   6.300  0.0606 -0.3665  0.0143
  750POPS   C1A10475   6.103   0.154   6.720 -0.1128  0.1375  0.1024
  750POPS   D2A10476   6.164   0.033   7.113 -0.0098 -0.1969 -0.2331
  750POPS   C3A10477   5.852   0.166   7.375 -0.1586  0.2425  0.0442
  750POPS   C4A10478   5.832  -0.161   7.767  0.1815 -0.0574 -0.1638
  750POPS   C1B10479   5.655   0.026   6.699  0.1696 -0.0950  0.0353
  750POPS   C2B10480   5.590  -0.139   7.018 -0.0462  0.5005  0.0461
  750POPS   C3B10481   5.516  -0.228   7.346  0.1652  0.0824 -0.1841
  750POPS   C4B10482   5.507  -0.535   7.615 -0.0091 -0.0756 -0.0843
  751POPS   CNO10483  11.834   8.674   6.247 -0.0905  0.1063 -0.0235
  751POPS   PO410484  11.536   8.718   6.009  0.1657  0.1688  0.0385
  751POPS   GL110485  11.209   8.694   6.368 -0.1227 -0.2029 -0.0068
  751POPS   GL210486  10.967   8.639   6.292  0.2014 -0.2012  0.1809
  751POPS   C1A10487  11.173   8.685   6.832 -0.0350 -0.2454 -0.0282
  751POPS   D2A10488  11.158   8.655   7.338  0.0031  0.0539 -0.1282
  751POPS   C3A10489  11.119   8.375   7.730  0.1985  0.0028  0.2169
  751POPS   C4A10490  11.261   8.395   8.122 -0.1160  0.0128 -0.1635
  751POPS   C1B10491  10.922   8.272   6.674  0.2260  0.3387 -0.1904
  751POPS   C2B10492  10.774   8.193   7.121 -0.4646  0.2095  0.1437
  751POPS   C3B10493  10.521   8.133   7.483  0.1211  0.0548  0.0907
  751POPS   C4B10494  10.083   8.170   7.682 -0.2432  0.1148 -0.2316
  752POPS   CNO10495  18.577  14.481   6.033 -0.1557 -0.2741  0.0515
  752POPS   PO410496  18.181  14.823   6.078 -0.0009 -0.1273  0.2340
  752POPS   GL110497  18.462  14.774   6.468 -0.1006 -0.1172  0.1907
  752POPS   GL210498  18.685  14.939   6.598  0.0393 -0.1617 -0.0029
  752POPS   C1A10499  18.481  14.555   6.903 -0.1352  0.1141  0.5078
  752POPS   D2A10500  18.692  14.645   7.249  0.0945 -0.1957 -0.0831
  752POPS   C3A10501  18.944  14.594   7.611  0.0574  0.2822  0.0197
  752POPS   C4A10502  19.281  14.720   7.909  0.0008 -0.2067  0.0319
  752POPS   C1B10503  18.879  14.963   6.941  0.0841 -0.1455 -0.3313
  752POPS   C2B10504  18.956  15.034   7.379 -0.1389 -0.0070 -0.1679
  752POPS   C3B10505  18.849  15.059   7.843  0.0338  0.0417  0.0337
  752POPS   C4B10506  18.914  15.258   8.266  0.4605 -0.2241  0.3325
  753POPS   CNO10507   5.229  12.354   4.845  0.2185  0.0697 -0.2193
  753POPS   PO410508   5.470  12.353   5.217 -0.0682 -0.0398  0.1887
  753POPS   GL110509   5.395  12.071   5.591  0.0230 -0.0994  0.0471
  753POPS   GL210510   5.165  12.231   5.808 -0.2868 -0.0249 -0.4451
  753POPS   C1A10511   5.463  11.757   5.873  0.2649  0.2012  0.6344
  753POPS   D2A10512   5.341  11.275   5.961 -0.0542 -0.3586  0.0843
  753POPS   C3A10513   5.381  11.334   6.386  0.0882 -0.3794 -0.0437
  753POPS   C4A10514   5.446  11.198   6.813  0.5562  0.1750 -0.0523
  753POPS   C1B10515   5.137  11.981   6.160 -0.0748  0.3312  0.0344
  753POPS   C2B10516   5.144  11.760   6.517  0.0803 -0.1583 -0.0195
  753POPS   C3B10517   4.853  11.468   6.734 -0.0899  0.2395 -0.1717
  753POPS   C4B10518   4.537  11.249   6.964  0.0902 -0.2524  0.0850
  754POPS   CNO10519  11.543   7.164   5.303  0.1580 -0.1295  0.0063
  754POPS   PO410520  11.778   7.418   5.645  0.0383 -0.2684  0.2613
  754POPS   GL110521  11.736   7.292   6.103 -0.3124  0.1308 -0.0391
  754POPS   GL210522  12.070   7.531   6.158 -0.0232  0.1332  0.0236
  754POPS   C1A10523  11.772   7.397   6.632  0.3304  0.2123  0.2020
  754POPS   D2A10524  11.520   7.275   6.969 -0.0598 -0.1050 -0.4233
  754POPS   C3A10525  11.519   6.932   7.281 -0.3101 -0.0155  0.1645
  754POPS   C4A10526  11.595   6.483   7.385  0.2858  0.2032 -0.3827
  754POPS   C1B10527  12.164   7.718   6.570 -0.1824 -0.3623 -0.0509
  754POPS   C2B10528  12.115   7.486   6.972 -0.1290 -0.2852 -0.1494
  754POPS   C3B10529  12.090   7.077   6.937 -0.0828 -0.2634 -0.1915
  754POPS   C4B10530  11.798   6.762   6.795 -0.0572 -0.0238  0.1671
  755POPS   CNO10531  13.882  15.813   5.663 -0.1780 -0.0509 -0.2583
  755POPS   PO410532  14.146  15.627   5.570  0.0627  0.1740  0.3304
  755POPS   GL110533  14.336  15.600   5.909  0.0146 -0.0359 -0.0111
  755POPS   GL210534  14.404  15.302   6.075  0.0171 -0.1358  0.0271
  755POPS   C1A10535  14.194  15.629   6.391 -0.0585 -0.1927 -0.2228
  755POPS   D2A10536  14.301  15.688   6.829 -0.1678  0.0846 -0.0310
  755POPS   C3A10537  14.296  15.577   7.241  0.4308 -0.0714  0.3976
  755POPS   C4A10538  14.216  15.610   7.638  0.1720  0.0264 -0.0289
  755POPS   C1B10539  14.180  15.001   6.360  0.0144 -0.2860 -0.4016
  755POPS   C2B10540  14.160  15.156   6.861  0.0241  0.1859  0.1660
  755POPS   C3B10541  14.385  15.097   7.149 -0.0483  0.1185  0.1402
  755POPS   C4B10542  14.641  14.901   7.405 -0.3795 -0.0276 -0.1523
  756POPS   CNO10543   9.350  15.021   5.489  0.0391 -0.1078  0.0362
  756POPS   PO410544   9.739  15.195   5.370 -0.1635 -0.1584 -0.1673
  756POPS   GL110545   9.885  15.095   5.782  0.0073  0.0750 -0.1026
  756POPS   GL210546   9.721  14.970   5.907 -0.2282 -0.3612  0.1587
  756POPS   C1A10547  10.131  15.281   6.152  0.0703  0.4200 -0.2761
  756POPS   D2A10548  10.415  15.496   6.241  0.2381  0.6243 -0.2313
  756POPS   C3A10549  10.797  15.380   6.262 -0.0226  0.0804  0.1154
  756POPS   C4A10550  11.224  15.206   6.070 -0.2013  0.0164  0.2790
  756POPS   C1B10551   9.839  14.811   6.355 -0.0093 -0.3821 -0.1081
  756POPS   C2B10552   9.928  14.752   6.740 -0.0281 -0.3028 -0.0510
  756POPS   C3B10553   9.985  14.588   7.226 -0.0128 -0.3452  0.2552
  756POPS   C4B10554   9.991  14.680   7.661 -0.0633 -0.0817 -0.1706
  757POPS   CNO10555  13.913   8.242   5.907  0.1283  0.3465  0.1374
  757POPS   PO410556  14.277   8.321   5.751  0.2794 -0.1950  0.3218
  757POPS   GL110557  14.587   8.112   6.114 -0.0191  0.0247 -0.1546
  757POPS   GL210558  14.897   8.003   5.999  0.2561 -0.0979 -0.0997
  757POPS   C1A10559  14.842   8.049   6.575  0.0570 -0.1299  0.1078
  757POPS   D2A10560  15.070   8.098   6.934 -0.1785 -0.3301 -0.3015
  757POPS   C3A10561  14.917   8.155   7.416  0.2054 -0.1257  0.2077
  757POPS   C4A10562  14.845   8.087   7.854  0.0972 -0.2212 -0.4199
  757POPS   C1B10563  14.765   7.663   6.229  0.1532 -0.1936 -0.0482
  757POPS   C2B10564  14.496   7.723   6.551  0.0069 -0.1353  0.0796
  757POPS   C3B10565  14.518   7.865   7.000  0.0279 -0.1181  0.5070
  757POPS   C4B10566  14.431   8.003   7.324 -0.4870  0.3492  0.1736
  758POPS   CNO10567   4.926  16.275   5.598 -0.3616 -0.1245 -0.1298
  758POPS   PO410568   5.106  16.628   5.875  0.0507  0.1664  0.2898
  758POPS   GL110569   4.865  16.553   6.270 -0.1506  0.1898  0.3449
  758POPS   GL210570   5.006  16.848   6.304 -0.0880  0.2188  0.0315
  758POPS   C1A10571   4.891  16.258   6.639 -0.1801 -0.3643 -0.3631
  758POPS   D2A10572   4.851  15.869   6.949 -0.0812  0.1208  0.0433
  758POPS   C3A10573   5.127  16.096   7.252 -0.0299  0.1147  0.0010
  758POPS   C4A10574   5.369  16.027   7.592 -0.3194 -0.2250  0.0092
  758POPS   C1B10575   5.088  16.749   6.694  0.0688 -0.1594 -0.0121
  758POPS   C2B10576   5.143  16.570   7.065 -0.0366 -0.2417 -0.1625
  758POPS   C3B10577   5.078  16.637   7.488  0.0681 -0.0293  0.2112
  758POPS   C4B10578   5.028  16.958   7.813  0.1679 -0.0701  0.1451
  759POPS   CNO10579   3.830   6.452   5.344  0.1645 -0.2661  0.2612
  759POPS   PO410580   4.246   6.424   5.176 -0.0399 -0.2469 -0.3140
  759POPS   GL110581   4.238   6.727   5.581 -0.0425 -0.0931  0.0662
  759POPS   GL210582   4.524   6.752   5.855 -0.0392  0.2052 -0.1130
  759POPS   C1A10583   3.947   6.603   5.920  0.2509 -0.1444 -0.0060
  759POPS   D2A10584   3.813   6.483   6.355 -0.1193  0.2775  0.1603
  759POPS   C3A10585   4.070   6.468   6.750 -0.0425  0.2092  0.0711
  759POPS   C4A10586   3.933   6.510   7.169 -0.2840  0.0351  0.0907
  759POPS   C1B10587   4.729   6.629   6.220 -0.2130  0.1228  0.1335
  759POPS   C2B10588   4.826   6.398   6.655  0.2268 -0.0092  0.0871
  759POPS   C3B10589   4.881   6.244   7.110  0.0508  0.0862  0.1821
  759POPS   C4B10590   4.658   6.379   7.419  0.3487  0.1656  0.0312
  760POPS   CNO10591   6.922   6.756   5.364  0.0242 -0.0335 -0.3040
  760POPS   PO410592   7.264   6.857   5.551 -0.3035  0.2126  0.0951
  760POPS   GL110593   7.072   6.453   5.771 -0.0194  0.1214 -0.3631
  760POPS   GL210594   6.803   6.518   5.758  0.2725  0.2402 -0.0454
  760POPS   C1A10595   6.993   6.349   6.215 -0.0479  0.0549  0.0365
  760POPS   D2A10596   6.926   6.416   6.634  0.0252 -0.0917  0.1347
  760POPS   C3A10597   7.073   6.382   7.110 -0.0942  0.0350  0.2249
  760POPS   C4A10598   7.179   6.328   7.549  0.0099 -0.0084 -0.0997
  760POPS   C1B10599   6.558   6.641   6.151 -0.1025 -0.1170  0.1961
  760POPS   C2B10600   6.497   6.685   6.577 -0.1869 -0.1123 -0.0429
  760POPS   C3B10601   6.462   6.969   6.887 -0.1793  0.0672  0.1437
  760POPS   C4B10602   6.659   7.383   6.926  0.3395  0.0661 -0.3392
  761POPS   CNO10603  11.855   3.801   4.995 -0.0924 -0.2918 -0.0075
  761POPS   PO410604  11.729   3.802   5.505  0.0551 -0.0392  0.0469
  761POPS   GL110605  11.849   3.857   5.955 -0.1987 -0.5228 -0.3268
  761POPS   GL210606  11.578   3.757   6.038  0.1146  0.1159 -0.1458
  761POPS   C1A10607  12.196   3.850   6.292 -0.2927  0.3808  0.0961
  761POPS   D2A10608  12.561   4.080   6.244  0.0967 -0.1906 -0.4046
  761POPS   C3A10609  12.870   4.089   6.563  0.2374 -0.1208  0.2139
  761POPS   C4A10610  13.338   4.216   6.383 -0.0981  0.0099  0.1471
  761POPS   C1B10611  11.656   3.856   6.416 -0.4132  0.0137  0.0231
  761POPS   C2B10612  11.913   3.825   6.784  0.0057 -0.2278  0.2111
  761POPS   C3B10613  12.147   3.782   7.217  0.0623 -0.0945  0.2034
  761POPS   C4B10614  12.486   3.802   7.530  0.0175  0.3732 -0.2828
  762POPS   CNO10615   8.822  11.344   5.812  0.1142  0.2604 -0.0934
  762POPS   PO410616   9.118  11.274   5.476  0.3655 -0.4053  0.0801
  762POPS   GL110617   9.029  10.864   5.637  0.0749 -0.1418  0.3091
  762POPS   GL210618   9.143  10.906   6.065  0.1964 -0.1867  0.2722
  762POPS   C1A10619   8.733  10.617   5.926  0.1175 -0.1328  0.0371
  762POPS   D2A10620   8.878  10.508   6.343 -0.3237  0.1298  0.1516
  762POPS   C3A10621   9.287  10.666   6.553  0.1682 -0.1314 -0.2260
  762POPS   C4A10622   9.676  10.666   6.297  0.0828  0.2158 -0.3525
  762POPS   C1B10623   8.799  11.001   6.355  0.0165  0.1833  0.2035
  762POPS   C2B10624   8.811  10.786   6.723 -0.1424  0.4435  0.3448
  762POPS   C3B10625   8.774  10.943   7.091 -0.3235  0.2016 -0.1978
  762POPS   C4B10626   8.538  10.841   7.426  0.1412 -0.2627 -0.0844
  763POPS   CNO10627   3.161  18.236   6.036 -0.2852 -0.2806  0.2774
  763POPS   PO410628   3.277  18.598   6.111  0.2563 -0.0991  0.2108
  763POPS   GL110629   3.256  18.476   6.538 -0.3542 -0.1002  0.1238
  763POPS   GL210630   3.136  18.140   6.583 -0.0532  0.1700 -0.1354
  763POPS   C1A10631   3.384  18.316   6.961  0.1594 -0.0269  0.1754
  763POPS   D2A10632   3.626  18.405   7.346  0.1998  0.0227 -0.0481
  763POPS   C3A10633   3.502  18.598   7.699  0.0211  0.0911 -0.0155
  763POPS   C4A10634   3.616  18.578   8.106 -0.2781 -0.0654  0.2879
  763POPS   C1B10635   2.895  18.320   6.978  0.1556  0.0764  0.0929
  763POPS   C2B10636   2.692  18.329   7.394  0.1015  0.1695 -0.2754
  763POPS   C3B10637   2.636  18.232   7.837  0.1201 -0.3308  0.0687
  763POPS   C4B10638   2.536  17.817   7.978 -0.2908 -0.3273 -0.5120
  764POPS   CNO10639  16.862  16.877   5.391  0.1310  0.2834  0.2887
  764POPS   PO410640  16.703  17.080   5.681  0.0790 -0.3588  0.0512
  764POPS   GL110641  16.705  17.166   6.104  0.0093 -0.3775  0.0112
  764POPS   GL210642  17.034  17.353   6.060  0.0608  0.1209 -0.2390
  764POPS   C1A10643  16.526  17.186   6.498 -0.3796  0.0477  0.0001
  764POPS   D2A10644  16.342  17.487   6.889  0.2497  0.1072  0.3430
  764POPS   C3A10645  16.636  17.805   7.153  0.2848 -0.1679 -0.3605
  764POPS   C4A10646  16.705  17.650   7.593 -0.3285  0.0589 -0.0345
  764POPS   C1B10647  17.043  17.150   6.423 -0.1144  0.1873  0.0530
  764POPS   C2B10648  17.065  16.821   6.597  0.0424 -0.1295  0.0378
  764POPS   C3B10649  16.923  16.379   6.730 -0.0609  0.1541  0.1487
  764POPS   C4B10650  16.583  16.125   6.873  0.0894 -0.0064 -0.1448
  765POPS   CNO10651   2.535   8.589   4.998 -0.0324 -0.1957 -0.0475
  765POPS   PO410652   2.349   8.617   5.343  0.0464  0.0025  0.0186
  765POPS   GL110653   2.484   8.567   5.725 -0.0156 -0.1582  0.0595
  765POPS   GL210654   2.625   8.294   5.819 -0.1343  0.0487 -0.3296
  765POPS   C1A10655   2.286   8.453   6.147  0.1016  0.0078 -0.0873
  765POPS   D2A10656   2.345   8.277   6.552 -0.1137  0.0293  0.0960
  765POPS   C3A10657   2.136   8.400   6.840 -0.0707  0.1727  0.4505
  765POPS   C4A10658   2.087   8.685   7.157  0.3218  0.0250  0.0022
  765POPS   C1B10659   2.536   8.002   6.120  0.0780 -0.0481  0.2175
  765POPS   C2B10660   2.419   7.772   6.477 -0.1341 -0.2598 -0.1446
  765POPS   C3B10661   2.129   7.914   6.819 -0.0359  0.2011 -0.0032
  765POPS   C4B10662   1.738   8.063   6.858  0.0397 -0.0730  0.0550
  766POPS   CNO10663   1.422   7.578   5.655  0.2747 -0.2930 -0.0775
  766POPS   PO410664   1.615   7.351   5.335  0.3253  0.3302  0.2343
  766POPS   GL110665   2.014   7.343   5.636 -0.2190  0.1769  0.0906
  766POPS   GL210666   2.217   7.116   5.619 -0.1281 -0.0277 -0.0042
  766POPS   C1A10667   2.145   7.615   6.009 -0.1992 -0.0350 -0.3361
  766POPS   D2A10668   1.864   7.818   6.293 -0.3657 -0.0599 -0.1024
  766POPS   C3A10669   1.755   8.257   6.404  0.2795  0.1263  0.1323
  766POPS   C4A10670   1.810   8.650   6.170 -0.4894  0.1710  0.1712
  766POPS   C1B10671   2.002   7.063   6.029 -0.1167  0.3399  0.0564
  766POPS   C2B10672   1.881   7.244   6.455 -0.0353 -0.2490  0.1952
  766POPS   C3B10673   1.951   7.051   6.811  0.3389 -0.1381 -0.0843
  766POPS   C4B10674   1.884   7.139   7.265  0.4315 -0.0359 -0.0181
  767POPS   CNO10675  16.210  15.316   6.166 -0.0540 -0.0704  0.1020
  767POPS   PO410676  16.696  15.332   6.030  0.2749  0.0841  0.0931
  767POPS   GL110677  16.914  15.267   6.429  0.0605 -0.0048  0.0172
  767POPS   GL210678  16.621  15.337   6.534 -0.1827 -0.5615  0.1295
  767POPS   C1A10679  17.206  15.330   6.734 -0.0487  0.0280 -0.1231
  767POPS   D2A10680  17.413  15.352   7.138  0.2669 -0.2276  0.0501
  767POPS   C3A10681  17.239  15.537   7.496  0.4195  0.2256 -0.4310
  767POPS   C4A10682  16.903  15.692   7.675 -0.1576 -0.1769  0.0179
  767POPS   C1B10683  16.671  15.613   6.859 -0.2101 -0.2112 -0.0937
  767POPS   C2B10684  16.552  15.694   7.204  0.1385  0.1434 -0.3952
  767POPS   C3B10685  16.407  15.645   7.594 -0.3196  0.3404 -0.1212
  767POPS   C4B10686  16.426  15.517   8.033  0.0862 -0.2198 -0.0868
  768POPS   CNO10687  10.094   6.782   5.800 -0.1080  0.3360  0.2560
  768POPS   PO410688  10.175   6.303   6.012  0.1303 -0.1306  0.1266
  768POPS   GL110689   9.956   6.554   6.272 -0.0550 -0.0430  0.1029
  768POPS   GL210690   9.758   6.826   6.163  0.2223 -0.2532 -0.0898
  768POPS   C1A10691   9.813   6.767   6.650 -0.3733  0.1936  0.2199
  768POPS   D2A10692   9.810   6.938   7.060 -0.0162  0.0802 -0.0866
  768POPS   C3A10693   9.766   6.639   7.391  0.3274  0.3718 -0.0868
  768POPS   C4A10694   9.517   6.587   7.715 -0.2173 -0.0389  0.0731
  768POPS   C1B10695   9.437   6.595   6.263  0.1357  0.1190  0.0287
  768POPS   C2B10696   9.148   6.727   6.532  0.0327  0.2364 -0.1701
  768POPS   C3B10697   8.933   6.958   6.933 -0.2099  0.0878  0.1767
  768POPS   C4B10698   8.651   7.099   7.193 -0.0773 -0.1317 -0.0374
  769POPS   CNO10699   4.945   6.953   5.013 -0.1026 -0.1348 -0.3906
  769POPS   PO410700   4.603   7.361   5.030  0.0779  0.1456 -0.2842
  769POPS   GL110701   4.772   7.205   5.469  0.1181  0.2547 -0.0127
  769POPS   GL210702   4.566   7.305   5.771  0.2435 -0.0429 -0.0088
  769POPS   C1A10703   4.932   7.008   5.838 -0.2113  0.1379 -0.0130
  769POPS   D2A10704   5.264   6.765   5.739 -0.0354  0.2276  0.1808
  769POPS   C3A10705   5.149   6.486   6.061 -0.1058  0.2257 -0.1503
  769POPS   C4A10706   4.987   6.170   6.258  0.0077  0.0722 -0.0103
  769POPS   C1B10707   4.638   7.118   6.222 -0.2498  0.2720 -0.2385
  769POPS   C2B10708   4.656   7.237   6.657 -0.2665 -0.1000 -0.0668
  769POPS   C3B10709   4.638   7.314   7.099  0.1967 -0.0946  0.0363
  769POPS   C4B10710   4.644   7.176   7.511  0.5444  0.2006  0.0499
  770POPS   CNO10711  10.196  18.492   5.354  0.0297  0.2549 -0.0384
  770POPS   PO410712  10.504  18.283   5.673 -0.1152  0.1559 -0.1627
  770POPS   GL110713  10.681  18.136   6.025 -0.0209  0.0032  0.1010
  770POPS   GL210714  10.349  18.069   6.213 -0.1081  0.0815 -0.1139
  770POPS   C1A10715  10.741  17.923   6.393 -0.0595 -0.6520  0.1572
  770POPS   D2A10716  10.444  18.007   6.790  0.1128 -0.0508  0.1040
  770POPS   C3A10717  10.317  17.781   7.103  0.4084  0.0253  0.0672
  770POPS   C4A10718  10.118  17.489   7.380  0.2968 -0.0781  0.0940
  770POPS   C1B10719  10.124  18.285   6.434 -0.1803 -0.3453  0.2300
  770POPS   C2B10720  10.123  18.756   6.473  0.2563  0.1386  0.0067
  770POPS   C3B10721  10.092  19.283   6.480 -0.2976 -0.1115  0.0848
  770POPS   C4B10722  10.076  19.689   6.459 -0.0223 -0.2038  0.0641
  771POPS   CNO10723  15.627   7.391   5.381  0.2308 -0.1411 -0.0501
  771POPS   PO410724  15.900   7.682   5.529 -0.4471  0.2953 -0.0031
  771POPS   GL110725  15.753   7.822   5.856  0.2001  0.2408 -0.1104
  771POPS   GL210726  15.485   7.978   5.984  0.1391 -0.1079  0.0222
  771POPS   C1A10727  15.758   7.601   6.217  0.2029 -0.0105  0.2127
  771POPS   D2A10728  15.828   7.665   6.666 -0.0497  0.0819 -0.4642
  771POPS   C3A10729  15.628   7.726   7.071  0.3523  0.2372  0.2514
  771POPS   C4A10730  15.525   7.318   7.450 -0.2125  0.1439 -0.1812
  771POPS   C1B10731  15.701   8.083   6.379  0.0168  0.1230 -0.0047
  771POPS   C2B10732  15.613   8.188   6.879  0.1665 -0.0694 -0.0527
  771POPS   C3B10733  15.423   8.151   7.293 -0.1930  0.0039 -0.0246
  771POPS   C4B10734  15.652   8.262   7.734  0.1250 -0.2551  0.0511
  772POPS   CNO10735  12.990   1.913   5.339 -0.2129  0.0282  0.0431
  772POPS   PO410736  13.094   1.545   5.431 -0.2051  0.0799  0.1140
  772POPS   GL110737  12.983   1.717   5.820  0.5884  0.1327  0.0159
  772POPS   GL210738  12.779   2.053   5.807 -0.0025  0.0558  0.3121
  772POPS   C1A10739  13.167   1.979   6.086  0.0231 -0.0241  0.2511
  772POPS   D2A10740  13.121   2.348   6.191  0.5579  0.0062  0.0381
  772POPS   C3A10741  13.051   2.192   6.565  0.2894 -0.0097 -0.0323
  772POPS   C4A10742  12.928   2.491   6.895  0.0175 -0.0540  0.0133
  772POPS   C1B10743  12.648   1.866   6.208  0.0545  0.2360  0.3734
  772POPS   C2B10744  12.539   1.971   6.550 -0.0184 -0.1165  0.0518
  772POPS   C3B10745  12.541   2.119   6.903 -0.4507  0.1255 -0.1059
  772POPS   C4B10746  12.372   1.914   7.303 -0.1444 -0.0995 -0.0265
  773POPS   CNO10747  12.303  12.569   5.915  0.0926  0.2097  0.1451
  773POPS   PO410748  12.145  12.955   5.851 -0.1102  0.1567 -0.1450
  773POPS   GL110749  11.979  12.877   6.143 -0.1999 -0.0029 -0.0609
  773POPS   GL210750  11.734  12.648   6.043  0.1124 -0.1277  0.1149
  773POPS   C1A10751  12.205  12.730   6.523 -0.1729 -0.1394  0.2119
  773POPS   D2A10752  12.049  12.562   6.954  0.0680  0.2329 -0.1820
  773POPS   C3A10753  12.018  12.643   7.328  0.3802 -0.4759  0.1098
  773POPS   C4A10754  11.860  12.669   7.790 -0.1678  0.0040  0.3047
  773POPS   C1B10755  11.384  12.349   6.211  0.2044  0.2499  0.0469
  773POPS   C2B10756  11.238  12.173   6.603  0.0406 -0.0351 -0.3144
  773POPS   C3B10757  11.033  12.242   6.983  0.1312  0.1984  0.1620
  773POPS   C4B10758  10.823  11.866   7.144 -0.1050 -0.1331  0.0013
  774POPS   CNO10759  17.757  11.953   5.763 -0.0784  0.1929  0.0325
  774POPS   PO410760  18.200  12.223   5.796 -0.1351  0.1235 -0.2292
  774POPS   GL110761  18.134  12.237   6.201  0.4935  0.1329 -0.0044
  774POPS   GL210762  17.796  12.380   6.239 -0.0045 -0.3521  0.4258
  774POPS   C1A10763  17.938  12.218   6.698  0.2851  0.2566  0.3670
  774POPS   D2A10764  17.855  11.781   6.876 -0.0941  0.3727  0.0665
  774POPS   C3A10765  18.136  11.743   7.108 -0.1348 -0.1857  0.1751
  774POPS   C4A10766  18.335  11.850   7.464 -0.1176 -0.0312  0.0114
  774POPS   C1B10767  17.740  12.711   6.576  0.1523 -0.0798  0.2565
  774POPS   C2B10768  17.916  13.096   6.867  0.2876 -0.0054  0.5381
  774POPS   C3B10769  18.199  13.360   7.150  0.1197 -0.0316  0.0490
  774POPS   C4B10770  17.962  13.627   7.512 -0.2303  0.4053  0.0781
  775POPS   CNO10771   0.224   4.621   5.304  0.1234 -0.4696 -0.0535
  775POPS   PO410772   0.026   5.059   5.553  0.1582  0.1734  0.0145
  775POPS   GL110773   0.055   5.182   6.001 -0.0560  0.0620 -0.1080
  775POPS   GL210774   0.125   5.558   6.001  0.5277 -0.0456 -0.0149
  775POPS   C1A10775  -0.175   5.366   6.381 -0.2884 -0.4502 -0.2704
  775POPS   D2A10776  -0.521   5.173   6.457  0.3407 -0.0317 -0.3592
  775POPS   C3A10777  -0.900   5.368   6.706 -0.1044 -0.0163 -0.1123
  775POPS   C4A10778  -1.295   5.314   6.888  0.3365  0.3197 -0.1275
  775POPS   C1B10779   0.184   5.756   6.419 -0.1085 -0.0277 -0.0458
  775POPS   C2B10780   0.054   5.905   6.853  0.2510  0.1193 -0.1557
  775POPS   C3B10781  -0.054   5.956   7.281  0.2069 -0.1585  0.0707
  775POPS   C4B10782  -0.343   6.309   7.382  0.0777 -0.1996 -0.1132
  776POPS   CNO10783  12.381  18.633   5.287  0.0080  0.0767 -0.0202
  776POPS   PO410784  12.610  18.480   5.645  0.0720  0.0172  0.0820
  776POPS   GL110785  12.519  18.584   6.092 -0.1335 -0.1908 -0.1708
  776POPS   GL210786  12.240  18.747   6.136  0.0833 -0.1402  0.0167
  776POPS   C1A10787  12.642  18.360   6.395 -0.1125 -0.0004 -0.4755
  776POPS   D2A10788  12.805  18.522   6.831  0.0032  0.0696 -0.2662
  776POPS   C3A10789  12.823  18.185   7.183  0.2329  0.0665 -0.0123
  776POPS   C4A10790  12.735  17.816   7.147 -0.2084  0.0201  0.2632
  776POPS   C1B10791  12.388  18.768   6.624  0.3565 -0.0939  0.0127
  776POPS   C2B10792  12.216  18.684   6.995  0.2997  0.0852 -0.1125
  776POPS   C3B10793  12.450  18.592   7.319  0.4005 -0.1483 -0.2642
  776POPS   C4B10794  12.422  18.804   7.624  0.0965 -0.0187 -0.1770
  777POPS   CNO10795  12.879   6.207   5.228  0.0680 -0.1768 -0.1830
  777POPS   PO410796  13.190   6.290   5.401 -0.0661 -0.2715  0.2738
  777POPS   GL110797  13.206   5.902   5.749  0.3067  0.1629  0.2607
  777POPS   GL210798  13.166   5.524   5.542  0.2705  0.0629 -0.0645
  777POPS   C1A10799  13.533   5.857   5.955 -0.1284 -0.1190  0.0452
  777POPS   D2A10800  13.866   5.789   6.183 -0.0691  0.0773 -0.3249
  777POPS   C3A10801  14.089   6.012   6.519  0.4684 -0.1553 -0.1540
  777POPS   C4A10802  14.262   6.341   6.536  0.0488 -0.2062  0.0260
  777POPS   C1B10803  13.239   5.496   5.988  0.1990 -0.3399  0.1814
  777POPS   C2B10804  13.226   5.299   6.352 -0.1895  0.2772 -0.0455
  777POPS   C3B10805  13.167   5.354   6.710 -0.0825  0.5173  0.2077
  777POPS   C4B10806  13.304   5.073   7.142 -0.0803  0.1368  0.2218
  778POPS   CNO10807  16.238  14.733   5.744 -0.2444  0.0606 -0.3766
  778POPS   PO410808  16.268  14.452   6.065 -0.2450  0.0113 -0.1626
  778POPS   GL110809  16.357  14.377   6.487  0.1293 -0.1368  0.2832
  778POPS   GL210810  16.602  14.566   6.570  0.0767 -0.0379 -0.0011
  778POPS   C1A10811  16.225  14.190   6.849  0.1835 -0.0677  0.2060
  778POPS   D2A10812  16.125  14.185   7.325  0.0359 -0.1230  0.2145
  778POPS   C3A10813  16.229  13.866   7.693 -0.0970  0.3380 -0.1218
  778POPS   C4A10814  16.349  13.429   7.814  0.2146 -0.2377  0.0522
  778POPS   C1B10815  16.569  14.506   6.986  0.0451 -0.1279  0.0046
  778POPS   C2B10816  16.544  14.761   7.337 -0.1748 -0.0084  0.3578
  778POPS   C3B10817  16.488  14.889   7.764 -0.1138  0.0437 -0.2253
  778POPS   C4B10818  16.626  14.948   8.208  0.1049  0.2554 -0.2327
  779POPS   CNO10819  15.456  10.951   5.598  0.4197 -0.0978  0.0346
  779POPS   PO410820  15.529  10.763   5.987  0.2021  0.0038 -0.0498
  779POPS   GL110821  15.427  10.562   6.414  0.2082 -0.0040  0.2759
  779POPS   GL210822  15.127  10.636   6.516 -0.2959  0.2074  0.0504
  779POPS   C1A10823  15.642  10.513   6.837  0.0184 -0.0423 -0.0596
  779POPS   D2A10824  15.574  10.306   7.208  0.2395  0.1332  0.2252
  779POPS   C3A10825  15.795   9.992   7.352 -0.1095 -0.2021 -0.1297
  779POPS   C4A10826  15.811   9.698   7.650 -0.3248  0.0090  0.0471
  779POPS   C1B10827  15.118  10.639   6.992  0.3105 -0.1070  0.1561
  779POPS   C2B10828  14.888  10.865   7.183 -0.0403  0.1638  0.2354
  779POPS   C3B10829  14.951  10.857   7.573  0.0385  0.2794  0.2461
  779POPS   C4B10830  14.900  10.486   7.902 -0.2683 -0.2246 -0.0441
  780POPS   CNO10831  10.835  12.893   5.697  0.1927  0.0170  0.0901
  780POPS   PO410832  10.411  13.101   5.707  0.0479 -0.0252  0.0035
  780POPS   GL110833  10.359  13.203   6.146  0.0354  0.1948  0.1544
  780POPS   GL210834  10.167  12.883   6.123 -0.1277 -0.0686  0.1885
  780POPS   C1A10835  10.248  13.358   6.510  0.0848  0.0905  0.0176
  780POPS   D2A10836  10.231  13.375   6.951 -0.0218 -0.3171  0.2298
  780POPS   C3A10837  10.341  13.198   7.384  0.1142 -0.1849 -0.0406
  780POPS   C4A10838  10.676  13.335   7.660  0.2518 -0.4294 -0.0445
  780POPS   C1B10839   9.785  12.740   6.396 -0.0629  0.4672  0.0551
  780POPS   C2B10840   9.645  12.702   6.857  0.1687 -0.2144  0.0387
  780POPS   C3B10841   9.351  12.825   7.164  0.0495  0.0200 -0.1244
  780POPS   C4B10842   9.108  12.962   7.509  0.0276  0.2965  0.0936
  781POPS   CNO10843   6.276   3.846   4.928 -0.0697  0.3512  0.1734
  781POPS   PO410844   6.101   3.752   5.314 -0.1050 -0.2369  0.0597
  781POPS   GL110845   6.197   3.901   5.717  0.0925 -0.0307 -0.0051
  781POPS   GL210846   5.898   4.088   5.805  0.0334 -0.2296 -0.0059
  781POPS   C1A10847   6.298   3.721   6.039 -0.0921 -0.0367 -0.2081
  781POPS   D2A10848   6.538   3.571   6.395  0.3993  0.2047 -0.4495
  781POPS   C3A10849   6.638   3.774   6.919  0.0787  0.0270  0.0214
  781POPS   C4A10850   6.256   3.951   7.222  0.3803  0.2943  0.1143
  781POPS   C1B10851   5.967   4.101   6.228 -0.1062 -0.0093  0.1389
  781POPS   C2B10852   6.111   4.188   6.665 -0.1067  0.0700  0.1831
  781POPS   C3B10853   6.000   4.378   7.026 -0.1316 -0.2512  0.1634
  781POPS   C4B10854   5.820   4.535   7.361  0.1237 -0.0540  0.0287
  782POPS   CNO10855  13.467   2.708   5.255 -0.0287 -0.1075  0.0343
  782POPS   PO410856  13.048   2.952   5.289  0.1881  0.1087 -0.0721
  782POPS   GL110857  13.120   2.873   5.699  0.2429  0.5118  0.5198
  782POPS   GL210858  13.368   2.643   5.749 -0.1820  0.1753 -0.4335
  782POPS   C1A10859  12.981   2.887   6.166 -0.2091  0.3707  0.1496
  782POPS   D2A10860  12.971   2.912   6.612 -0.3743 -0.2970 -0.0537
  782POPS   C3A10861  12.820   3.271   6.816  0.1771  0.3476 -0.4025
  782POPS   C4A10862  12.781   3.637   7.022  0.0260  0.1241  0.0002
  782POPS   C1B10863  13.537   2.603   6.195  0.1367  0.1194  0.4622
  782POPS   C2B10864  13.452   2.523   6.632 -0.3042  0.1502  0.1030
  782POPS   C3B10865  13.627   2.426   7.032  0.1645  0.4633  0.0999
  782POPS   C4B10866  13.955   2.419   7.421  0.3001 -0.0859  0.0006
  783POPS   CNO10867  14.040   7.125   5.997  0.0988  0.1223 -0.0302
  783POPS   PO410868  13.893   7.493   5.768 -0.0054  0.1439 -0.1278
  783POPS   GL110869  13.730   7.514   6.196 -0.1971  0.2932 -0.1310
  783POPS   GL210870  13.558   7.288   6.234 -0.3276 -0.0184  0.0059
  783POPS   C1A10871  13.969   7.422   6.564  0.0357  0.0606 -0.1754
  783POPS   D2A10872  14.212   7.517   6.905 -0.0938  0.0607 -0.0924
  783POPS   C3A10873  14.147   7.468   7.285 -0.0554 -0.1294  0.2217
  783POPS   C4A10874  13.786   7.323   7.610  0.1373  0.0979  0.2184
  783POPS   C1B10875  13.330   7.156   6.641  0.1012 -0.1368 -0.0763
  783POPS   C2B10876  13.207   7.280   7.018  0.2586  0.2374  0.4828
  783POPS   C3B10877  12.896   7.330   7.347 -0.2014  0.4116  0.1198
  783POPS   C4B10878  12.727   7.109   7.678 -0.0615  0.0612  0.0940
  784POPS   CNO10879  18.196  16.121   5.770  0.1685  0.3510 -0.2809
  784POPS   PO410880  18.404  15.771   6.098 -0.2138 -0.3664  0.0503
  784POPS   GL110881  18.602  15.774   6.487 -0.2326  0.2269  0.0182
  784POPS   GL210882  18.372  16.020   6.606  0.0135 -0.1381  0.1029
  784POPS   C1A10883  19.032  15.711   6.684  0.2054 -0.1993 -0.1317
  784POPS   D2A10884  19.467  15.772   6.554  0.0453 -0.2416 -0.4413
  784POPS   C3A10885  19.598  16.190   6.589  0.0603 -0.0304 -0.1552
  784POPS   C4A10886  19.479  16.631   6.608  0.2478  0.0030 -0.1861
  784POPS   C1B10887  18.732  15.998   6.915 -0.1620  0.0552  0.0940
  784POPS   C2B10888  18.854  16.260   7.339  0.2496  0.1761 -0.2858
  784POPS   C3B10889  19.127  16.391   7.636 -0.2062  0.3910  0.0505
  784POPS   C4B10890  19.312  16.187   7.974 -0.1339 -0.0139  0.0828
  785POPS   CNO10891   9.549   6.476   5.809  0.0520 -0.2693 -0.2940
  785POPS   PO410892   9.213   6.661   5.521  0.2575 -0.0046  0.0290
  785POPS   GL110893   9.083   6.865   5.838 -0.1446 -0.1233  0.1387
  785POPS   GL210894   8.931   6.676   6.096 -0.0819 -0.1937 -0.3197
  785POPS   C1A10895   9.324   7.147   6.183  0.4062 -0.3015 -0.0849
  785POPS   D2A10896   9.422   7.072   6.644 -0.2054 -0.1455 -0.0619
  785POPS   C3A10897   9.353   7.149   7.079  0.1941 -0.0298  0.0134
  785POPS   C4A10898   9.129   7.294   7.361 -0.3365  0.1655  0.0373
  785POPS   C1B10899   8.540   6.751   6.421  0.0035  0.1975 -0.1299
  785POPS   C2B10900   8.457   6.719   6.898 -0.0379  0.0964 -0.2083
  785POPS   C3B10901   8.353   6.326   7.177 -0.0558  0.0646 -0.1660
  785POPS   C4B10902   8.520   5.977   6.923 -0.1982 -0.4179  0.0967
  786POPS   CNO10903   4.712  18.688   6.481  0.3680 -0.1123  0.0373
  786POPS   PO410904   4.275  18.801   6.217 -0.2646  0.0618  0.0932
  786POPS   GL110905   4.142  18.943   6.558  0.0606  0.0010  0.0332
  786POPS   GL210906   4.224  18.622   6.737  0.0107  0.0334 -0.2439
  786POPS   C1A10907   4.321  19.070   6.925  0.0894  0.1841 -0.1318
  786POPS   D2A10908   4.231  19.342   7.238  0.0626 -0.3116 -0.1668
  786POPS   C3A10909   4.191  19.381   7.609 -0.2921 -0.2861 -0.2015
  786POPS   C4A10910   4.119  19.301   8.079  0.2637  0.1886 -0.1741
  786POPS   C1B10911   4.504  18.482   6.988  0.3694  0.2122  0.1906
  786POPS   C2B10912   4.400  18.294   7.357  0.1007 -0.2295 -0.0219
  786POPS   C3B10913   4.460  18.018   7.736  0.1222 -0.1402  0.3337
  786POPS   C4B10914   4.534  17.657   7.871  0.0452 -0.2437  0.0346
  787POPS   CNO10915  14.417  17.531   5.452  0.1538  0.1662  0.1059
  787POPS   PO410916  14.378  17.158   5.667 -0.1116  0.0111  0.2364
  787POPS   GL110917  14.441  17.417   6.014  0.1032 -0.0060 -0.1885
  787POPS   GL210918  14.844  17.562   6.272 -0.2405 -0.0808 -0.0281
  787POPS   C1A10919  14.267  17.712   6.143  0.0512  0.0434 -0.0624
  787POPS   D2A10920  13.990  17.978   6.521 -0.2608 -0.2036  0.1292
  787POPS   C3A10921  13.952  17.990   6.933 -0.2437 -0.0955  0.2363
  787POPS   C4A10922  13.836  18.085   7.342  0.4844  0.1313 -0.2678
  787POPS   C1B10923  14.631  17.488   6.608 -0.0657 -0.2413 -0.0232
  787POPS   C2B10924  14.793  17.535   6.985  0.2169  0.2354  0.1423
  787POPS   C3B10925  15.233  17.442   7.178  0.1145 -0.1061  0.2983
  787POPS   C4B10926  15.491  17.715   7.506  0.1292  0.1378 -0.1513
  788POPS   CNO10927  13.524   0.856   5.985 -0.6489  0.1205 -0.1585
  788POPS   PO410928  13.840   0.705   5.706  0.1850 -0.0802  0.1254
  788POPS   GL110929  14.014   0.653   6.053 -0.4590 -0.2649  0.0381
  788POPS   GL210930  13.907   0.367   6.120 -0.0397  0.0967  0.1592
  788POPS   C1A10931  14.267   0.847   6.411 -0.3459 -0.1817  0.0041
  788POPS   D2A10932  14.633   1.042   6.522  0.0035 -0.1085  0.0079
  788POPS   C3A10933  14.924   0.992   6.782 -0.0437  0.1186 -0.0175
  788POPS   C4A10934  15.289   0.902   7.086  0.1866  0.2204 -0.3219
  788POPS   C1B10935  13.923   0.498   6.544  0.2297 -0.0332  0.3156
  788POPS   C2B10936  14.000   0.650   6.903 -0.1920  0.0237  0.0636
  788POPS   C3B10937  13.957   0.839   7.211 -0.0214 -0.3806 -0.2404
  788POPS   C4B10938  13.927   1.052   7.614 -0.1719 -0.0175  0.0691
  789POPS   CNO10939  15.167   1.910   5.269 -0.1680  0.1129 -0.0578
  789POPS   PO410940  15.047   2.132   5.658  0.1392  0.3871 -0.2878
  789POPS   GL110941  14.967   2.294   5.962 -0.0070  0.1374  0.1793
  789POPS   GL210942  14.965   2.652   6.131 -0.0109  0.0245  0.1492
  789POPS   C1A10943  14.742   2.190   6.313  0.1111  0.1177 -0.0905
  789POPS   D2A10944  14.487   2.189   6.576  0.0683  0.0564 -0.0755
  789POPS   C3A10945  14.493   2.093   7.011  0.0096  0.0561 -0.1363
  789POPS   C4A10946  14.756   2.254   7.317  0.3486 -0.1091 -0.0581
  789POPS   C1B10947  14.561   2.713   6.297 -0.3434 -0.3498  0.2053
  789POPS   C2B10948  14.247   2.693   6.533 -0.1052 -0.0694  0.1023
  789POPS   C3B10949  13.917   2.371   6.613  0.4511  0.0763  0.2481
  789POPS   C4B10950  14.043   2.149   6.844  0.1089  0.0687  0.0281
  790POPS   CNO10951   3.400   0.093   5.562 -0.1772  0.3501  0.1330
  790POPS   PO410952   3.491   0.503   5.886  0.3324 -0.0634  0.2134
  790POPS   GL110953   3.506   0.292   6.300  0.0847 -0.1859  0.1403
  790POPS   GL210954   3.681   0.398   6.562 -0.0809  0.2847 -0.4676
  790POPS   C1A10955   3.246   0.140   6.673 -0.2476 -0.1544 -0.1763
  790POPS   D2A10956   3.193  -0.064   7.020 -0.1058 -0.5017 -0.1628
  790POPS   C3A10957   3.149   0.183   7.460  0.2140 -0.0968  0.4469
  790POPS   C4A10958   3.270   0.128   8.014  0.0176 -0.2038  0.1818
  790POPS   C1B10959   3.458   0.666   6.773  0.1894  0.0429 -0.2818
  790POPS   C2B10960   3.415   1.083   6.944 -0.1382 -0.0688 -0.1202
  790POPS   C3B10961   3.441   1.397   7.148 -0.0401  0.3613 -0.2400
  790POPS   C4B10962   3.601   1.393   7.576 -0.0727 -0.2810  0.2097
  791POPS   CNO10963   8.094  12.452   4.966 -0.1900  0.1983  0.2076
  791POPS   PO410964   7.959  12.000   4.926  0.1886 -0.1858  0.5298
  791POPS   GL110965   7.922  11.961   5.329 -0.0773 -0.0428 -0.0284
  791POPS   GL210966   7.860  12.159   5.473 -0.1175  0.0012 -0.2152
  791POPS   C1A10967   7.782  11.540   5.512  0.4077  0.0819  0.0176
  791POPS   D2A10968   7.864  11.151   5.724  0.0106 -0.2667  0.1905
  791POPS   C3A10969   7.829  10.933   6.081 -0.0544 -0.0545  0.2822
  791POPS   C4A10970   8.289  10.865   6.327 -0.2275 -0.0313 -0.0339
  791POPS   C1B10971   7.879  12.435   5.882 -0.2216 -0.2021 -0.2307
  791POPS   C2B10972   8.144  12.753   6.201 -0.2077  0.0335  0.1750
  791POPS   C3B10973   8.103  12.937   6.550  0.0593  0.0474  0.2606
  791POPS   C4B10974   7.877  13.037   6.855  0.0762 -0.3382  0.0789
  792POPS   CNO10975  15.911  11.360   5.734 -0.2997 -0.4757 -0.1548
  792POPS   PO410976  16.076  11.048   6.066  0.0622  0.4150  0.0011
  792POPS   GL110977  16.207  11.160   6.472  0.1644  0.0073  0.0221
  792POPS   GL210978  16.505  11.285   6.523 -0.0238 -0.4480 -0.2226
  792POPS   C1A10979  16.006  11.247   6.894 -0.2679  0.2711 -0.3467
  792POPS   D2A10980  15.847  11.173   7.367 -0.0351 -0.1081  0.1501
  792POPS   C3A10981  15.849  11.014   7.645  0.2101 -0.0058  0.0004
  792POPS   C4A10982  15.574  10.776   7.881  0.0980  0.4563 -0.2117
  792POPS   C1B10983  16.490  10.996   6.882  0.3392 -0.1047 -0.2171
  792POPS   C2B10984  16.310  10.998   7.261  0.1219  0.1010  0.0141
  792POPS   C3B10985  16.304  11.101   7.678  0.1188 -0.1453  0.3903
  792POPS   C4B10986  16.106  11.258   8.121 -0.0988 -0.0458  0.0981
  793POPS   CNO10987  13.322   3.654   4.862 -0.2659 -0.2092 -0.1399
  793POPS   PO410988  13.134   3.436   5.281  0.0264  0.0617 -0.0563
  793POPS   GL110989  12.914   3.474   5.727 -0.0623  0.1746 -0.0086
  793POPS   GL210990  13.171   3.328   5.992 -0.2049  0.1572 -0.2086
  793POPS   C1A10991  12.706   3.642   6.045 -0.1639 -0.3164 -0.1902
  793POPS   D2A10992  12.590   3.617   6.548 -0.0266 -0.2363  0.1861
  793POPS   C3A10993  12.431   3.927   6.791  0.1925 -0.0297  0.4168
  793POPS   C4A10994  12.538   4.137   7.104 -0.0851 -0.1121 -0.0152
  793POPS   C1B10995  13.412   3.066   6.315  0.3505  0.0396  0.1224
  793POPS   C2B10996  13.393   3.172   6.731 -0.1410 -0.1594 -0.2607
  793POPS   C3B10997  13.123   3.299   7.204  0.0360  0.3362 -0.0079
  793POPS   C4B10998  12.795   3.300   7.484 -0.0261  0.1790  0.1564
  794POPS   CNO10999  14.502   3.972   5.552  0.2230 -0.0433 -0.1223
  794POPS   PO411000  14.600   4.323   5.622  0.2578 -0.0147 -0.0632
  794POPS   GL111001  14.504   4.533   5.915 -0.3589  0.1056  0.0216
  794POPS   GL211002  14.745   4.540   6.033 -0.0009 -0.0455  0.0762
  794POPS   C1A11003  14.335   4.440   6.316 -0.1678  0.3795 -0.1861
  794POPS   D2A11004  14.237   4.120   6.663  0.0576 -0.3278  0.0707
  794POPS   C3A11005  14.193   4.261   7.034 -0.0387 -0.2656 -0.1082
  794POPS   C4A11006  14.373   4.579   7.226 -0.1111  0.1144  0.0088
  794POPS   C1B11007  15.131   4.617   5.994 -0.0426 -0.4730 -0.0021
  794POPS   C2B11008  15.490   4.692   6.172 -0.0147  0.0832 -0.1031
  794POPS   C3B11009  15.617   4.800   6.556 -0.2347  0.0567 -0.0801
  794POPS   C4B11010  15.540   5.135   6.778 -0.0117  0.0040 -0.0186
  795POPS   CNO11011   2.126   5.266   5.157  0.0747  0.1337 -0.0427
  795POPS   PO411012   2.286   5.622   5.444 -0.0587 -0.2199  0.2616
  795POPS   GL111013   2.232   5.391   5.795 -0.2234  0.3839 -0.0236
  795POPS   GL211014   2.173   5.091   5.824 -0.4835  0.0288 -0.0907
  795POPS   C1A11015   2.302   5.326   6.257 -0.1298  0.3462 -0.2099
  795POPS   D2A11016   2.612   5.542   6.637  0.5125  0.0443 -0.2509
  795POPS   C3A11017   2.705   5.523   6.994 -0.0241 -0.2452 -0.5004
  795POPS   C4A11018   3.048   5.441   7.250  0.1131  0.0415 -0.1665
  795POPS   C1B11019   2.331   4.858   6.162 -0.3845 -0.2648  0.0507
  795POPS   C2B11020   2.355   4.691   6.617 -0.0849 -0.1979 -0.3009
  795POPS   C3B11021   2.412   4.710   6.979  0.0163 -0.1071  0.2281
  795POPS   C4B11022   2.419   4.574   7.363 -0.2487  0.0077 -0.5458
  796POPS   CNO11023  15.168  15.006   5.945  0.1403 -0.0717 -0.0139
  796POPS   PO411024  14.688  15.005   5.793  0.0069 -0.0468 -0.2182
  796POPS   GL111025  14.748  15.035   6.311 -0.0596  0.2072  0.1023
  796POPS   GL211026  14.963  14.804   6.337  0.1902  0.2808  0.3333
  796POPS   C1A11027  14.635  15.282   6.765 -0.0626  0.2524  0.4496
  796POPS   D2A11028  14.820  15.420   7.140  0.0605  0.0605  0.1164
  796POPS   C3A11029  15.292  15.421   7.198  0.0934  0.0991 -0.1087
  796POPS   C4A11030  15.588  15.673   6.878 -0.3509 -0.1074  0.2746
  796POPS   C1B11031  14.825  14.700   6.726  0.1040  0.0241  0.1563
  796POPS   C2B11032  14.479  14.639   7.023 -0.1560 -0.1422  0.1518
  796POPS   C3B11033  14.108  14.350   7.118  0.3906  0.2330  0.0514
  796POPS   C4B11034  13.762  14.344   7.344  0.0190  0.1051  0.0751
  797POPS   CNO11035   2.649  13.907   5.299 -0.1127 -0.2242  0.1016
  797POPS   PO411036   2.951  13.836   5.605 -0.2879  0.0775  0.0818
  797POPS   GL111037   2.947  13.887   5.982  0.0879  0.4039 -0.2029
  797POPS   GL211038   2.713  13.926   6.198 -0.1349 -0.0466 -0.3541
  797POPS   C1A11039   3.139  14.160   6.407 -0.5694 -0.0990  0.1138
  797POPS   D2A11040   3.302  14.261   6.803  0.2601 -0.1789  0.1563
  797POPS   C3A11041   3.331  13.949   7.192  0.0634  0.0152 -0.0354
  797POPS   C4A11042   3.277  13.713   7.641 -0.2063  0.1688 -0.1400
  797POPS   C1B11043   2.717  13.801   6.587 -0.1335 -0.0358  0.1882
  797POPS   C2B11044   2.773  14.126   6.862 -0.3450 -0.1024 -0.3510
  797POPS   C3B11045   2.682  14.404   7.245 -0.3892 -0.0269  0.3950
  797POPS   C4B11046   2.691  14.491   7.708  0.1036  0.0281 -0.3011
  798POPS   CNO11047  16.629   1.878   6.032  0.1925  0.0284  0.1570
  798POPS   PO411048  16.203   1.809   5.964 -0.0947 -0.1295  0.0648
  798POPS   GL111049  16.169   1.831   6.354  0.0166  0.0731 -0.0078
  798POPS   GL211050  16.445   1.987   6.494  0.0180  0.1598  0.1709
  798POPS   C1A11051  15.928   1.743   6.795 -0.2796  0.0509  0.0266
  798POPS   D2A11052  15.736   1.347   7.010  0.0542 -0.2457 -0.0863
  798POPS   C3A11053  15.744   1.261   7.427 -0.0626 -0.0478  0.1575
  798POPS   C4A11054  15.784   1.535   7.833 -0.1406 -0.1701  0.0941
  798POPS   C1B11055  16.552   2.326   6.674 -0.0072 -0.0637 -0.3425
  798POPS   C2B11056  16.707   2.362   7.115  0.1196 -0.1165 -0.0202
  798POPS   C3B11057  16.836   2.581   7.472 -0.2735  0.0563 -0.1220
  798POPS   C4B11058  16.860   2.925   7.743  0.1679 -0.3163  0.1151
  799POPS   CNO11059   1.702   3.683   5.329  0.5685  0.0869  0.2367
  799POPS   PO411060   2.084   3.781   5.556  0.0704 -0.1536  0.0264
  799POPS   GL111061   2.195   3.896   5.898  0.1559 -0.1757  0.3949
  799POPS   GL211062   1.871   3.862   6.023 -0.0202 -0.3074 -0.1312
  799POPS   C1A11063   2.172   3.890   6.402 -0.2640 -0.1988  0.0803
  799POPS   D2A11064   2.079   3.690   6.833 -0.4863 -0.2727 -0.1370
  799POPS   C3A11065   2.160   3.333   6.749 -0.1828 -0.0579 -0.3056
  799POPS   C4A11066   2.297   3.111   6.468  0.0681  0.1594  0.0874
  799POPS   C1B11067   1.673   3.974   6.358 -0.1791 -0.2142 -0.0583
  799POPS   C2B11068   1.816   4.023   6.725 -0.2107  0.2064  0.0571
  799POPS   C3B11069   2.013   4.307   6.984 -0.2894  0.0835  0.0052
  799POPS   C4B11070   1.985   4.769   7.258 -0.0172 -0.1122  0.0782
  800POPS   CNO11071  17.608  10.385   5.589 -0.1480  0.4690 -0.3169
  800POPS   PO411072  17.337  10.171   5.741 -0.1419  0.2714  0.0624
  800POPS   GL111073  17.447  10.165   6.121 -0.0713 -0.0254  0.1037
  800POPS   GL211074  17.116  10.090   6.230  0.0228 -0.0734 -0.4910
  800POPS   C1A11075  17.697  10.014   6.440  0.2850 -0.0350 -0.0600
  800POPS   D2A11076  18.019   9.713   6.562 -0.0305  0.0392  0.2777
  800POPS   C3A11077  18.187   9.300   6.493  0.0708 -0.1881  0.0061
  800POPS   C4A11078  18.189   8.921   6.419  0.0270 -0.0104  0.3438
  800POPS   C1B11079  17.109   9.988   6.672 -0.2115 -0.5370 -0.1415
  800POPS   C2B11080  17.204   9.770   7.008  0.0876  0.0128  0.0202
  800POPS   C3B11081  17.522   9.510   7.265  0.0719 -0.3368 -0.0117
  800POPS   C4B11082  17.903   9.541   7.591  0.1386  0.0896 -0.0242
  801POPS   CNO11083   9.745   1.220   5.035 -0.3608 -0.0790  0.1922
  801POPS   PO411084   9.786   1.490   5.436 -0.1007  0.0964  0.0251
  801POPS   GL111085   9.628   1.310   5.820 -0.1079 -0.4836 -0.2867
  801POPS   GL211086   9.311   1.345   5.815  0.2355  0.4495 -0.0237
  801POPS   C1A11087   9.691   0.902   6.028  0.1040  0.0847 -0.0633
  801POPS   D2A11088   9.544   0.724   6.414 -0.2733 -0.0204 -0.2146
  801POPS   C3A11089   9.415   0.840   6.873 -0.0837  0.2648 -0.0304
  801POPS   C4A11090   9.475   0.829   7.366 -0.3077  0.1056  0.1365
  801POPS   C1B11091   9.458   1.225   6.264  0.0486  0.0587  0.0230
  801POPS   C2B11092   9.778   1.307   6.641  0.1057  0.0476 -0.1203
  801POPS   C3B11093   9.985   1.642   6.924 -0.1408 -0.2620  0.1116
  801POPS   C4B11094   9.938   1.786   7.411 -0.2492  0.3368 -0.0086
  802POPS   CNO11095   1.438  14.711   6.241 -0.1092  0.0392  0.1520
  802POPS   PO411096   1.109  14.463   6.112  0.3548  0.2563  0.0799
  802POPS   GL111097   1.036  14.654   6.554  0.0128 -0.3200 -0.0058
  802POPS   GL211098   1.264  14.901   6.740  0.1382 -0.2209  0.2472
  802POPS   C1A11099   1.088  14.540   7.002 -0.0628  0.3494 -0.3044
  802POPS   D2A11100   1.199  14.803   7.285  0.1194  0.2819  0.0026
  802POPS   C3A11101   1.438  14.804   7.658  0.1661 -0.0443 -0.1653
  802POPS   C4A11102   1.547  15.087   8.099 -0.0299  0.2422  0.0520
  802POPS   C1B11103   1.390  15.431   6.933  0.1200 -0.0935  0.3423
  802POPS   C2B11104   1.456  15.688   7.225 -0.3928  0.0225 -0.2254
  802POPS   C3B11105   1.328  15.843   7.668  0.0798 -0.1456  0.1153
  802POPS   C4B11106   0.973  15.861   7.966  0.1492 -0.4181  0.0063
  803POPS   CNO11107   9.716   9.846   5.644  0.2169 -0.2847 -0.0822
  803POPS   PO411108   9.756  10.325   5.726 -0.1256  0.3564  0.1910
  803POPS   GL111109   9.758  10.150   6.048  0.0067 -0.1347 -0.4159
  803POPS   GL211110  10.060   9.962   6.000  0.3147 -0.0943 -0.1908
  803POPS   C1A11111   9.376  10.165   6.258  0.1627  0.2131  0.1048
  803POPS   D2A11112   9.198  10.000   6.544  0.0799  0.0834  0.0056
  803POPS   C3A11113   9.543   9.843   6.892 -0.1370  0.2527  0.1749
  803POPS   C4A11114   9.838   9.534   7.086  0.1567 -0.0974 -0.0368
  803POPS   C1B11115  10.158   9.766   6.434  0.0228 -0.2220 -0.0423
  803POPS   C2B11116  10.059   9.890   6.840  0.0040  0.1845 -0.1190
  803POPS   C3B11117   9.874  10.037   7.182  0.1989  0.1242  0.3332
  803POPS   C4B11118   9.599  10.149   7.395  0.1014 -0.1081 -0.3420
  804POPS   CNO11119  12.487   9.969   5.976 -0.1261  0.0910 -0.0538
  804POPS   PO411120  12.474   9.565   5.951  0.2211  0.2407 -0.1301
  804POPS   GL111121  12.412   9.307   6.299  0.0798  0.0499 -0.0118
  804POPS   GL211122  12.129   9.099   6.301 -0.1496  0.0020 -0.1018
  804POPS   C1A11123  12.696   8.912   6.372 -0.2883  0.1099  0.1449
  804POPS   D2A11124  12.612   8.520   6.532  0.1560 -0.1520 -0.1310
  804POPS   C3A11125  12.685   8.425   6.966  0.2368  0.1281 -0.0547
  804POPS   C4A11126  12.617   8.402   7.322 -0.3396  0.3050 -0.0609
  804POPS   C1B11127  12.202   8.799   6.650  0.0836 -0.0503  0.1612
  804POPS   C2B11128  12.203   8.795   7.077 -0.2570 -0.3949 -0.0069
  804POPS   C3B11129  12.462   8.806   7.445  0.0813  0.0574  0.0234
  804POPS   C4B11130  12.665   8.774   7.872 -0.1045 -0.0418  0.0155
  805POPS   CNO11131   1.991   4.833   5.419  0.1295 -0.1312 -0.2212
  805POPS   PO411132   1.600   4.722   5.725 -0.0049  0.0817  0.0978
  805POPS   GL111133   1.740   4.912   6.081 -0.1029  0.1896  0.1736
  805POPS   GL211134   1.826   5.329   6.087  0.0356  0.0520 -0.2609
  805POPS   C1A11135   1.903   4.974   6.483  0.1481  0.1790  0.1601
  805POPS   D2A11136   2.214   5.157   6.691 -0.0105 -0.1716  0.3670
  805POPS   C3A11137   2.270   5.263   7.013 -0.1853  0.0622  0.0922
  805POPS   C4A11138   2.436   5.148   7.355 -0.1977 -0.0197 -0.0144
  805POPS   C1B11139   1.693   5.383   6.541  0.2246 -0.1748  0.1114
  805POPS   C2B11140   1.829   5.465   6.985  0.0198  0.2291 -0.2105
  805POPS   C3B11141   1.850   5.842   7.279 -0.1014  0.2120 -0.2017
  805POPS   C4B11142   2.066   6.213   7.336 -0.2585 -0.3365  0.0677
  806POPS   CNO11143  10.714   4.565   5.523  0.1097 -0.0275  0.5012
  806POPS   PO411144  10.915   4.205   5.424 -0.1929  0.0873 -0.3684
  806POPS   GL111145  10.821   4.251   5.871 -0.1252 -0.0255  0.2051
  806POPS   GL211146  10.641   4.063   6.012 -0.0408 -0.1746  0.0106
  806POPS   C1A11147  11.021   4.394   6.320  0.1290  0.1887 -0.0009
  806POPS   D2A11148  10.913   4.775   6.483  0.1352 -0.1136 -0.0520
  806POPS   C3A11149  10.907   4.803   6.897 -0.0777  0.0185  0.2496
  806POPS   C4A11150  10.978   5.004   7.233 -0.0717 -0.0093 -0.0338
  806POPS   C1B11151  10.594   4.005   6.467  0.1068 -0.3244  0.1663
  806POPS   C2B11152  10.415   3.981   6.846  0.1048 -0.0215  0.0068
  806POPS   C3B11153  10.652   4.013   7.178 -0.0601  0.1387 -0.0374
  806POPS   C4B11154  11.032   4.006   7.315 -0.0352  0.1125 -0.2582
  807POPS   CNO11155   6.380   6.687   5.500  0.0031 -0.2055  0.3368
  807POPS   PO411156   5.940   6.954   5.288  0.0155  0.2723 -0.2864
  807POPS   GL111157   5.949   6.880   5.686  0.1388  0.1035  0.5601
  807POPS   GL211158   5.646   7.029   5.811  0.1112  0.3025  0.1124
  807POPS   C1A11159   5.813   6.560   5.968 -0.2540 -0.2018 -0.0191
  807POPS   D2A11160   5.605   6.440   6.314 -0.3914  0.0687  0.0135
  807POPS   C3A11161   5.445   6.041   6.281 -0.3749  0.1316  0.3747
  807POPS   C4A11162   5.233   5.808   6.037  0.2689  0.0449 -0.2933
  807POPS   C1B11163   5.452   6.986   6.159 -0.1616 -0.0398 -0.0423
  807POPS   C2B11164   5.062   6.967   6.468 -0.0718 -0.0511  0.1847
  807POPS   C3B11165   5.094   6.922   6.930 -0.0964  0.1985 -0.0816
  807POPS   C4B11166   4.926   6.791   7.390  0.2665  0.1789  0.0099
  808POPS   CNO11167   8.613   7.143   4.941  0.2420  0.0675 -0.3522
  808POPS   PO411168   8.875   7.465   5.184 -0.1896 -0.3019  0.0301
  808POPS   GL111169   8.861   7.596   5.550  0.5141  0.0409 -0.1600
  808POPS   GL211170   9.028   7.828   5.773  0.0704 -0.0625  0.1659
  808POPS   C1A11171   8.878   7.320   5.952  0.0187  0.3859  0.1113
  808POPS   D2A11172   8.862   7.186   6.356 -0.0442  0.2586 -0.3727
  808POPS   C3A11173   9.107   7.440   6.658  0.2607 -0.0701 -0.1064
  808POPS   C4A11174   9.282   7.727   6.792  0.0637  0.1064  0.0869
  808POPS   C1B11175   9.284   7.672   6.121  0.0047  0.3854 -0.1741
  808POPS   C2B11176   9.651   7.608   6.396 -0.0581 -0.1080  0.1090
  808POPS   C3B11177   9.683   7.457   6.869 -0.1888  0.0736  0.3988
  808POPS   C4B11178   9.564   7.589   7.219 -0.0767 -0.2091 -0.1899
  809POPS   CNO11179   5.968  13.109   5.148  0.0411  0.0589  0.4277
  809POPS   PO411180   6.275  12.943   5.352  0.1847  0.0191  0.3417
  809POPS   GL111181   6.243  12.842   5.759  0.4788  0.1526 -0.0954
  809POPS   GL211182   6.094  12.438   5.796 -0.2768 -0.2405  0.3839
  809POPS   C1A11183   6.229  12.943   6.109  0.2184 -0.0527 -0.0833
  809POPS   D2A11184   6.196  12.915   6.614 -0.0475  0.0237 -0.0542
  809POPS   C3A11185   6.273  13.173   6.869 -0.2315 -0.2212  0.1621
  809POPS   C4A11186   6.463  13.172   7.202 -0.1928 -0.1683 -0.2685
  809POPS   C1B11187   6.128  12.245   6.157  0.2474  0.2961 -0.2949
  809POPS   C2B11188   5.867  12.110   6.492 -0.0844  0.4181  0.2529
  809POPS   C3B11189   6.027  11.996   6.923  0.1676  0.0724 -0.1131
  809POPS   C4B11190   5.714  11.867   7.192 -0.3580  0.1282  0.2321
  810POPS   CNO11191   3.582   4.521   4.979 -0.0380 -0.0063  0.0617
  810POPS   PO411192   3.393   4.475   5.424  0.0491  0.0160 -0.1719
  810POPS   GL111193   3.426   4.447   5.822  0.0549  0.1004  0.1420
  810POPS   GL211194   3.293   4.267   6.110 -0.0528 -0.0830  0.1283
  810POPS   C1A11195   3.654   4.676   6.293  0.0795 -0.0683  0.0849
  810POPS   D2A11196   3.407   5.131   6.478  0.2145 -0.1585  0.2424
  810POPS   C3A11197   3.361   5.256   6.895  0.3249 -0.2610  0.2158
  810POPS   C4A11198   3.349   5.092   7.422  0.1940  0.0938 -0.0435
  810POPS   C1B11199   3.179   4.463   6.435  0.1611 -0.0894 -0.1292
  810POPS   C2B11200   3.295   4.714   6.819 -0.0647  0.3553 -0.2149
  810POPS   C3B11201   3.646   4.872   7.089 -0.0884  0.1949 -0.1332
  810POPS   C4B11202   4.037   4.994   7.228  0.1018 -0.1390 -0.2279
  811POPS   CNO11203  18.522  10.286   5.669 -0.4720 -0.1682  0.1440
  811POPS   PO411204  18.466  10.818   5.818 -0.2323  0.3149 -0.3039
  811POPS   GL111205  18.213  10.504   6.060 -0.0392 -0.0436 -0.0372
  811POPS   GL211206  18.333  10.654   6.343 -0.0180 -0.0675 -0.3799
  811POPS   C1A11207  18.185  10.176   6.494  0.0468  0.2473  0.0681
  811POPS   D2A11208  18.240  10.046   6.926  0.1122 -0.0854 -0.0072
  811POPS   C3A11209  18.701  10.001   7.105  0.2680 -0.1188 -0.1178
  811POPS   C4A11210  18.818   9.620   7.177 -0.2185  0.1031  0.0729
  811POPS   C1B11211  18.282  10.908   6.675 -0.3277 -0.1911  0.0857
  811POPS   C2B11212  18.006  11.069   7.033 -0.0627  0.3679 -0.2761
  811POPS   C3B11213  17.806  10.976   7.369  0.0318  0.3675 -0.2674
  811POPS   C4B11214  17.396  10.925   7.501 -0.1378  0.0710  0.1763
  812YOPS   CNO11215  10.955   7.010   5.961 -0.1603 -0.0400  0.1289
  812YOPS   PO411216  10.985   6.603   5.852 -0.5826  0.2385 -0.1508
  812YOPS   GL111217  11.001   6.519   6.285 -0.3852 -0.0139  0.0057
  812YOPS   GL211218  11.203   6.250   6.435 -0.1721  0.1673 -0.5307
  812YOPS   C1A11219  10.812   6.564   6.691 -0.1782 -0.3018  0.1898
  812YOPS   D2A11220  10.568   6.565   7.141  0.2969 -0.0816  0.1689
  812YOPS   C3A11221  10.705   6.576   7.532  0.4427 -0.2847  0.1813
  812YOPS   C4A11222  11.147   6.569   7.684 -0.1391  0.3261 -0.0650
  812YOPS   C1B11223  11.335   6.581   6.744 -0.0756  0.2107 -0.3118
  812YOPS   C2B11224  11.060   6.980   6.878  0.1819 -0.0580 -0.0845
  812YOPS   D3B11225  10.661   7.210   6.943 -0.3834 -0.2128  0.2364
  812YOPS   C4B11226  10.268   6.992   6.864 -0.0574 -0.3806 -0.0605
  813YOPS   CNO11227   2.074  13.771   5.564  0.3157  0.0124 -0.2245
  813YOPS   PO411228   2.310  13.514   5.714 -0.1142  0.2639 -0.3013
  813YOPS   GL111229   2.207  13.480   6.052 -0.2842  0.1191 -0.0082
  813YOPS   GL211230   2.316  13.645   6.299  0.0731  0.0362 -0.0871
  813YOPS   C1A11231   2.147  13.176   6.297 -0.3749 -0.1232  0.0875
  813YOPS   D2A11232   2.106  13.136   6.750 -0.1584 -0.2689 -0.1568
  813YOPS   C3A11233   2.013  13.016   7.155 -0.1578  0.1263 -0.1915
  813YOPS   C4A11234   2.075  13.454   7.360  0.0433  0.2087 -0.1248
  813YOPS   C1B11235   2.245  13.642   6.730  0.0202  0.0882  0.0479
  813YOPS   C2B11236   2.288  13.836   7.128 -0.0602 -0.1489 -0.1050
  813YOPS   D3B11237   2.433  14.055   7.401  0.1540  0.0850 -0.3608
  813YOPS   C4B11238   2.285  14.176   7.903  0.0074  0.1543  0.0150
  814YOPS   CNO11239  14.903  12.037   5.890  0.2529  0.2433 -0.2738
  814YOPS   PO411240  15.303  12.168   6.120  0.1533  0.2602  0.1742
  814YOPS   GL111241  15.305  12.371   6.503 -0.4040 -0.3503  0.1473
  814YOPS   GL211242  15.105  12.226   6.722 -0.0789 -0.1822 -0.0998
  814YOPS   C1A11243  15.393  12.568   6.901  0.0483 -0.1424 -0.0242
  814YOPS   D2A11244  15.351  12.575   7.253  0.0024 -0.2523  0.0856
  814YOPS   C3A11245  15.632  12.525   7.562  0.0346  0.0811  0.0300
  814YOPS   C4A11246  15.748  12.780   7.963  0.3028 -0.0661  0.0042
  814YOPS   C1B11247  15.386  12.002   7.026 -0.0430 -0.0926  0.1447
  814YOPS   C2B11248  15.509  12.042   7.432  0.1918  0.2374  0.1549
  814YOPS   D3B11249  15.830  12.026   7.760  0.0198  0.0677 -0.2455
  814YOPS   C4B11250  15.902  12.313   8.092 -0.2459  0.0479  0.2196
  815YOPS   CNO11251  12.416  17.664   5.522  0.0811 -0.1230  0.1016
  815YOPS   PO411252  12.647  17.299   5.640  0.0145  0.0631  0.0985
  815YOPS   GL111253  12.588  17.327   6.051  0.0570 -0.4831  0.0774
  815YOPS   GL211254  12.679  17.034   6.193 -0.0330 -0.0756 -0.1993
  815YOPS   C1A11255  12.894  17.474   6.432 -0.1907 -0.1957 -0.0918
  815YOPS   D2A11256  13.172  17.354   6.699 -0.1492  0.2761 -0.0512
  815YOPS   C3A11257  13.134  17.467   7.146 -0.2275 -0.0771  0.0296
  815YOPS   C4A11258  13.471  17.377   7.429 -0.1178  0.0973 -0.0587
  815YOPS   C1B11259  12.649  17.106   6.684  0.1483 -0.2424  0.0983
  815YOPS   C2B11260  12.688  17.325   7.077  0.0401 -0.0506  0.1126
  815YOPS   D3B11261  12.786  17.403   7.542  0.3683  0.2883 -0.0574
  815YOPS   C4B11262  12.560  17.792   7.587  0.0085  0.0732 -0.2493
  816YOPS   CNO11263   7.510  13.332   4.894  0.3723  0.0426 -0.1561
  816YOPS   PO411264   7.456  13.605   5.212  0.0433  0.2118  0.1180
  816YOPS   GL111265   7.419  13.532   5.701  0.0839  0.1105 -0.1272
  816YOPS   GL211266   7.464  13.936   5.945  0.1692 -0.0787  0.1228
  816YOPS   C1A11267   7.156  13.560   6.107  0.4311 -0.1859 -0.0153
  816YOPS   D2A11268   7.096  13.713   6.494  0.1967 -0.0521  0.1067
  816YOPS   C3A11269   6.895  14.044   6.761 -0.2008 -0.1313  0.0416
  816YOPS   C4A11270   7.101  14.120   7.121  0.2574 -0.3021  0.2192
  816YOPS   C1B11271   7.798  13.881   6.252  0.1335 -0.1913 -0.2518
  816YOPS   C2B11272   7.905  13.964   6.718 -0.3717 -0.0297 -0.0471
  816YOPS   D3B11273   7.908  14.247   6.914  0.2351  0.0692  0.0837
  816YOPS   C4B11274   7.572  14.322   7.036  0.0639  0.2333  0.0319
  817YOPS   CNO11275   0.942   6.489   5.488  0.0900  0.1696 -0.2963
  817YOPS   PO411276   0.850   6.093   5.618 -0.0345  0.0274 -0.0329
  817YOPS   GL111277   0.807   6.362   6.015  0.2538  0.1374  0.0284
  817YOPS   GL211278   0.659   6.684   6.137 -0.2028  0.0891 -0.0419
  817YOPS   C1A11279   0.882   6.431   6.483  0.0920  0.2961  0.2901
  817YOPS   D2A11280   0.703   6.381   6.956  0.0007 -0.2177  0.1948
  817YOPS   C3A11281   0.698   6.522   7.343  0.3947 -0.2972  0.2122
  817YOPS   C4A11282   0.914   6.949   7.418  0.1658 -0.2479 -0.0920
  817YOPS   C1B11283   0.619   7.025   6.392  0.2191  0.1265 -0.5072
  817YOPS   C2B11284   0.729   7.329   6.687 -0.2035 -0.0693  0.0711
  817YOPS   D3B11285   0.894   7.252   7.036 -0.1730  0.0552 -0.1332
  817YOPS   C4B11286   1.287   7.280   6.854 -0.1772 -0.1335  0.1843
  818YOPS   CNO11287   5.448  18.210   5.521  0.0711  0.0040 -0.3079
  818YOPS   PO411288   5.350  17.978   5.818  0.1049  0.1949  0.1602
  818YOPS   GL111289   5.239  17.965   6.322  0.2022 -0.1822 -0.1296
  818YOPS   GL211290   5.424  18.280   6.388 -0.1297 -0.1096  0.1733
  818YOPS   C1A11291   5.259  17.914   6.677  0.0399 -0.2095  0.0500
  818YOPS   D2A11292   5.056  17.703   7.027  0.1181 -0.0586  0.2509
  818YOPS   C3A11293   5.042  17.364   7.328  0.0411  0.1638  0.0302
  818YOPS   C4A11294   5.359  17.022   7.310  0.0516  0.0920  0.1754
  818YOPS   C1B11295   5.601  18.291   6.719  0.5018  0.2897  0.0023
  818YOPS   C2B11296   5.576  18.118   7.099  0.1548 -0.1289 -0.1719
  818YOPS   D3B11297   5.374  17.816   7.370  0.1064 -0.1458 -0.0009
  818YOPS   C4B11298   5.540  17.795   7.804  0.1552 -0.0219 -0.1534
  819YOPS   CNO11299  14.954   3.970   5.797 -0.3995 -0.0335  0.0174
  819YOPS   PO411300  14.777   3.567   5.768  0.2096  0.0319  0.1784
  819YOPS   GL111301  14.561   3.646   6.182  0.0945 -0.1743  0.0809
  819YOPS   GL211302  14.562   3.965   6.095 -0.0187 -0.0817  0.1671
  819YOPS   C1A11303  14.409   3.651   6.668 -0.2450 -0.0118 -0.2242
  819YOPS   D2A11304  14.324   3.725   7.093 -0.0784 -0.0375 -0.0348
  819YOPS   C3A11305  14.250   3.957   7.508 -0.1031 -0.0590  0.0503
  819YOPS   C4A11306  14.192   4.210   7.741 -0.0298  0.1385 -0.0363
  819YOPS   C1B11307  14.751   3.925   6.468  0.1649  0.0808 -0.3960
  819YOPS   C2B11308  14.643   4.099   6.950 -0.3067  0.4392 -0.1911
  819YOPS   D3B11309  14.689   4.297   7.449 -0.2652 -0.2213 -0.0949
  819YOPS   C4B11310  14.637   4.762   7.653  0.0211  0.1650  0.0722
  820YOPS   CNO11311  12.808   7.296   5.722  0.1284 -0.1366 -0.1956
  820YOPS   PO411312  12.750   6.972   5.456  0.1082 -0.0255  0.2012
  820YOPS   GL111313  12.744   6.833   5.899  0.0115 -0.3841 -0.2398
  820YOPS   GL211314  12.424   6.781   5.869 -0.1675  0.0467 -0.1751
  820YOPS   C1A11315  13.021   6.605   6.203  0.1581  0.0397  0.1928
  820YOPS   D2A11316  13.195   6.649   6.569 -0.0298 -0.0866 -0.0563
  820YOPS   C3A11317  13.366   6.737   7.009  0.0722  0.2052 -0.0404
  820YOPS   C4A11318  13.180   6.868   7.403 -0.0679 -0.1645 -0.1704
  820YOPS   C1B11319  12.557   6.597   6.255 -0.3105  0.0025 -0.3502
  820YOPS   C2B11320  12.837   6.265   6.506 -0.2472  0.2740 -0.1356
  820YOPS   D3B11321  12.921   6.374   6.903 -0.2016 -0.0078  0.0331
  820YOPS   C4B11322  12.621   6.287   7.335  0.0880 -0.3117  0.0099
  821YOPS   CNO11323  11.815   3.190   5.973 -0.0360  0.2066 -0.0026
  821YOPS   PO411324  11.632   2.951   5.567  0.1084 -0.0012  0.2958
  821YOPS   GL111325  11.576   2.707   5.844  0.0422  0.0170 -0.0633
  821YOPS   GL211326  11.774   2.427   5.844  0.0677 -0.0852  0.4413
  821YOPS   C1A11327  11.314   2.575   6.092  0.0475  0.0671 -0.0073
  821YOPS   D2A11328  11.151   2.547   6.463  0.1627  0.1069  0.2207
  821YOPS   C3A11329  11.077   2.659   6.983  0.0601 -0.0358  0.0757
  821YOPS   C4A11330  10.804   2.662   7.353 -0.0754 -0.1687 -0.0818
  821YOPS   C1B11331  11.681   2.227   6.187 -0.0606  0.0548  0.1614
  821YOPS   C2B11332  11.593   2.306   6.513  0.3698 -0.2739 -0.2803
  821YOPS   D3B11333  11.561   2.347   6.893  0.0548 -0.2796  0.2057
  821YOPS   C4B11334  11.228   2.296   7.218 -0.0900  0.2424  0.0115
  822YOPS   CNO11335  13.158   9.440   5.682  0.0749  0.1936 -0.1738
  822YOPS   PO411336  13.521   9.728   5.937  0.1270 -0.1140 -0.0736
  822YOPS   GL111337  13.320   9.711   6.376  0.0995 -0.2224  0.0571
  822YOPS   GL211338  13.211  10.048   6.638  0.2755  0.1743 -0.1095
  822YOPS   C1A11339  13.299   9.507   6.821  0.1003 -0.1800  0.0858
  822YOPS   D2A11340  13.196   9.361   7.240 -0.0119 -0.0986 -0.5860
  822YOPS   C3A11341  12.783   9.227   7.443 -0.3193 -0.2042  0.0946
  822YOPS   C4A11342  12.776   9.357   7.827  0.1007 -0.1066  0.0295
  822YOPS   C1B11343  13.233   9.908   7.072 -0.1821 -0.4724 -0.3501
  822YOPS   C2B11344  13.155   9.802   7.464 -0.1184  0.2471 -0.3040
  822YOPS   D3B11345  13.161   9.860   7.890  0.0909  0.0336  0.1635
  822YOPS   C4B11346  13.541   9.705   8.019 -0.3503 -0.0690  0.0370
  823YOPS   CNO11347   6.495   6.996   5.120 -0.2160  0.2529  0.0006
  823YOPS   PO411348   6.603   7.166   5.443 -0.0731  0.3687 -0.0748
  823YOPS   GL111349   6.595   7.044   5.902 -0.1814 -0.0573  0.3181
  823YOPS   GL211350   6.926   6.984   5.862  0.0154  0.1952  0.0509
  823YOPS   C1A11351   6.535   7.120   6.306 -0.2387  0.4171 -0.3017
  823YOPS   D2A11352   6.308   7.360   6.611  0.0381 -0.0926  0.0207
  823YOPS   C3A11353   6.004   7.485   6.570  0.1845 -0.0268  0.0323
  823YOPS   C4A11354   5.771   7.654   6.855  0.0703 -0.1330 -0.0658
  823YOPS   C1B11355   6.976   6.832   6.324  0.1557 -0.1206  0.0318
  823YOPS   C2B11356   6.905   6.957   6.784 -0.2054 -0.1470 -0.0012
  823YOPS   D3B11357   6.832   6.846   7.209 -0.0403 -0.0921 -0.0218
  823YOPS   C4B11358   6.638   7.142   7.509 -0.0204 -0.0405  0.0163
  824YOPS   CNO11359  17.731  13.894   5.816  0.0824 -0.1400  0.3538
  824YOPS   PO411360  17.656  13.483   5.965  0.1310 -0.0978  0.1856
  824YOPS   GL111361  17.683  13.600   6.389  0.1410  0.0482 -0.0106
  824YOPS   GL211362  17.388  13.649   6.511  0.0280  0.1067 -0.1828
  824YOPS   C1A11363  17.840  13.566   6.760  0.0499  0.0947  0.0125
  824YOPS   D2A11364  17.775  13.862   7.140  0.2582 -0.4265 -0.0517
  824YOPS   C3A11365  17.530  13.802   7.590  0.2810  0.0829 -0.0998
  824YOPS   C4A11366  17.095  13.647   7.597  0.0176  0.1845  0.1273
  824YOPS   C1B11367  17.399  13.228   6.683  0.0516 -0.0200  0.0772
  824YOPS   C2B11368  17.387  12.930   7.043 -0.0786 -0.2351 -0.2233
  824YOPS   D3B11369  17.696  12.637   7.055  0.2783 -0.2211 -0.2005
  824YOPS   C4B11370  17.541  12.269   6.973 -0.1110  0.0621  0.2091
  825YOPS   CNO11371  11.344   5.059   5.403  0.3767  0.2432 -0.4524
  825YOPS   PO411372  11.607   4.646   5.624  0.0275  0.0784 -0.3471
  825YOPS   GL111373  11.782   4.695   6.096  0.0583  0.1117 -0.3174
  825YOPS   GL211374  12.076   4.387   6.107 -0.3307  0.1159 -0.0488
  825YOPS   C1A11375  11.956   4.714   6.517  0.2317  0.2234  0.0714
  825YOPS   D2A11376  11.903   4.718   6.947  0.0863  0.4884  0.0882
  825YOPS   C3A11377  11.868   4.863   7.412  0.1710 -0.0312  0.0727
  825YOPS   C4A11378  11.823   4.613   7.671  0.2389  0.3702  0.0801
  825YOPS   C1B11379  12.114   4.254   6.486 -0.1431  0.0011  0.1206
  825YOPS   C2B11380  12.079   4.235   6.959  0.0975 -0.2599  0.2566
  825YOPS   D3B11381  12.000   4.344   7.261 -0.1841 -0.2838 -0.0377
  825YOPS   C4B11382  12.206   4.183   7.526 -0.4762 -0.0289  0.3820
  826YOPS   CNO11383  13.359  16.396   5.233  0.1461  0.1178  0.0172
  826YOPS   PO411384  13.703  16.238   5.431  0.1718  0.2999 -0.0158
  826YOPS   GL111385  13.655  16.223   5.889 -0.4693 -0.1484 -0.1050
  826YOPS   GL211386  13.369  16.019   6.066 -0.1644 -0.3764  0.0436
  826YOPS   C1A11387  13.587  16.455   6.183 -0.0014  0.1453  0.1182
  826YOPS   D2A11388  13.500  16.529   6.533 -0.2625  0.1353 -0.2707
  826YOPS   C3A11389  13.474  16.502   6.988 -0.0768  0.2689 -0.0588
  826YOPS   C4A11390  13.710  16.348   7.290  0.0085 -0.2558 -0.2361
  826YOPS   C1B11391  13.171  16.166   6.356  0.1024  0.0014  0.2202
  826YOPS   C2B11392  13.186  16.153   6.793 -0.0014  0.0815  0.1380
  826YOPS   D3B11393  13.226  16.078   7.220 -0.1245 -0.3114  0.3336
  826YOPS   C4B11394  12.978  16.394   7.427 -0.1492  0.1971 -0.0346
  827YOPS   CNO11395   6.829   1.180   5.694  0.0500  0.1896  0.1805
  827YOPS   PO411396   6.912   0.916   5.974 -0.1015 -0.2314 -0.4948
  827YOPS   GL111397   7.019   0.744   6.293  0.1237 -0.4822  0.2219
  827YOPS   GL211398   7.228   0.658   6.449  0.4846 -0.1725  0.0091
  827YOPS   C1A11399   6.775   0.776   6.623 -0.0110  0.1100 -0.1360
  827YOPS   D2A11400   6.862   0.924   6.954 -0.2169 -0.1938  0.0100
  827YOPS   C3A11401   7.314   1.025   7.109 -0.0658 -0.4931 -0.1073
  827YOPS   C4A11402   7.324   1.404   7.410 -0.0392  0.1373 -0.1757
  827YOPS   C1B11403   7.163   0.492   6.770  0.2210 -0.0826 -0.0937
  827YOPS   C2B11404   7.035   0.251   7.143 -0.4749 -0.0653  0.0412
  827YOPS   D3B11405   7.272   0.211   7.524  0.3095 -0.0045 -0.1767
  827YOPS   C4B11406   7.027   0.202   7.927 -0.4475 -0.0892  0.2369
  828YOPS   CNO11407  16.329   4.763   4.971  0.0679 -0.0075  0.0239
  828YOPS   PO411408  16.310   4.941   5.419  0.1840 -0.0088 -0.1965
  828YOPS   GL111409  16.215   4.984   5.812  0.0900  0.0483  0.0500
  828YOPS   GL211410  16.133   4.628   5.898 -0.0044  0.1588 -0.0080
  828YOPS   C1A11411  15.862   5.000   6.097  0.1157 -0.0119 -0.0601
  828YOPS   D2A11412  15.795   5.331   6.399  0.1216  0.1305  0.2290
  828YOPS   C3A11413  16.011   5.140   6.638 -0.1074  0.0850 -0.2538
  828YOPS   C4A11414  16.339   4.912   6.477  0.0443 -0.0310 -0.0987
  828YOPS   C1B11415  15.993   4.557   6.329  0.1174 -0.0461  0.0577
  828YOPS   C2B11416  16.080   4.587   6.781  0.0732  0.0597 -0.1519
  828YOPS   D3B11417  15.870   4.822   7.034 -0.4089 -0.0621 -0.3498
  828YOPS   C4B11418  15.728   4.470   7.252 -0.1482 -0.0955 -0.1488
  829YOPS   CNO11419  15.702   2.735   5.561  0.3048  0.0855  0.2255
  829YOPS   PO411420  15.376   2.998   5.727  0.1395  0.0608 -0.0122
  829YOPS   GL111421  15.365   3.100   6.144  0.0694 -0.0453  0.4941
  829YOPS   GL211422  15.373   2.870   6.280  0.0420  0.0364 -0.0139
  829YOPS   C1A11423  15.403   3.373   6.495 -0.0623  0.0324  0.3335
  829YOPS   D2A11424  15.385   3.416   6.924  0.2133  0.4778 -0.0820
  829YOPS   C3A11425  15.698   3.203   7.249  0.0150  0.0633  0.0582
  829YOPS   C4A11426  15.620   2.877   7.609  0.4209 -0.0358 -0.1399
  829YOPS   C1B11427  15.054   2.975   6.547  0.1626  0.1442  0.1246
  829YOPS   C2B11428  15.029   3.110   6.969 -0.0813 -0.2659 -0.0229
  829YOPS   D3B11429  15.135   3.285   7.353 -0.1741  0.0711  0.0814
  829YOPS   C4B11430  15.409   3.654   7.366 -0.2280 -0.0036 -0.2070
  830YOPS   CNO11431  15.794  17.076   5.864 -0.0250 -0.0778  0.0190
  830YOPS   PO411432  15.390  17.180   5.806 -0.1158 -0.1525 -0.0723
  830YOPS   GL111433  15.130  17.090   6.143 -0.0722  0.0504  0.1529
  830YOPS   GL211434  14.823  17.059   6.134  0.1148 -0.1791 -0.5724
  830YOPS   C1A11435  15.178  17.238   6.551 -0.1537 -0.0810 -0.3086
  830YOPS   D2A11436  15.509  17.143   6.901  0.0829  0.2406  0.2810
  830YOPS   C3A11437  15.717  16.807   6.833  0.1214 -0.0649 -0.1393
  830YOPS   C4A11438  15.754  16.657   6.374 -0.0618  0.2630 -0.2770
  830YOPS   C1B11439  14.722  16.989   6.558  0.2171 -0.0217  0.0969
  830YOPS   C2B11440  14.845  17.064   6.956  0.1609  0.0951 -0.0020
  830YOPS   D3B11441  14.863  17.129   7.384  0.3377 -0.1948 -0.1759
  830YOPS   C4B11442  14.839  17.094   7.830 -0.0032  0.4293 -0.2291
  831YOPS   CNO11443   5.920  13.355   5.940  0.1383  0.2310 -0.1820
  831YOPS   PO411444   5.829  13.143   5.613  0.5669 -0.0740  0.2717
  831YOPS   GL111445   5.749  12.820   5.991  0.0253  0.0316  0.1158
  831YOPS   GL211446   5.616  12.543   5.856  0.4288  0.1737 -0.1784
  831YOPS   C1A11447   5.773  12.557   6.413 -0.2518 -0.0016  0.3893
  831YOPS   D2A11448   5.823  12.460   6.833 -0.1499  0.2625 -0.2824
  831YOPS   C3A11449   5.710  12.461   7.282  0.2317 -0.0135 -0.1234
  831YOPS   C4A11450   5.423  12.589   7.585 -0.0706  0.2785 -0.1739
  831YOPS   C1B11451   5.588  12.223   6.053 -0.3843  0.0791  0.0747
  831YOPS   C2B11452   5.373  12.235   6.494 -0.3940 -0.0006  0.2953
  831YOPS   D3B11453   5.411  12.200   6.951  0.2285  0.3467  0.1317
  831YOPS   C4B11454   5.189  12.233   7.306  0.0765  0.0810  0.1390
  832YOPS   CNO11455   7.042  13.391   5.087 -0.2339 -0.3090 -0.2501
  832YOPS   PO411456   6.806  12.984   5.229 -0.1804 -0.0174  0.3052
  832YOPS   GL111457   6.841  12.889   5.636 -0.1854 -0.0051  0.3025
  832YOPS   GL211458   7.026  12.594   5.570  0.1360  0.1002  0.0282
  832YOPS   C1A11459   6.748  13.138   6.047  0.0577 -0.2222 -0.1335
  832YOPS   D2A11460   6.586  13.145   6.447 -0.4189 -0.0886  0.0422
  832YOPS   C3A11461   6.861  13.154   6.817  0.1180 -0.0674 -0.0214
  832YOPS   C4A11462   7.174  13.435   6.869 -0.0001  0.2763 -0.2633
  832YOPS   C1B11463   7.100  12.618   5.995 -0.3246  0.1162 -0.1835
  832YOPS   C2B11464   7.109  12.603   6.471  0.1464 -0.1315 -0.2640
  832YOPS   D3B11465   7.121  12.676   6.944 -0.1462  0.1964 -0.0083
  832YOPS   C4B11466   7.047  12.282   7.244 -0.0794  0.2985 -0.0580
  833YOPS   CNO11467   8.844  15.618   5.020 -0.0259  0.2952 -0.1385
  833YOPS   PO411468   8.522  15.411   5.290 -0.1917 -0.0400 -0.1311
  833YOPS   GL111469   8.489  15.419   5.705  0.1100 -0.2259 -0.5338
  833YOPS   GL211470   8.446  15.765   5.899 -0.0710 -0.3635 -0.4003
  833YOPS   C1A11471   8.043  15.401   5.974  0.2825 -0.0861 -0.0134
  833YOPS   D2A11472   7.931  15.411   6.438 -0.0649 -0.0460  0.1343
  833YOPS   C3A11473   7.813  15.363   6.878  0.0422  0.0384  0.2232
  833YOPS   C4A11474   7.723  14.935   6.925  0.0815 -0.0275 -0.2025
  833YOPS   C1B11475   8.613  15.997   6.196  0.0804  0.0274  0.2934
  833YOPS   C2B11476   8.998  16.187   6.361 -0.1562  0.2568  0.0379
  833YOPS   D3B11477   9.292  16.105   6.638 -0.1664 -0.4271  0.4274
  833YOPS   C4B11478   9.136  16.178   7.080 -0.2188 -0.0153 -0.1268
  834YOPS   CNO11479   1.587   3.481   5.840  0.0127 -0.0414 -0.0208
  834YOPS   PO411480   1.251   3.460   5.640  0.0630 -0.6077 -0.0842
  834YOPS   GL111481   1.116   3.638   6.129 -0.0622 -0.0154 -0.1597
  834YOPS   GL211482   1.454   3.546   6.309  0.4140  0.1778 -0.2346
  834YOPS   C1A11483   1.233   3.807   6.627 -0.0013 -0.0756 -0.1864
  834YOPS   D2A11484   1.382   4.002   7.102  0.0317  0.0465 -0.0408
  834YOPS   C3A11485   1.705   4.070   7.395 -0.0865 -0.2646  0.2110
  834YOPS   C4A11486   1.770   3.733   7.776  0.0628  0.1040 -0.1806
  834YOPS   C1B11487   1.783   3.404   6.263  0.1325 -0.0593  0.2090
  834YOPS   C2B11488   2.201   3.411   6.141 -0.2913 -0.1097  0.0031
  834YOPS   D3B11489   2.558   3.572   6.258 -0.0952  0.0513  0.2651
  834YOPS   C4B11490   2.569   3.673   6.663  0.2311 -0.0476  0.0569
  835YOPS   CNO11491   0.453   0.194   5.801  0.0519 -0.1376  0.0952
  835YOPS   PO411492   0.140  -0.210   5.928 -0.3769  0.1049  0.2789
  835YOPS   GL111493   0.230  -0.006   6.261 -0.1057 -0.1060 -0.2410
  835YOPS   GL211494  -0.060   0.044   6.468 -0.1732  0.3506 -0.0787
  835YOPS   C1A11495   0.483  -0.114   6.581 -0.2423  0.2552 -0.1126
  835YOPS   D2A11496   0.658   0.083   6.887 -0.1006 -0.0684 -0.1434
  835YOPS   C3A11497   0.575   0.074   7.472 -0.4381 -0.1607 -0.2316
  835YOPS   C4A11498   0.552   0.064   7.906  0.0776 -0.0378  0.0706
  835YOPS   C1B11499   0.064   0.045   6.872 -0.1107 -0.3047 -0.0894
  835YOPS   C2B11500   0.252  -0.133   7.170  0.2435 -0.0948 -0.2446
  835YOPS   D3B11501   0.312  -0.279   7.593 -0.2161  0.2419  0.0777
  835YOPS   C4B11502   0.232  -0.684   7.821 -0.0862 -0.0272  0.1849
  836YOPS   CNO11503   6.382  12.417   4.911  0.0281  0.0911 -0.3284
  836YOPS   PO411504   6.032  12.196   5.234  0.1851  0.0067  0.1928
  836YOPS   GL111505   6.153  11.899   5.527  0.0123  0.2026  0.0015
  836YOPS   GL211506   6.355  12.020   5.711  0.0030 -0.0279 -0.1975
  836YOPS   C1A11507   5.947  11.750   5.858  0.1012  0.0065  0.0145
  836YOPS   D2A11508   5.735  11.662   6.333  0.0645  0.0769  0.0783
  836YOPS   C3A11509   5.616  11.764   6.726  0.0120 -0.2331  0.0698
  836YOPS   C4A11510   5.316  11.671   6.991  0.1813  0.2379 -0.1295
  836YOPS   C1B11511   6.585  12.345   5.998  0.2099  0.0494  0.0901
  836YOPS   C2B11512   6.616  12.685   6.259 -0.1706 -0.3311  0.1845
  836YOPS   D3B11513   6.663  12.704   6.798  0.1988  0.0174 -0.0628
  836YOPS   C4B11514   6.699  12.294   6.881 -0.0263  0.1352 -0.2126
  837YOPS   CNO11515  11.302  17.287   5.285  0.1970  0.3912 -0.3701
  837YOPS   PO411516  11.586  17.507   5.672 -0.0510  0.2864  0.2635
  837YOPS   GL111517  11.698  17.432   6.088 -0.0692  0.0544  0.0788
  837YOPS   GL211518  11.388  17.365   6.309  0.0463  0.3826 -0.1116
  837YOPS   C1A11519  11.765  17.373   6.658 -0.0457  0.2380  0.1381
  837YOPS   D2A11520  11.639  17.292   7.058  0.0115  0.0684 -0.0228
  837YOPS   C3A11521  11.684  17.348   7.523  0.0042  0.0777  0.7298
  837YOPS   C4A11522  11.263  17.494   7.558  0.1499 -0.3151 -0.2589
  837YOPS   C1B11523  11.304  17.209   6.733  0.1247 -0.1871 -0.1436
  837YOPS   C2B11524  11.162  17.069   7.238 -0.2616 -0.0270  0.1236
  837YOPS   D3B11525  11.133  17.114   7.783  0.1574 -0.1710 -0.1426
  837YOPS   C4B11526  11.457  17.219   7.948 -0.1119 -0.1961 -0.4854
  838YOPS   CNO11527  14.336  11.577   5.552  0.2506  0.3572  0.1054
  838YOPS   PO411528  14.521  11.685   5.964 -0.2781 -0.2993 -0.1561
  838YOPS   GL111529  14.374  11.577   6.429 -0.1618 -0.0652  0.0085
  838YOPS   GL211530  14.729  11.507   6.546  0.2982 -0.1552 -0.0088
  838YOPS   C1A11531  14.318  11.569   6.799 -0.1238 -0.1328  0.1023
  838YOPS   D2A11532  14.277  11.568   7.154  0.0999 -0.2098 -0.0728
  838YOPS   C3A11533  14.367  11.735   7.510  0.1239 -0.5449 -0.0767
  838YOPS   C4A11534  14.136  11.569   7.689 -0.0151  0.5153 -0.1579
  838YOPS   C1B11535  15.085  11.530   6.716  0.0484  0.2597  0.0613
  838YOPS   C2B11536  15.495  11.456   6.901 -0.1814 -0.1693  0.0929
  838YOPS   D3B11537  15.823  11.660   7.183  0.0619 -0.0808 -0.0547
  838YOPS   C4B11538  15.634  11.585   7.613  0.0491  0.0494  0.1748
  839YOPS   CNO11539   6.025   2.600   5.439 -0.1439 -0.1892  0.2182
  839YOPS   PO411540   5.712   2.668   5.485  0.0461 -0.0697  0.0910
  839YOPS   GL111541   5.700   2.946   5.789 -0.2594  0.2111  0.1145
  839YOPS   GL211542   5.474   3.023   5.890 -0.1965  0.5201  0.1998
  839YOPS   C1A11543   6.078   3.142   6.000 -0.0415 -0.1472 -0.1663
  839YOPS   D2A11544   6.002   3.360   6.389  0.1490  0.0769  0.1571
  839YOPS   C3A11545   6.007   3.648   6.688 -0.1474 -0.0419 -0.1309
  839YOPS   C4A11546   5.790   3.884   7.047  0.0222  0.4901  0.0755
  839YOPS   C1B11547   5.437   3.020   6.245  0.0846 -0.1372 -0.1895
  839YOPS   C2B11548   5.383   2.925   6.765 -0.0284  0.2588 -0.1996
  839YOPS   D3B11549   4.995   3.045   7.067 -0.1174  0.1546 -0.2067
  839YOPS   C4B11550   4.933   3.142   7.564  0.1939 -0.0432 -0.1506
  840YOPS   CNO11551   6.368   9.131   5.231 -0.0524 -0.0047 -0.3371
  840YOPS   PO411552   6.267   9.612   5.298  0.0688 -0.3405  0.1306
  840YOPS   GL111553   6.104   9.510   5.677 -0.0485 -0.0133  0.0322
  840YOPS   GL211554   5.900   9.237   5.779 -0.0532 -0.0697  0.0582
  840YOPS   C1A11555   6.198   9.431   6.160 -0.0891 -0.1918 -0.0175
  840YOPS   D2A11556   6.000   9.240   6.520  0.2533 -0.0476  0.4054
  840YOPS   C3A11557   5.838   8.763   6.728  0.4705 -0.1609 -0.1388
  840YOPS   C4A11558   6.182   8.619   6.933  0.0895 -0.1663 -0.2191
  840YOPS   C1B11559   5.749   9.540   6.129  0.2422 -0.3911 -0.1087
  840YOPS   C2B11560   5.720   9.663   6.510 -0.0561  0.0742  0.3239
  840YOPS   D3B11561   5.680   9.412   6.962  0.1405 -0.4440 -0.0036
  840YOPS   C4B11562   5.391   9.142   6.812  0.0693 -0.2887 -0.4301
  841YOPS   CNO11563   3.489  16.512   5.755  0.4308 -0.1424  0.0320
  841YOPS   PO411564   3.411  16.815   5.992  0.0627  0.0907 -0.2856
  841YOPS   GL111565   3.152  16.841   6.437  0.0877  0.1727 -0.0019
  841YOPS   GL211566   2.831  16.873   6.425 -0.0831 -0.4685 -0.0541
  841YOPS   C1A11567   3.219  16.742   6.832 -0.1359 -0.4025  0.0060
  841YOPS   D2A11568   3.214  16.538   7.025  0.0150  0.1540 -0.1150
  841YOPS   C3A11569   3.025  16.493   7.343 -0.2135 -0.1947  0.2064
  841YOPS   C4A11570   3.238  16.240   7.571 -0.0633  0.3567 -0.2006
  841YOPS   C1B11571   2.768  16.907   6.823  0.3645 -0.3935  0.1197
  841YOPS   C2B11572   2.848  16.992   7.204 -0.0228  0.3610  0.1932
  841YOPS   D3B11573   2.860  16.959   7.645 -0.2751 -0.3306 -0.2729
  841YOPS   C4B11574   2.703  17.323   7.892  0.2648 -0.2031  0.0409
  842POPE   NH311575   9.192   8.940   5.707 -0.1107 -0.0154 -0.1787
  842POPE   PO411576   9.535   9.307   5.626  0.2846 -0.0428  0.0385
  842POPE   GL111577   9.509   9.218   6.125 -0.3265 -0.0229 -0.2746
  842POPE   GL211578   9.449   8.843   6.156 -0.0986  0.1212  0.1118
  842POPE   C1A11579   9.361   9.377   6.596 -0.0190 -0.0673 -0.0162
  842POPE   D2A11580   9.085   9.620   6.875 -0.3218  0.3317 -0.0459
  842POPE   C3A11581   9.031   9.870   7.192 -0.3992  0.0804 -0.0749
  842POPE   C4A11582   8.732  10.096   7.428  0.0680 -0.0055  0.2857
  842POPE   C1B11583   9.142   8.955   6.411  0.2911  0.0483  0.1522
  842POPE   C2B11584   8.866   9.064   6.667  0.3615 -0.1087  0.2383
  842POPE   C3B11585   8.772   9.252   7.060 -0.2625 -0.1568 -0.1650
  842POPE   C4B11586   8.735   9.524   7.393  0.0136  0.0282 -0.3227
  843POPE   NH311587  14.608   7.111   5.597 -0.0669  0.0891  0.1719
  843POPE   PO411588  14.927   6.740   5.581  0.3116  0.0574  0.4886
  843POPE   GL111589  14.914   6.777   5.932 -0.0317 -0.2930 -0.1122
  843POPE   GL211590  15.304   6.819   6.082  0.1555  0.0614 -0.0015
  843POPE   C1A11591  14.903   7.097   6.221 -0.2893 -0.0965  0.2326
  843POPE   D2A11592  14.874   7.074   6.741  0.2056 -0.1212  0.2934
  843POPE   C3A11593  14.681   6.876   7.134  0.0720  0.0366 -0.0766
  843POPE   C4A11594  14.789   6.511   7.386 -0.0205 -0.0969 -0.2816
  843POPE   C1B11595  15.294   6.930   6.482 -0.0126  0.0847 -0.0590
  843POPE   C2B11596  15.302   6.867   6.959 -0.1323 -0.3792 -0.0777
  843POPE   C3B11597  15.145   6.922   7.316 -0.0400 -0.1530 -0.4179
  843POPE   C4B11598  15.023   7.258   7.606 -0.1214 -0.1344 -0.2577
  844POPE   NH311599  10.166  13.544   5.800  0.2580  0.2601 -0.1029
  844POPE   PO411600   9.861  13.831   5.779 -0.1598  0.2089 -0.2678
  844POPE   GL111601   9.915  13.986   6.196 -0.1027  0.2629  0.2954
  844POPE   GL211602  10.103  13.759   6.255  0.1774  0.2625  0.1802
  844POPE   C1A11603   9.820  14.314   6.533 -0.0717 -0.1217  0.0359
  844POPE   D2A11604   9.867  14.177   6.982 -0.3500 -0.0711 -0.1586
  844POPE   C3A11605   9.601  14.306   7.361  0.0120 -0.1197  0.3967
  844POPE   C4A11606   9.358  14.210   7.706 -0.1411  0.1186  0.2433
  844POPE   C1B11607  10.240  13.911   6.623 -0.0205 -0.0566  0.2157
  844POPE   C2B11608  10.259  13.889   7.037 -0.2647  0.2401 -0.2536
  844POPE   C3B11609  10.529  13.694   7.344  0.1582 -0.1583  0.1511
  844POPE   C4B11610  11.031  13.757   7.428  0.5192 -0.3014 -0.1667
  845POPE   NH311611  17.537  16.690   5.972 -0.3131  0.0929 -0.1366
  845POPE   PO411612  17.300  16.327   5.909 -0.0648  0.0336 -0.1447
  845POPE   GL111613  17.344  16.375   6.369  0.1184  0.2792  0.2933
  845POPE   GL211614  17.341  15.966   6.448  0.0555 -0.1457 -0.0406
  845POPE   C1A11615  17.384  16.375   6.782 -0.0088 -0.2795  0.0470
  845POPE   D2A11616  17.249  16.368   7.209  0.1182  0.0384  0.2833
  845POPE   C3A11617  17.137  16.697   7.552 -0.3385 -0.2010 -0.0074
  845POPE   C4A11618  17.041  16.752   7.947 -0.0309 -0.0183  0.0005
  845POPE   C1B11619  17.118  15.896   6.882 -0.1425  0.1620 -0.0992
  845POPE   C2B11620  16.933  16.006   7.276  0.2016  0.1805  0.0085
  845POPE   C3B11621  16.706  16.432   7.279 -0.1035 -0.1936  0.0277
  845POPE   C4B11622  16.935  16.824   7.149 -0.3193 -0.1279  0.1644
  846POPE   NH311623   5.605   7.986   5.542  0.1586 -0.0358  0.1311
  846POPE   PO411624   5.350   8.295   5.527  0.1466 -0.2047 -0.2214
  846POPE   GL111625   5.534   8.471   5.953 -0.0538 -0.0498 -0.3481
  846POPE   GL211626   5.845   8.340   6.077  0.2045  0.0274 -0.1177
  846POPE   C1A11627   5.453   8.699   6.291 -0.1681  0.0875 -0.0575
  846POPE   D2A11628   5.349   8.569   6.686 -0.0608  0.1425  0.1310
  846POPE   C3A11629   5.153   8.782   6.998  0.0763 -0.0634 -0.1052
  846POPE   C4A11630   4.970   9.033   7.346  0.4581 -0.2892  0.3480
  846POPE   C1B11631   5.788   8.329   6.483  0.0693 -0.1620  0.0787
  846POPE   C2B11632   5.886   8.215   6.888  0.1233  0.1761  0.3743
  846POPE   C3B11633   5.959   8.014   7.251  0.2830 -0.0054 -0.1161
  846POPE   C4B11634   5.703   7.739   7.619 -0.1228  0.0773  0.2091
  847POPE   NH311635   5.597   4.044   5.341  0.1525  0.2405 -0.2215
  847POPE   PO411636   5.369   3.746   5.225 -0.2361  0.3102 -0.0413
  847POPE   GL111637   5.275   3.844   5.726 -0.0607 -0.0260  0.0427
  847POPE   GL211638   5.219   3.515   5.918  0.0158  0.2980  0.0410
  847POPE   C1A11639   5.509   3.965   6.059  0.0421 -0.0121 -0.1186
  847POPE   D2A11640   5.561   3.987   6.495 -0.0561 -0.3817 -0.0757
  847POPE   C3A11641   5.373   3.831   6.801 -0.1515  0.1638  0.1086
  847POPE   C4A11642   5.398   3.806   7.273  0.0827 -0.0346 -0.0792
  847POPE   C1B11643   5.410   3.522   6.222  0.1767  0.0535  0.0764
  847POPE   C2B11644   5.513   3.403   6.577 -0.1950 -0.0738 -0.2414
  847POPE   C3B11645   5.448   3.424   6.986 -0.1645 -0.2054  0.3321
  847POPE   C4B11646   5.380   3.248   7.363 -0.2708 -0.3769 -0.3269
  848POPE   NH311647   3.888   4.418   5.509 -0.0739  0.2207 -0.0452
  848POPE   PO411648   4.159   4.217   5.453  0.0703 -0.1235  0.1745
  848POPE   GL111649   4.344   4.246   5.789  0.0577  0.1292  0.0393
  848POPE   GL211650   4.281   4.612   5.869 -0.1513  0.1070 -0.0366
  848POPE   C1A11651   4.410   4.135   6.130  0.1345 -0.3679  0.1468
  848POPE   D2A11652   4.375   3.742   6.406  0.2495  0.1243  0.2330
  848POPE   C3A11653   4.398   3.329   6.198 -0.0248 -0.2079  0.0546
  848POPE   C4A11654   4.492   2.926   6.299 -0.2604 -0.0657  0.0341
  848POPE   C1B11655   4.264   4.526   6.388  0.1552 -0.4379 -0.0760
  848POPE   C2B11656   4.040   4.774   6.746 -0.0815  0.3958  0.1304
  848POPE   C3B11657   3.858   5.136   6.734  0.0797  0.2002  0.2708
  848POPE   C4B11658   3.760   5.436   7.056  0.0187  0.1272 -0.1535
  849POPE   NH311659  13.740  18.111   5.394 -0.0083 -0.2141 -0.0120
  849POPE   PO411660  13.364  18.007   5.481 -0.0575 -0.1166 -0.2962
  849POPE   GL111661  13.283  18.177   5.896 -0.1558 -0.0067 -0.2142
  849POPE   GL211662  13.057  18.283   5.959 -0.5687 -0.0741  0.1538
  849POPE   C1A11663  13.136  17.912   6.384  0.1505  0.1072 -0.1068
  849POPE   D2A11664  13.074  17.890   6.755  0.0601 -0.0023  0.0065
  849POPE   C3A11665  13.424  17.811   6.852 -0.1958  0.0394 -0.0805
  849POPE   C4A11666  13.720  17.477   7.004  0.1263 -0.1675 -0.2326
  849POPE   C1B11667  13.187  18.453   6.303  0.1310  0.0341  0.1933
  849POPE   C2B11668  12.829  18.789   6.377  0.2276 -0.1756  0.3993
  849POPE   C3B11669  12.777  19.107   6.710 -0.1651 -0.1764  0.0095
  849POPE   C4B11670  12.588  19.051   7.117  0.0809  0.0801 -0.0775
  850POPE   NH311671   5.869  10.745   5.027 -0.1740  0.0560  0.1234
  850POPE   PO411672   6.104  10.456   5.282  0.0531 -0.2235  0.1908
  850POPE   GL111673   6.190  10.397   5.687  0.2336  0.0330 -0.1068
  850POPE   GL211674   6.244  10.112   5.629 -0.4063 -0.2979  0.1344
  850POPE   C1A11675   6.378  10.373   6.091  0.1036 -0.2065 -0.4216
  850POPE   D2A11676   6.640  10.341   6.455 -0.0872 -0.1349  0.2491
  850POPE   C3A11677   6.339  10.247   6.660  0.0992  0.1876  0.1411
  850POPE   C4A11678   6.014  10.434   6.862 -0.0026 -0.0603  0.5262
  850POPE   C1B11679   6.073   9.968   5.987  0.1480 -0.1620 -0.1702
  850POPE   C2B11680   5.984  10.068   6.380 -0.2218 -0.2230  0.2546
  850POPE   C3B11681   5.965   9.945   6.891  0.3892  0.4238  0.0323
  850POPE   C4B11682   6.039  10.143   7.237  0.0108  0.1476 -0.0052
  851POPE   NH311683   0.459   1.186   5.992  0.1044 -0.0862  0.2588
  851POPE   PO411684   0.381   0.730   5.916  0.3594  0.1414  0.0239
  851POPE   GL111685   0.307   0.884   6.329  0.0808  0.0420 -0.0216
  851POPE   GL211686   0.574   1.123   6.453  0.0931 -0.1511 -0.0640
  851POPE   C1A11687   0.264   0.918   6.774  0.1663  0.1073 -0.1391
  851POPE   D2A11688   0.163   0.977   7.182  0.1078 -0.1276  0.0457
  851POPE   C3A11689  -0.206   1.134   7.508 -0.5424 -0.1546 -0.0301
  851POPE   C4A11690  -0.331   1.357   7.909 -0.0042 -0.0116  0.0191
  851POPE   C1B11691   0.530   1.323   6.890  0.0388 -0.2412 -0.3251
  851POPE   C2B11692   0.600   1.251   7.376 -0.0622  0.4603  0.0100
  851POPE   C3B11693   0.869   1.150   7.722 -0.4707  0.0241  0.0527
  851POPE   C4B11694   1.012   1.338   7.978 -0.0147  0.1405 -0.2029
  852POPE   NH311695  17.739   1.081   5.481 -0.2794  0.0055 -0.1355
  852POPE   PO411696  18.054   1.291   5.404  0.0232  0.2250 -0.7287
  852POPE   GL111697  18.227   1.153   5.807  0.0759 -0.0082 -0.0717
  852POPE   GL211698  18.072   0.855   5.891  0.0565  0.1719  0.2510
  852POPE   C1A11699  18.483   0.998   6.105  0.1488 -0.0056  0.2649
  852POPE   D2A11700  18.504   0.812   6.444 -0.0517  0.2493  0.1215
  852POPE   C3A11701  18.208   0.771   6.758 -0.2999  0.2135 -0.1373
  852POPE   C4A11702  17.928   0.453   6.926 -0.1118  0.0162 -0.0205
  852POPE   C1B11703  18.100   1.182   6.347 -0.1410 -0.0984  0.1092
  852POPE   C2B11704  18.004   1.285   6.830  0.1237  0.4038  0.0264
  852POPE   C3B11705  18.127   1.589   7.106  0.0721  0.1127 -0.1226
  852POPE   C4B11706  18.345   1.621   7.483  0.1894  0.3346  0.0316
  853POPE   NH311707  18.770   2.179   5.753  0.2918 -0.1091 -0.1128
  853POPE   PO411708  19.123   2.640   5.867 -0.0562 -0.0239  0.1318
  853POPE   GL111709  18.944   2.294   6.176 -0.1664 -0.0048  0.0050
  853POPE   GL211710  19.149   2.187   6.341 -0.0063  0.1163  0.1074
  853POPE   C1A11711  18.475   2.274   6.313 -0.1060 -0.1581 -0.4736
  853POPE   D2A11712  18.097   2.395   6.429 -0.0399 -0.0091 -0.0476
  853POPE   C3A11713  17.672   2.370   6.423  0.3627  0.4476  0.3994
  853POPE   C4A11714  17.556   2.277   6.841  0.1230  0.2369 -0.5079
  853POPE   C1B11715  19.022   2.426   6.677 -0.3310  0.1666 -0.0787
  853POPE   C2B11716  18.598   2.441   6.813 -0.0635 -0.0490 -0.0257
  853POPE   C3B11717  18.464   2.493   7.250  0.0293 -0.1089  0.0943
  853POPE   C4B11718  18.433   2.742   7.637  0.0418 -0.0380  0.3594
  854POPE   NH311719  18.361   7.683   5.408 -0.0557 -0.0140  0.0471
  854POPE   PO411720  18.881   7.609   5.425  0.0083  0.2024  0.3083
  854POPE   GL111721  18.982   7.594   5.784 -0.2259  0.0905  0.0916
  854POPE   GL211722  19.194   7.951   5.921 -0.3009 -0.0669 -0.0400
  854POPE   C1A11723  18.787   7.468   6.172 -0.1598  0.1284 -0.0511
  854POPE   D2A11724  18.880   7.197   6.464 -0.1352  0.0224  0.0584
  854POPE   C3A11725  18.664   7.100   6.824 -0.3095 -0.0335  0.1063
  854POPE   C4A11726  18.402   7.327   7.110 -0.1980  0.0485 -0.2142
  854POPE   C1B11727  19.256   7.681   6.236 -0.4104  0.2262 -0.0750
  854POPE   C2B11728  19.099   7.604   6.639 -0.1828 -0.1111 -0.0878
  854POPE   C3B11729  18.926   7.462   7.006 -0.1236 -0.2249 -0.1620
  854POPE   C4B11730  19.118   7.686   7.396  0.1641 -0.0311 -0.0391
  855POPE   NH311731   9.133  11.728   5.726 -0.2035  0.0403  0.2441
  855POPE   PO411732   9.298  12.186   5.735 -0.3071  0.2147  0.3103
  855POPE   GL111733   9.111  12.117   6.087  0.0549 -0.0806  0.2663
  855POPE   GL211734   9.217  11.885   6.258  0.3392 -0.4892  0.0404
  855POPE   C1A11735   8.786  12.207   6.426 -0.1095  0.1684 -0.0314
  855POPE   D2A11736   8.457  12.090   6.520  0.1363 -0.0389 -0.3717
  855POPE   C3A11737   8.521  11.860   6.948 -0.0440 -0.1596  0.0494
  855POPE   C4A11738   8.236  11.848   7.312  0.1037  0.2222  0.1134
  855POPE   C1B11739   9.250  12.099   6.662  0.1384 -0.0113 -0.0814
  855POPE   C2B11740   8.933  12.129   6.900 -0.2574 -0.0268 -0.2278
  855POPE   C3B11741   8.489  12.277   7.262  0.1435 -0.1911  0.2143
  855POPE   C4B11742   8.347  12.281   7.606  0.2640 -0.0254 -0.2038
  856POPE   NH311743   9.038   6.282   5.755  0.0932  0.0810  0.0521
  856POPE   PO411744   9.173   5.850   5.763 -0.2456 -0.2075  0.1012
  856POPE   GL111745   9.191   5.898   6.086  0.3403  0.3758 -0.5609
  856POPE   GL211746   9.604   6.020   6.158 -0.0605 -0.1520 -0.0118
  856POPE   C1A11747   9.159   6.220   6.431  0.0305 -0.1651 -0.2839
  856POPE   D2A11748   8.866   6.348   6.640  0.0206  0.1113  0.1352
  856POPE   C3A11749   8.835   6.436   7.082  0.1720 -0.1437 -0.0533
  856POPE   C4A11750   8.814   6.261   7.470 -0.0593  0.3593 -0.0169
  856POPE   C1B11751   9.496   5.847   6.449 -0.1360  0.0595  0.2221
  856POPE   C2B11752   9.575   5.825   6.876 -0.0740  0.1081 -0.1992
  856POPE   C3B11753   9.917   5.978   7.064 -0.1588 -0.1005  0.0355
  856POPE   C4B11754  10.040   6.342   7.083 -0.1689 -0.1826  0.3886
  857POPE   NH311755   3.635   1.477   6.144 -0.0189  0.3277 -0.0794
  857POPE   PO411756   3.881   1.183   6.089 -0.1236 -0.3123 -0.0678
  857POPE   GL111757   3.855   1.262   6.574  0.0003 -0.2241 -0.1088
  857POPE   GL211758   3.624   1.503   6.644 -0.1931 -0.2702  0.3066
  857POPE   C1A11759   3.958   1.331   7.134 -0.0189 -0.3646  0.1734
  857POPE   D2A11760   4.100   1.235   7.545  0.0177  0.0851  0.1744
  857POPE   C3A11761   4.354   1.574   7.804 -0.2662  0.0314  0.0852
  857POPE   C4A11762   4.171   1.956   7.859  0.1605 -0.1295 -0.1805
  857POPE   C1B11763   4.018   1.694   6.790 -0.0168 -0.0258  0.2238
  857POPE   C2B11764   4.373   1.885   6.870  0.0252  0.0752  0.1200
  857POPE   C3B11765   4.577   2.057   7.170 -0.1679 -0.0543 -0.1508
  857POPE   C4B11766   4.591   2.036   7.634  0.1103 -0.0595 -0.0709
  858POPE   NH311767  10.544   1.528   5.635  0.2064 -0.2276  0.1687
  858POPE   PO411768  10.743   1.897   5.500  0.1008  0.2553  0.0949
  858POPE   GL111769  10.818   1.795   5.938  0.1905  0.1473  0.0307
  858POPE   GL211770  11.139   1.782   5.887  0.0751 -0.2636 -0.4300
  858POPE   C1A11771  10.696   1.889   6.331 -0.0644  0.0513  0.0806
  858POPE   D2A11772  10.424   1.917   6.616 -0.0242 -0.2416 -0.0889
  858POPE   C3A11773  10.119   1.630   6.432 -0.0263  0.0961  0.1235
  858POPE   C4A11774   9.961   1.280   6.175  0.1114  0.2763 -0.0853
  858POPE   C1B11775  11.184   2.076   6.181 -0.0825 -0.1144  0.0248
  858POPE   C2B11776  11.180   2.021   6.606 -0.0342  0.1898 -0.1367
  858POPE   C3B11777  10.829   1.778   6.828 -0.1315  0.0545 -0.0855
  858POPE   C4B11778  10.846   1.688   7.292 -0.0874  0.3783 -0.2051
  859POPE   NH311779   3.782   8.218   5.449 -0.0616 -0.3983 -0.0135
  859POPE   PO411780   3.382   8.540   5.355  0.1868  0.3940 -0.2896
  859POPE   GL111781   3.448   8.684   5.801 -0.1396 -0.1278 -0.0926
  859POPE   GL211782   3.532   9.055   5.937 -0.1295  0.0927 -0.1446
  859POPE   C1A11783   3.421   8.585   6.195  0.0897 -0.1339  0.0205
  859POPE   D2A11784   3.338   8.368   6.641  0.2121 -0.1039 -0.1420
  859POPE   C3A11785   3.471   8.709   6.983  0.1004 -0.3012  0.0188
  859POPE   C4A11786   3.556   8.604   7.360 -0.0241 -0.0798  0.1046
  859POPE   C1B11787   3.861   9.147   6.074  0.1858 -0.1589 -0.1719
  859POPE   C2B11788   3.822   9.282   6.435 -0.3400 -0.0230 -0.1457
  859POPE   C3B11789   3.879   9.270   6.838  0.0266  0.2360  0.3148
  859POPE   C4B11790   3.846   9.029   7.153 -0.2213  0.0383  0.3455
  860POPE   NH311791  17.051  15.694   6.129 -0.0737 -0.2790  0.0811
  860POPE   PO411792  16.550  15.817   6.210 -0.2325 -0.0635  0.1620
  860POPE   GL111793  16.022  15.791   6.293 -0.0235  0.2155 -0.1510
  860POPE   GL211794  16.023  15.600   6.583 -0.0468  0.1234 -0.2806
  860POPE   C1A11795  15.694  15.980   6.486  0.1320  0.0668  0.2434
  860POPE   D2A11796  15.558  16.337   6.661  0.0156  0.3018  0.1349
  860POPE   C3A11797  15.535  16.258   7.049 -0.0672  0.0158 -0.5038
  860POPE   C4A11798  15.664  16.175   7.468 -0.0741  0.0179  0.0983
  860POPE   C1B11799  16.120  15.759   6.989 -0.0820 -0.4215  0.2261
  860POPE   C2B11800  16.114  16.005   7.342  0.2171 -0.1926 -0.1326
  860POPE   C3B11801  16.472  16.124   7.609 -0.1302  0.2410 -0.1089
  860POPE   C4B11802  16.818  16.327   7.724  0.2156 -0.0038  0.0891
  861POPE   NH311803   9.267   7.760   5.317  0.2631 -0.1000 -0.4440
  861POPE   PO411804   9.437   8.000   5.510  0.0968 -0.0911  0.2353
  861POPE   GL111805   9.403   8.137   5.943 -0.2843 -0.0632 -0.1934
  861POPE   GL211806   9.167   8.362   5.834 -0.2059  0.1222 -0.0174
  861POPE   C1A11807   9.365   8.028   6.366 -0.1483 -0.3926  0.2493
  861POPE   D2A11808   9.303   8.213   6.849 -0.1173  0.0939  0.1826
  861POPE   C3A11809   9.298   8.078   7.177  0.0262 -0.0979 -0.0085
  861POPE   C4A11810   9.614   7.956   7.514  0.0734  0.0367  0.5179
  861POPE   C1B11811   9.087   8.454   6.296 -0.3248 -0.0501  0.1198
  861POPE   C2B11812   8.949   8.548   6.721 -0.0289  0.0023  0.1526
  861POPE   C3B11813   8.854   8.730   7.121 -0.1050  0.2326  0.1765
  861POPE   C4B11814   8.944   9.044   7.494  0.1090  0.2235 -0.2011
  862POPE   NH311815   0.557   0.405   6.255  0.2414  0.0351  0.0589
  862POPE   PO411816   0.913   0.222   6.093 -0.0210 -0.0493 -0.0989
  862POPE   GL111817   0.969   0.166   6.470 -0.0551 -0.2902 -0.0520
  862POPE   GL211818   1.196   0.430   6.553  0.2613  0.3241 -0.0833
  862POPE   C1A11819   1.130  -0.111   6.819 -0.1774 -0.1055 -0.2330
  862POPE   D2A11820   1.142  -0.155   7.249  0.0998 -0.0447  0.1096
  862POPE   C3A11821   1.520   0.022   7.364 -0.0722 -0.0784 -0.0722
  862POPE   C4A11822   1.618   0.023   7.816 -0.0639 -0.1012 -0.0831
  862POPE   C1B11823   1.158   0.382   6.984  0.0342 -0.3978 -0.0248
  862POPE   C2B11824   1.173   0.369   7.403 -0.1853  0.0662 -0.1933
  862POPE   C3B11825   1.121   0.112   7.769  0.0458  0.0708 -0.0632
  862POPE   C4B11826   0.918  -0.244   7.717 -0.0942 -0.1307 -0.0923
  863POPE   NH311827   1.084  13.437   5.726  0.0545 -0.0384  0.1016
  863POPE   PO411828   1.030  13.043   5.984 -0.1252 -0.2398  0.1249
  863POPE   GL111829   1.078  12.705   6.346 -0.0430  0.0799 -0.0567
  863POPE   GL211830   1.467  12.509   6.471 -0.1543 -0.2703 -0.1155
  863POPE   C1A11831   1.029  12.776   6.860 -0.3529  0.0959  0.0414
  863POPE   D2A11832   0.814  12.832   7.239 -0.0696 -0.3863 -0.0274
  863POPE   C3A11833   1.021  12.886   7.502 -0.2608 -0.2039 -0.2658
  863POPE   C4A11834   1.234  13.178   7.583  0.1957 -0.1136 -0.2048
  863POPE   C1B11835   1.620  12.308   6.910 -0.0874  0.1635  0.1120
  863POPE   C2B11836   1.805  12.440   7.253  0.0397  0.1266 -0.2743
  863POPE   C3B11837   2.193  12.604   7.474 -0.0102 -0.3363 -0.0927
  863POPE   C4B11838   2.581  12.476   7.778 -0.3411 -0.0628  0.0635
  864POPE   NH311839   7.590   7.908   5.230  0.1432 -0.1883 -0.1018
  864POPE   PO411840   7.554   7.632   5.549  0.0798  0.0937 -0.2211
  864POPE   GL111841   7.401   7.302   5.755  0.3569 -0.2542  0.0688
  864POPE   GL211842   7.685   7.184   6.045  0.1407 -0.1984  0.0830
  864POPE   C1A11843   7.212   7.318   6.165 -0.0895  0.1064 -0.1916
  864POPE   D2A11844   6.891   7.345   6.452 -0.0749 -0.2466  0.1597
  864POPE   C3A11845   7.227   7.516   6.816 -0.1053  0.1908 -0.2505
  864POPE   C4A11846   7.361   7.725   7.220  0.1841  0.0361  0.1888
  864POPE   C1B11847   7.761   7.305   6.353 -0.4250 -0.2296 -0.0291
  864POPE   C2B11848   7.738   7.388   6.811 -0.0656  0.2360 -0.0292
  864POPE   C3B11849   7.717   7.184   7.220  0.5957 -0.0039  0.2554
  864POPE   C4B11850   7.694   6.914   7.613 -0.1301  0.1179  0.1368
  865POPE   NH311851   8.447   2.059   5.417 -0.2515 -0.2959 -0.1053
  865POPE   PO411852   8.370   1.570   5.533  0.1741 -0.0121  0.3246
  865POPE   GL111853   8.143   1.403   5.777  0.0305  0.1661 -0.1042
  865POPE   GL211854   7.757   1.335   5.910 -0.0934 -0.0871 -0.3511
  865POPE   C1A11855   8.320   1.341   6.192  0.0507 -0.1180 -0.2713
  865POPE   D2A11856   8.108   1.360   6.617  0.2249 -0.0017  0.0139
  865POPE   C3A11857   8.203   1.306   7.108  0.0733 -0.0613  0.1725
  865POPE   C4A11858   8.588   1.237   7.302  0.2577  0.2097 -0.0999
  865POPE   C1B11859   7.799   1.489   6.242 -0.0321  0.0619  0.0332
  865POPE   C2B11860   7.626   1.543   6.660  0.1033 -0.2226 -0.0511
  865POPE   C3B11861   7.680   1.479   7.056 -0.0950  0.2788  0.1652
  865POPE   C4B11862   7.765   1.107   7.372 -0.3335 -0.4368 -0.1869
  866POPE   NH311863   0.456  18.091   5.854  0.2506  0.1129  0.2332
  866POPE   PO411864   0.002  17.995   5.916  0.0590 -0.1875 -0.0100
  866POPE   GL111865  -0.091  17.888   6.304 -0.3301  0.1545  0.0074
  866POPE   GL211866  -0.226  18.197   6.329  0.0718 -0.1758 -0.2006
  866POPE   C1A11867   0.027  17.567   6.584  0.0560  0.0425  0.0624
  866POPE   D2A11868  -0.000  17.558   6.991 -0.3483 -0.1217 -0.1417
  866POPE   C3A11869   0.217  17.377   7.298 -0.1830 -0.1128 -0.0292
  866POPE   C4A11870   0.255  16.960   7.427  0.0847 -0.2185 -0.0997
  866POPE   C1B11871  -0.186  18.350   6.714  0.5126  0.6840 -0.0058
  866POPE   C2B11872  -0.173  18.454   7.159 -0.0675  0.1261  0.1161
  866POPE   C3B11873  -0.183  18.733   7.512 -0.2249 -0.0176  0.0924
  866POPE   C4B11874   0.074  18.853   7.813 -0.0946 -0.1515  0.2006
  867POPE   NH311875  15.886   3.089   5.905  0.1361 -0.0180 -0.3455
  867POPE   PO411876  16.154   2.683   5.811  0.3974  0.2055 -0.1669
  867POPE   GL111877  16.185   2.771   6.265  0.2588 -0.3182  0.1783
  867POPE   GL211878  15.823   3.008   6.411 -0.0148  0.0846 -0.2207
  867POPE   C1A11879  16.162   2.622   6.707  0.0013  0.0299  0.1806
  867POPE   D2A11880  16.111   2.257   6.906  0.0429 -0.2547  0.0231
  867POPE   C3A11881  16.254   2.302   7.313 -0.1654  0.0346 -0.3208
  867POPE   C4A11882  16.393   2.534   7.705 -0.2351 -0.0608  0.1564
  867POPE   C1B11883  15.589   2.988   6.833  0.1252  0.0743 -0.4333
  867POPE   C2B11884  15.354   2.805   7.179  0.0424  0.1001 -0.0418
  867POPE   C3B11885  15.013   2.746   7.405  0.1068  0.0794 -0.3061
  867POPE   C4B11886  14.845   2.467   7.771  0.1400 -0.2362 -0.0630
  868POPE   NH311887  12.245  10.891   6.218 -0.1050 -0.2433  0.0273
  868POPE   PO411888  11.841  10.624   6.268 -0.2417  0.0658 -0.0116
  868POPE   GL111889  12.091  10.401   6.583  0.1149  0.2349  0.4851
  868POPE   GL211890  12.295  10.492   6.676  0.0639 -0.2550  0.0249
  868POPE   C1A11891  11.903  10.448   6.955 -0.1918  0.2164  0.0364
  868POPE   D2A11892  11.851  10.630   7.365 -0.0063 -0.0917  0.3360
  868POPE   C3A11893  11.781  10.751   7.720 -0.1598  0.1573  0.0628
  868POPE   C4A11894  11.972  10.943   8.135 -0.1666  0.1291  0.0745
  868POPE   C1B11895  12.392  10.573   7.142 -0.2194  0.0568  0.4505
  868POPE   C2B11896  12.285  10.559   7.632 -0.0960 -0.0666 -0.1932
  868POPE   C3B11897  12.074  10.445   8.052  0.4146  0.3120 -0.1277
  868POPE   C4B11898  11.987  10.565   8.564  0.0761 -0.3040  0.0683
  869POPE   NH311899  16.977   8.365   5.193 -0.0255  0.1591 -0.0074
  869POPE   PO411900  17.445   8.488   5.320 -0.1971 -0.0528 -0.0581
  869POPE   GL111901  17.639   8.443   5.760 -0.0264 -0.2017  0.1152
  869POPE   GL211902  17.422   8.584   5.926 -0.1038 -0.4574 -0.1511
  869POPE   C1A11903  17.618   8.120   6.022  0.3008  0.0297 -0.1959
  869POPE   D2A11904  17.822   7.852   6.219  0.1409 -0.1758  0.0468
  869POPE   C3A11905  17.730   7.677   6.620 -0.3854  0.3086 -0.1062
  869POPE   C4A11906  17.987   7.323   6.880  0.0836 -0.1661  0.1240
  869POPE   C1B11907  17.356   8.521   6.349  0.1819 -0.0723 -0.1164
  869POPE   C2B11908  17.094   8.747   6.834 -0.0686  0.2163  0.3063
  869POPE   C3B11909  16.937   8.889   7.256  0.0581 -0.1473  0.3412
  869POPE   C4B11910  16.706   8.587   7.485 -0.4050  0.0174  0.1192
  870POPE   NH311911  14.101   7.313   5.334 -0.2158 -0.2596 -0.1323
  870POPE   PO411912  14.043   7.002   5.548  0.0195 -0.4346  0.3438
  870POPE   GL111913  14.383   6.694   5.763  0.1870 -0.1512  0.0110
  870POPE   GL211914  14.429   6.814   5.957  0.1552 -0.0247 -0.0080
  870POPE   C1A11915  14.631   6.408   6.134  0.3395 -0.1320 -0.0556
  870POPE   D2A11916  14.962   6.529   6.403  0.1806 -0.0510  0.1631
  870POPE   C3A11917  14.773   6.509   6.751  0.2531  0.2708 -0.2160
  870POPE   C4A11918  14.659   6.192   7.056  0.4503  0.1644 -0.3544
  870POPE   C1B11919  14.525   6.847   6.444 -0.1481  0.2554 -0.0425
  870POPE   C2B11920  14.285   7.017   6.825 -0.1188 -0.1188  0.0812
  870POPE   C3B11921  14.177   6.925   7.239 -0.0610 -0.1690 -0.2154
  870POPE   C4B11922  14.425   6.932   7.687 -0.2105  0.0863 -0.0407
  871POPE   NH311923   6.314   4.729   5.516  0.0603 -0.0494  0.0089
  871POPE   PO411924   6.753   4.608   5.548  0.0522  0.2697  0.1037
  871POPE   GL111925   6.798   4.403   5.931  0.0761  0.0851  0.1112
  871POPE   GL211926   6.763   4.012   6.096 -0.1025 -0.2439  0.0862
  871POPE   C1A11927   6.592   4.585   6.294 -0.0764 -0.1794 -0.2732
  871POPE   D2A11928   6.170   4.633   6.386 -0.2155  0.0828  0.1583
  871POPE   C3A11929   6.066   4.786   6.681 -0.1361 -0.0711 -0.1847
  871POPE   C4A11930   6.249   4.940   6.966  0.0234 -0.4494  0.0643
  871POPE   C1B11931   6.518   4.097   6.365 -0.1861 -0.2091  0.1706
  871POPE   C2B11932   6.586   4.298   6.795 -0.1026 -0.1091 -0.0384
  871POPE   C3B11933   6.435   4.478   7.181 -0.1391  0.0515  0.1819
  871POPE   C4B11934   6.280   4.400   7.512  0.0128 -0.1794  0.1308
  872YOPE   NH311935   5.068   9.887   5.539 -0.1147  0.2466 -0.1191
  872YOPE   PO411936   5.227  10.111   5.243  0.0050  0.4853 -0.0105
  872YOPE   GL111937   5.145  10.344   5.610  0.1341  0.1617 -0.3216
  872YOPE   GL211938   4.897  10.623   5.646 -0.2907 -0.2359 -0.0259
  872YOPE   C1A11939   5.088  10.394   6.118 -0.2038  0.2838 -0.0796
  872YOPE   D2A11940   5.263  10.485   6.489 -0.2690 -0.1667 -0.4765
  872YOPE   C3A11941   5.079  10.525   6.834 -0.1003  0.0661 -0.0230
  872YOPE   C4A11942   4.992  10.622   7.208 -0.2021 -0.0775  0.1498
  872YOPE   C1B11943   4.999  10.878   6.047 -0.3377 -0.1339  0.1464
  872YOPE   C2B11944   5.015  10.909   6.427  0.1676 -0.2898 -0.0124
  872YOPE   D3B11945   4.993  11.010   6.886 -0.0781  0.0052 -0.2437
  872YOPE   C4B11946   5.216  11.269   7.284 -0.3877 -0.2680  0.0629
  873YOPE   NH311947   6.982   1.623   5.488 -0.1357 -0.1117 -0.5341
  873YOPE   PO411948   7.345   1.390   5.600  0.1984 -0.0897  0.3304
  873YOPE   GL111949   7.240   1.480   5.974  0.2532  0.0688  0.2755
  873YOPE   GL211950   7.157   1.856   5.885 -0.1005 -0.0126  0.2744
  873YOPE   C1A11951   7.209   1.463   6.370 -0.1668  0.2068 -0.2471
  873YOPE   D2A11952   7.104   1.236   6.705  0.1552 -0.2673 -0.5748
  873YOPE   C3A11953   6.962   1.380   7.127  0.0281  0.0667 -0.1519
  873YOPE   C4A11954   6.885   1.705   7.369 -0.1876 -0.2085  0.2284
  873YOPE   C1B11955   6.896   1.977   6.219 -0.1537  0.1919  0.2255
  873YOPE   C2B11956   6.747   1.739   6.510  0.1229  0.3088  0.0644
  873YOPE   D3B11957   6.848   1.705   6.775 -0.1626 -0.0056  0.2026
  873YOPE   C4B11958   7.251   1.713   6.980 -0.1988  0.1038 -0.0427
  874YOPE   NH311959   0.620  12.515   5.905  0.1027 -0.0928 -0.3303
  874YOPE   PO411960   0.701  12.156   6.086  0.1610 -0.0769  0.0407
  874YOPE   GL111961   0.683  12.007   6.517 -0.1120 -0.1750 -0.0952
  874YOPE   GL211962   0.424  11.793   6.554 -0.1526  0.2191 -0.0630
  874YOPE   C1A11963   0.806  11.863   6.932 -0.1694  0.0951  0.0800
  874YOPE   D2A11964   1.005  11.935   7.291 -0.0254 -0.2161  0.2873
  874YOPE   C3A11965   0.859  11.544   7.574 -0.1033  0.1041 -0.1437
  874YOPE   C4A11966   0.759  11.382   7.956 -0.0784  0.1743  0.0950
  874YOPE   C1B11967   0.364  11.789   7.065  0.1504  0.0374 -0.0878
  874YOPE   C2B11968   0.527  11.868   7.400  0.1117 -0.2175  0.2944
  874YOPE   D3B11969   0.528  11.812   7.775 -0.2349 -0.1085 -0.1283
  874YOPE   C4B11970   0.819  11.888   8.050  0.1051 -0.2548  0.0221
  875YOPE   NH311971  12.816  14.032   5.703 -0.2356 -0.0413 -0.2017
  875YOPE   PO411972  13.159  14.252   5.745 -0.3506 -0.3729  0.1989
  875YOPE   GL111973  13.206  14.232   6.167  0.1233 -0.0893  0.0648
  875YOPE   GL211974  13.274  13.901   6.240 -0.2848 -0.2167 -0.2265
  875YOPE   C1A11975  13.371  14.444   6.510 -0.2996 -0.2423  0.3716
  875YOPE   D2A11976  13.561  14.593   6.941  0.1529 -0.0062 -0.0991
  875YOPE   C3A11977  13.350  14.680   7.261 -0.1505  0.1323  0.0737
  875YOPE   C4A11978  13.301  14.569   7.739 -0.0914  0.1557 -0.0044
  875YOPE   C1B11979  13.258  14.016   6.639  0.0767 -0.3714  0.1423
  875YOPE   C2B11980  13.296  14.121   7.110  0.1154  0.2901  0.0681
  875YOPE   D3B11981  13.225  14.112   7.546 -0.1097  0.2059 -0.1164
  875YOPE   C4B11982  13.573  14.090   7.898 -0.2325  0.3023 -0.0717
  876YOPE   NH311983  13.081   8.317   5.429  0.0558  0.0810 -0.0583
  876YOPE   PO411984  13.314   8.267   5.790  0.3864  0.3239 -0.0961
  876YOPE   GL111985  13.375   8.248   6.200  0.2231  0.0944 -0.3846
  876YOPE   GL211986  13.561   8.268   6.393  0.2641  0.1306  0.5989
  876YOPE   C1A11987  13.078   8.155   6.587 -0.1495 -0.2118 -0.0441
  876YOPE   D2A11988  13.038   8.024   7.001 -0.0109 -0.2772  0.0003
  876YOPE   C3A11989  12.872   7.658   6.981 -0.2108 -0.3802  0.3954
  876YOPE   C4A11990  12.587   7.409   6.805 -0.0902 -0.3918 -0.0334
  876YOPE   C1B11991  13.541   8.261   6.863  0.2550  0.0019 -0.0849
  876YOPE   C2B11992  13.543   8.266   7.371  0.0755 -0.2706  0.4303
  876YOPE   D3B11993  13.719   8.165   7.753  0.2966 -0.1069  0.3143
  876YOPE   C4B11994  13.917   8.047   8.040  0.0967  0.2259 -0.1340
  877YOPE   NH311995   1.208   0.613   6.044 -0.2268 -0.2416  0.0963
  877YOPE   PO411996   0.889   0.838   6.147  0.0724  0.0599 -0.0011
  877YOPE   GL111997   1.158   0.997   6.533 -0.0062 -0.0759  0.1781
  877YOPE   GL211998   0.969   1.188   6.759  0.1030  0.1264  0.1866
  877YOPE   C1A11999   1.370   0.856   6.827  0.0655 -0.3305 -0.5021
  877YOPE   D2A12000   1.556   0.525   7.176 -0.1501  0.2670  0.1780
  877YOPE   C3A12001   1.938   0.626   7.404  0.3822 -0.0302 -0.0310
  877YOPE   C4A12002   2.300   0.669   7.641 -0.0460 -0.0081  0.4576
  877YOPE   C1B12003   1.105   1.020   7.227  0.3651 -0.2087  0.1215
  877YOPE   C2B12004   1.381   0.876   7.439  0.0641 -0.0490  0.0188
  877YOPE   D3B12005   1.517   0.546   7.706 -0.0863  0.1701 -0.1859
  877YOPE   C4B12006   1.481   0.406   8.133  0.2418 -0.0385  0.0797
  878YOPE   NH312007   0.871   8.746   5.627 -0.0288  0.1950  0.0078
  878YOPE   PO412008   0.771   8.423   5.358  0.1512 -0.1946 -0.2640
  878YOPE   GL112009   0.850   8.279   5.842  0.1189  0.0283 -0.0279
  878YOPE   GL212010   0.905   8.503   6.052  0.1068 -0.0926  0.0058
  878YOPE   C1A12011   0.879   7.906   6.099  0.0728  0.1490  0.0694
  878YOPE   D2A12012   1.019   7.582   6.347 -0.1304  0.0541 -0.0911
  878YOPE   C3A12013   1.355   7.307   6.335  0.2010  0.1960 -0.2194
  878YOPE   C4A12014   1.652   7.449   6.041  0.2307  0.0927 -0.1169
  878YOPE   C1B12015   0.881   8.676   6.460  0.0495 -0.0393 -0.2387
  878YOPE   C2B12016   0.994   8.519   6.817  0.0806 -0.1826  0.2830
  878YOPE   D3B12017   1.431   8.523   6.981  0.1875 -0.1950 -0.1111
  878YOPE   C4B12018   1.653   8.311   7.333  0.3215 -0.2412 -0.3271
  879YOPE   NH312019  16.558  11.455   6.058 -0.3385  0.1717  0.1161
  879YOPE   PO412020  16.723  11.851   5.977  0.0315  0.0946 -0.0464
  879YOPE   GL112021  16.745  11.743   6.428  0.1056  0.0708  0.1771
  879YOPE   GL212022  16.838  11.955   6.678 -0.0832 -0.0948 -0.0865
  879YOPE   C1A12023  16.956  11.465   6.722  0.0169  0.0240 -0.1220
  879YOPE   D2A12024  16.772  11.276   7.143  0.2383 -0.5200  0.3995
  879YOPE   C3A12025  16.415  11.499   7.290  0.0828 -0.2614 -0.1766
  879YOPE   C4A12026  16.100  11.528   7.635 -0.0748 -0.0781 -0.1970
  879YOPE   C1B12027  17.020  12.247   6.937 -0.2413  0.3975  0.2172
  879YOPE   C2B12028  17.238  12.463   7.293  0.0079  0.0008 -0.1075
  879YOPE   D3B12029  17.362  12.725   7.575  0.4788  0.3677 -0.2767
  879YOPE   C4B12030  17.215  12.864   7.971  0.0881  0.1144 -0.3933
  880YOPE   NH312031   8.194   1.329   5.101 -0.0927 -0.1473  0.0588
  880YOPE   PO412032   8.353   1.012   5.387  0.2832 -0.2176 -0.1684
  880YOPE   GL112033   8.358   0.950   5.853  0.1387 -0.3669 -0.2301
  880YOPE   GL212034   7.954   0.881   5.916 -0.0330 -0.1664  0.3298
  880YOPE   C1A12035   8.616   0.752   6.190  0.0700  0.1047 -0.2351
  880YOPE   D2A12036   8.707   0.501   6.546  0.1193  0.1635 -0.0608
  880YOPE   C3A12037   9.040   0.519   6.741  0.4493  0.0653  0.3675
  880YOPE   C4A12038   9.053   0.571   7.154  0.1131  0.1298 -0.1677
  880YOPE   C1B12039   8.077   0.926   6.291 -0.1171 -0.1056  0.0665
  880YOPE   C2B12040   8.407   0.981   6.680  0.1401 -0.1002  0.1387
  880YOPE   D3B12041   8.526   0.745   7.037 -0.0800 -0.1253 -0.0984
  880YOPE   C4B12042   8.667   0.597   7.451 -0.4032 -0.4777  0.0370
  881YOPE   NH312043   6.963   5.156   5.506 -0.2271  0.1626 -0.4519
  881YOPE   PO412044   7.172   5.531   5.526  0.0435 -0.0046 -0.1116
  881YOPE   GL112045   7.010   5.593   5.927  0.0368 -0.2760  0.3374
  881YOPE   GL212046   7.147   5.900   6.065  0.1302  0.0053  0.1449
  881YOPE   C1A12047   6.746   5.548   6.283 -0.0014  0.0760  0.2097
  881YOPE   D2A12048   6.962   5.871   6.525  0.2592 -0.0350  0.0165
  881YOPE   C3A12049   6.820   6.049   6.947  0.0541  0.3288  0.4355
  881YOPE   C4A12050   6.622   5.913   7.123 -0.0605 -0.2100  0.2101
  881YOPE   C1B12051   7.309   5.572   6.336  0.0962 -0.2016 -0.0351
  881YOPE   C2B12052   7.274   5.428   6.604 -0.3625 -0.1106  0.0119
  881YOPE   D3B12053   7.235   5.070   6.913 -0.1514 -0.0426 -0.1481
  881YOPE   C4B12054   7.425   4.864   7.234 -0.2859 -0.2510 -0.1774
  882YOPE   NH312055   2.508   9.535   5.551 -0.2327 -0.1535  0.0550
  882YOPE   PO412056   2.877   9.369   5.471 -0.0794  0.0543 -0.0719
  882YOPE   GL112057   2.837   9.379   5.906 -0.4490  0.0938 -0.0506
  882YOPE   GL212058   2.576   9.223   5.999  0.1295 -0.2756 -0.0116
  882YOPE   C1A12059   3.063   9.164   6.165 -0.2358  0.0375 -0.0827
  882YOPE   D2A12060   3.277   9.026   6.496  0.0647  0.1687  0.1370
  882YOPE   C3A12061   3.667   8.836   6.550 -0.0378 -0.2578 -0.2308
  882YOPE   C4A12062   4.104   8.690   6.246 -0.1641  0.0937 -0.2043
  882YOPE   C1B12063   2.661   9.191   6.425 -0.0200  0.0213 -0.5482
  882YOPE   C2B12064   2.823   9.142   6.807 -0.0269  0.2776 -0.2418
  882YOPE   D3B12065   3.019   8.792   7.030  0.0822  0.0315 -0.3487
  882YOPE   C4B12066   3.012   8.554   7.374 -0.1516  0.0005  0.0419
  883YOPE   NH312067   3.692   1.919   5.688  0.2108  0.0431  0.0117
  883YOPE   PO412068   3.674   2.273   5.771  0.2340 -0.1697 -0.0429
  883YOPE   GL112069   4.035   2.481   5.956 -0.0506  0.3139 -0.2259
  883YOPE   GL212070   4.333   2.301   6.049  0.0801  0.0279 -0.0037
  883YOPE   C1A12071   4.063   2.652   6.260  0.0305 -0.1384 -0.1283
  883YOPE   D2A12072   3.993   3.077   6.346 -0.2037 -0.2499 -0.0609
  883YOPE   C3A12073   4.311   3.304   6.675 -0.0547 -0.0600  0.0281
  883YOPE   C4A12074   4.396   3.250   7.081  0.2469  0.0962 -0.0601
  883YOPE   C1B12075   4.449   2.373   6.563  0.0520 -0.2713 -0.1712
  883YOPE   C2B12076   4.262   2.408   6.986 -0.0188  0.1442  0.1351
  883YOPE   D3B12077   4.194   2.347   7.449  0.1295 -0.2986 -0.1783
  883YOPE   C4B12078   4.436   2.483   7.834 -0.2573  0.2807 -0.1673
  884YOPE   NH312079  12.854  16.354   5.398  0.2464 -0.1501  0.1173
  884YOPE   PO412080  12.764  16.002   5.603 -0.1081 -0.2286  0.0103
  884YOPE   GL112081  12.630  16.082   6.078  0.0889 -0.2107 -0.7644
  884YOPE   GL212082  12.508  16.392   6.029 -0.0177  0.2121  0.0307
  884YOPE   C1A12083  12.671  16.172   6.529 -0.1932  0.0725  0.2766
  884YOPE   D2A12084  12.735  16.270   6.980  0.1590  0.1588  0.2725
  884YOPE   C3A12085  12.428  16.349   7.262  0.3259  0.0863 -0.1998
  884YOPE   C4A12086  12.194  16.591   7.478  0.0403 -0.0974  0.2383
  884YOPE   C1B12087  12.529  16.638   6.441  0.0366 -0.0622 -0.0556
  884YOPE   C2B12088  12.460  16.698   6.849  0.1166  0.3025  0.0418
  884YOPE   D3B12089  12.533  16.847   7.261 -0.0755  0.2440 -0.0037
  884YOPE   C4B12090  12.679  16.753   7.619  0.2827 -0.0371 -0.1922
  885YOPE   NH312091   1.265   9.552   5.577  0.1782 -0.0270  0.0965
  885YOPE   PO412092   0.967   9.197   5.732  0.0473 -0.0505 -0.2009
  885YOPE   GL112093   1.220   8.911   6.046  0.2278  0.1578  0.0436
  885YOPE   GL212094   1.484   8.812   5.843 -0.0103  0.1755 -0.0728
  885YOPE   C1A12095   1.394   8.793   6.429  0.0025 -0.0257  0.0660
  885YOPE   D2A12096   1.808   8.819   6.724  0.0479  0.1408 -0.0840
  885YOPE   C3A12097   1.883   9.186   7.005  0.2171 -0.1411 -0.2271
  885YOPE   C4A12098   2.104   9.260   7.333 -0.0309  0.1431 -0.3014
  885YOPE   C1B12099   1.650   9.145   6.089 -0.0389 -0.2648  0.1142
  885YOPE   C2B12100   1.730   9.203   6.445 -0.1717  0.0317 -0.0535
  885YOPE   D3B12101   2.189   9.345   6.565  0.0308  0.0104 -0.0712
  885YOPE   C4B12102   2.404   9.474   6.958  0.0916  0.1556 -0.4192
  886YOPE   NH312103  16.513  13.929   6.146  0.0972 -0.1770  0.3364
  886YOPE   PO412104  15.959  13.986   6.205 -0.1855  0.1576  0.0450
  886YOPE   GL112105  15.783  14.286   6.536 -0.0927 -0.2685  0.1172
  886YOPE   GL212106  15.906  14.548   6.675  0.1543 -0.1197 -0.1398
  886YOPE   C1A12107  15.652  14.126   6.911  0.5662 -0.0849  0.2233
  886YOPE   D2A12108  15.671  14.003   7.396 -0.0502  0.0684 -0.1180
  886YOPE   C3A12109  15.734  14.316   7.764  0.4783 -0.2061  0.2119
  886YOPE   C4A12110  16.085  14.133   8.107 -0.0847  0.3702  0.0190
  886YOPE   C1B12111  15.923  14.651   7.087  0.1277 -0.0099  0.0367
  886YOPE   C2B12112  16.004  14.728   7.463  0.1594  0.0886 -0.2659
  886YOPE   D3B12113  15.962  14.830   7.856  0.0133  0.1413 -0.0566
  886YOPE   C4B12114  16.106  15.029   8.092  0.2383  0.0132  0.1948
  887YOPE   NH312115   4.992  13.703   5.847 -0.2363 -0.2839 -0.1433
  887YOPE   PO412116   4.968  13.229   5.812  0.0765  0.3325  0.2691
  887YOPE   GL112117   5.129  13.370   6.188 -0.4205  0.0622 -0.3326
  887YOPE   GL212118   5.494  13.435   6.192 -0.3651 -0.2975 -0.2027
  887YOPE   C1A12119   5.251  13.237   6.597  0.0649 -0.4095  0.2038
  887YOPE   D2A12120   5.051  13.115   6.954  0.2732  0.0722 -0.0164
  887YOPE   C3A12121   5.355  13.179   7.203 -0.2097 -0.0405  0.1313
  887YOPE   C4A12122   5.813  13.314   7.259 -0.0054  0.1968  0.0488
  887YOPE   C1B12123   5.779  13.151   6.382  0.2213 -0.0406 -0.0831
  887YOPE   C2B12124   5.791  13.036   6.825 -0.1775  0.1030 -0.2196
  887YOPE   D3B12125   6.088  12.829   7.198  0.1441  0.2556 -0.1921
  887YOPE   C4B12126   6.249  12.738   7.576  0.1596  0.0082 -0.1742
  888YOPE   NH312127  15.333  13.619   5.944 -0.1594  0.0409  0.4589
  888YOPE   PO412128  14.881  13.493   6.023 -0.0947  0.2971 -0.0642
  888YOPE   GL112129  15.156  13.421   6.389  0.0594  0.1767 -0.3039
  888YOPE   GL212130  15.338  13.342   6.406  0.0471  0.2724  0.0806
  888YOPE   C1A12131  15.051  13.354   6.816  0.0087 -0.1119 -0.1187
  888YOPE   D2A12132  15.150  13.086   7.094  0.0702  0.0236  0.0959
  888YOPE   C3A12133  14.955  13.333   7.473  0.1299 -0.0839  0.2296
  888YOPE   C4A12134  14.908  13.601   7.816 -0.0830  0.0922  0.2134
  888YOPE   C1B12135  15.094  12.938   6.488 -0.0237  0.0503  0.0232
  888YOPE   C2B12136  14.912  12.688   6.818 -0.4260 -0.0610  0.2363
  888YOPE   D3B12137  14.924  12.434   7.097 -0.1300 -0.1848 -0.1879
  888YOPE   C4B12138  14.969  12.364   7.489  0.2605 -0.1159 -0.0158
  889YOPE   NH312139  17.962   3.259   5.780  0.0008 -0.2596  0.2774
  889YOPE   PO412140  18.271   3.027   5.917  0.0866 -0.0424 -0.3177
  889YOPE   GL112141  18.489   3.092   6.300 -0.0944  0.0385  0.2040
  889YOPE   GL212142  18.276   2.805   6.391  0.0532 -0.1561 -0.2249
  889YOPE   C1A12143  18.885   3.310   6.526  0.0798  0.2225  0.0872
  889YOPE   D2A12144  18.944   3.259   6.902  0.3695 -0.3278 -0.1451
  889YOPE   C3A12145  18.985   3.620   7.240  0.1301 -0.0186 -0.1519
  889YOPE   C4A12146  19.036   3.781   7.664  0.3074  0.2462  0.0192
  889YOPE   C1B12147  18.526   3.023   6.794 -0.3170 -0.0214 -0.0844
  889YOPE   C2B12148  18.718   2.930   7.212  0.0946  0.1441 -0.0144
  889YOPE   D3B12149  18.925   2.622   7.460 -0.0033 -0.0439  0.2165
  889YOPE   C4B12150  19.076   2.288   7.200 -0.1328 -0.1407  0.0087
  890YOPE   NH312151  17.589   4.766   5.508  0.0707 -0.2060 -0.3261
  890YOPE   PO412152  17.579   4.501   5.728 -0.0938 -0.3425 -0.2938
  890YOPE   GL112153  17.828   4.452   6.078  0.0496  0.1055 -0.2090
  890YOPE   GL212154  17.940   4.711   6.295 -0.4552  0.0754  0.0673
  890YOPE   C1A12155  17.697   4.332   6.450 -0.1668 -0.0890  0.0570
  890YOPE   D2A12156  17.536   4.245   6.882  0.1087 -0.1259  0.0835
  890YOPE   C3A12157  17.586   4.410   7.449 -0.1904 -0.2347  0.3261
  890YOPE   C4A12158  17.789   4.426   7.771  0.0640  0.2993 -0.1506
  890YOPE   C1B12159  17.849   4.752   6.734  0.0680  0.1520  0.1404
  890YOPE   C2B12160  17.861   4.969   7.028 -0.2307  0.1689 -0.0669
  890YOPE   D3B12161  17.801   4.884   7.570 -0.2864 -0.0973 -0.0404
  890YOPE   C4B12162  17.920   4.900   7.969 -0.0855 -0.1619  0.0386
  891YOPE   NH312163   7.065   7.259   5.314 -0.1676 -0.1190  0.0102
  891YOPE   PO412164   7.268   7.655   5.012  0.1646  0.1143 -0.0653
  891YOPE   GL112165   7.097   7.873   5.435  0.1034 -0.2265 -0.1527
  891YOPE   GL212166   7.018   7.594   5.681 -0.0421  0.1043  0.0772
  891YOPE   C1A12167   6.956   8.081   5.903  0.0135 -0.1798  0.6084
  891YOPE   D2A12168   6.709   8.081   6.255  0.0336  0.0812 -0.0568
  891YOPE   C3A12169   6.751   8.471   6.465  0.0658  0.0618 -0.0464
  891YOPE   C4A12170   6.581   8.829   6.754 -0.1000 -0.0118 -0.4818
  891YOPE   C1B12171   6.768   7.470   5.932  0.1169  0.0318 -0.1953
  891YOPE   C2B12172   6.458   7.582   6.184  0.2032  0.1099 -0.0579
  891YOPE   D3B12173   6.615   7.763   6.580 -0.0511  0.1241 -0.0684
  891YOPE   C4B12174   6.852   7.867   6.918  0.0954  0.0645 -0.1099
  892YOPE   NH312175   9.779  14.458   5.877 -0.1311  0.2251 -0.1351
  892YOPE   PO412176  10.148  14.649   5.750 -0.1506 -0.0977  0.0390
  892YOPE   GL112177  10.402  14.791   5.951  0.1946 -0.1149  0.1336
  892YOPE   GL212178  10.463  14.950   6.168 -0.3494 -0.3351 -0.0167
  892YOPE   C1A12179  10.682  14.520   6.140  0.0486  0.4448  0.3286
  892YOPE   D2A12180  10.640  14.138   6.325 -0.3102 -0.0628  0.0847
  892YOPE   C3A12181  10.753  14.094   6.766  0.0682  0.0044  0.1322
  892YOPE   C4A12182  10.794  14.123   7.276  0.0183 -0.5475  0.1875
  892YOPE   C1B12183  10.453  15.035   6.576 -0.0422  0.1436 -0.3161
  892YOPE   C2B12184  10.334  15.155   7.054 -0.2226 -0.1251 -0.2773
  892YOPE   D3B12185  10.386  14.880   7.313 -0.1300  0.2171 -0.0389
  892YOPE   C4B12186  10.490  14.487   7.444  0.3799 -0.1597 -0.1306
  893YOPE   NH312187   4.302  15.122   5.663  0.0338 -0.0843 -0.1892
  893YOPE   PO412188   4.836  15.184   5.751  0.1159  0.2638 -0.2802
  893YOPE   GL112189   4.637  15.046   6.151  0.0400 -0.3032  0.2481
  893YOPE   GL212190   4.383  15.069   6.182  0.1113  0.0741 -0.0854
  893YOPE   C1A12191   4.803  14.961   6.445  0.1212 -0.5239 -0.0094
  893YOPE   D2A12192   5.155  14.813   6.723 -0.2698 -0.1805  0.1271
  893YOPE   C3A12193   5.258  14.921   7.143 -0.0438 -0.1358  0.2361
  893YOPE   C4A12194   5.416  15.139   7.394 -0.0669 -0.1588  0.1858
  893YOPE   C1B12195   4.135  15.008   6.595 -0.0066 -0.3024  0.1458
  893YOPE   C2B12196   4.100  15.091   6.978  0.0231 -0.0839 -0.2440
  893YOPE   D3B12197   4.048  15.206   7.396 -0.0077 -0.2417  0.4759
  893YOPE   C4B12198   3.763  15.055   7.673 -0.1477 -0.0812  0.0829
  894YOPE   NH312199   1.783  13.710   5.974 -0.1359  0.1830 -0.1251
  894YOPE   PO412200   2.103  14.040   6.032 -0.2409 -0.4010  0.3240
  894YOPE   GL112201   2.144  14.326   6.497  0.1809 -0.1316 -0.0668
  894YOPE   GL212202   2.470  14.341   6.390 -0.1208 -0.0708  0.0213
  894YOPE   C1A12203   2.099  14.388   7.025 -0.2148  0.4643  0.2088
  894YOPE   D2A12204   2.181  14.551   7.420  0.1018 -0.0726 -0.0853
  894YOPE   C3A12205   2.313  15.061   7.275  0.0561  0.2399  0.0959
  894YOPE   C4A12206   2.636  15.405   7.225  0.0043 -0.2211 -0.0871
  894YOPE   C1B12207   2.589  14.648   6.692 -0.0602  0.0408  0.0986
  894YOPE   C2B12208   2.702  14.878   7.020 -0.2590  0.1678 -0.2352
  894YOPE   D3B12209   2.750  14.957   7.495  0.0706 -0.1012 -0.0008
  894YOPE   C4B12210   2.680  15.055   7.898 -0.0541  0.0232  0.1442
  895YOPE   NH312211  18.567   4.006   5.969 -0.0314 -0.0974  0.0802
  895YOPE   PO412212  18.940   3.770   5.977 -0.1654 -0.2648  0.0605
  895YOPE   GL112213  18.857   3.721   6.380  0.1745 -0.0575  0.1727
  895YOPE   GL212214  18.545   3.637   6.328  0.2403  0.1121 -0.2134
  895YOPE   C1A12215  19.088   3.827   6.761  0.2955  0.2011 -0.1697
  895YOPE   D2A12216  19.408   3.929   7.179  0.0358 -0.0200 -0.0017
  895YOPE   C3A12217  19.686   3.914   7.443  0.1397  0.2397  0.4172
  895YOPE   C4A12218  19.896   4.110   7.740 -0.0213 -0.1505  0.0659
  895YOPE   C1B12219  18.463   3.529   6.717 -0.0100  0.2461 -0.1501
  895YOPE   C2B12220  18.511   3.391   7.127 -0.0536 -0.2359 -0.0183
  895YOPE   D3B12221  18.526   3.214   7.595 -0.0667  0.0557 -0.0201
  895YOPE   C4B12222  18.713   3.434   7.949  0.0050  0.0457 -0.0498
  896YOPE   NH312223  11.247   8.321   5.985  0.2341  0.0851  0.0998
  896YOPE   PO412224  11.251   8.088   5.715 -0.1501  0.2777 -0.0343
  896YOPE   GL112225  10.999   7.875   6.063 -0.0455  0.2982 -0.0476
  896YOPE   GL212226  10.736   8.087   6.282 -0.0936 -0.1774  0.0670
  896YOPE   C1A12227  10.686   7.584   6.114  0.1953  0.1133 -0.0328
  896YOPE   D2A12228  10.440   7.174   6.082  0.3343  0.2114  0.0482
  896YOPE   C3A12229  10.361   6.915   6.402  0.0179 -0.1450 -0.2902
  896YOPE   C4A12230  10.334   6.441   6.692 -0.0846  0.1288  0.0051
  896YOPE   C1B12231  10.517   8.005   6.651  0.0630 -0.3934  0.1553
  896YOPE   C2B12232  10.302   7.940   7.094 -0.1768 -0.1627  0.0350
  896YOPE   D3B12233  10.053   7.754   7.417  0.2182  0.1831  0.0059
  896YOPE   C4B12234   9.986   7.406   7.753 -0.2615  0.3015 -0.1212
  897YOPE   NH312235   7.223   9.816   5.052 -0.0745  0.1057 -0.0062
  897YOPE   PO412236   7.469   9.411   5.156  0.2858  0.1490  0.1683
  897YOPE   GL112237   7.323   8.993   5.363  0.3292 -0.2015 -0.3435
  897YOPE   GL212238   7.236   9.020   5.656 -0.0691  0.1667  0.3118
  897YOPE   C1A12239   7.263   8.444   5.465 -0.2676  0.0059  0.0382
  897YOPE   D2A12240   7.398   8.140   5.730 -0.0341 -0.0377  0.2556
  897YOPE   C3A12241   7.334   7.823   6.103 -0.2447  0.1710  0.1944
  897YOPE   C4A12242   7.072   7.868   6.476 -0.0228  0.2024  0.1232
  897YOPE   C1B12243   7.398   8.662   5.877  0.0058 -0.6325  0.0780
  897YOPE   C2B12244   7.298   8.348   6.189  0.1395  0.1666 -0.0885
  897YOPE   D3B12245   7.337   8.256   6.559  0.1182 -0.0848 -0.3604
  897YOPE   C4B12246   7.313   8.054   6.873  0.0553  0.1483 -0.4570
  898YOPE   NH312247  15.514  14.510   6.158 -0.2632 -0.2920  0.1668
  898YOPE   PO412248  15.340  14.112   6.012  0.1683  0.0513 -0.1670
  898YOPE   GL112249  15.043  13.920   6.304 -0.1767 -0.0224 -0.0876
  898YOPE   GL212250  15.110  14.214   6.456 -0.1740 -0.0450  0.2825
  898YOPE   C1A12251  14.853  13.834   6.649  0.2589  0.2574 -0.1445
  898YOPE   D2A12252  14.816  13.701   7.101 -0.1830  0.0049  0.0667
  898YOPE   C3A12253  14.971  13.979   7.431 -0.2324 -0.0374 -0.0999
  898YOPE   C4A12254  14.814  14.076   7.857  0.2228  0.3226 -0.0305
  898YOPE   C1B12255  15.134  14.160   6.873  0.1979  0.1453  0.2002
  898YOPE   C2B12256  14.966  14.490   7.164  0.1361 -0.1800  0.4022
  898YOPE   D3B12257  14.899  14.539   7.650  0.1933 -0.2514 -0.1351
  898YOPE   C4B12258  14.726  14.489   8.060  0.1242 -0.0275 -0.0031
  899YOPE   NH312259  13.812  14.170   5.751  0.0162  0.0057 -0.0677
  899YOPE   PO412260  14.239  14.202   5.850  0.0576  0.1873  0.0721
  899YOPE   GL112261  14.195  13.994   6.289 -0.1779  0.1564 -0.6050
  899YOPE   GL212262  14.472  13.779   6.249 -0.1080  0.2034 -0.2517
  899YOPE   C1A12263  14.417  13.968   6.691  0.1363 -0.0117 -0.2292
  899YOPE   D2A12264  14.705  14.159   7.032  0.0065  0.4925 -0.0436
  899YOPE   C3A12265  14.483  14.313   7.418 -0.0836  0.0332  0.1791
  899YOPE   C4A12266  14.365  14.318   7.787 -0.2989  0.5601 -0.4714
  899YOPE   C1B12267  14.170  13.517   6.404  0.1109  0.3295 -0.1132
  899YOPE   C2B12268  14.102  13.600   6.873  0.1473  0.2982  0.0792
  899YOPE   D3B12269  14.293  13.791   7.114  0.3198  0.0373  0.1818
  899YOPE   C4B12270  14.487  13.831   7.467 -0.0396 -0.1678 -0.4189
  900YOPE   NH312271  10.071   3.981   4.904 -0.2154  0.0881 -0.1838
  900YOPE   PO412272   9.935   4.196   5.324  0.1183  0.2045  0.1355
  900YOPE   GL112273   9.983   3.989   5.792 -0.0850  0.1660  0.0091
  900YOPE   GL212274   9.844   3.786   6.014  0.2615  0.4115 -0.1036
  900YOPE   C1A12275  10.147   4.135   6.150 -0.1912 -0.1071  0.2222
  900YOPE   D2A12276  10.135   4.380   6.525 -0.0225  0.0621 -0.1388
  900YOPE   C3A12277  10.478   4.513   6.785 -0.0030 -0.0130 -0.3428
  900YOPE   C4A12278  10.887   4.327   6.833  0.2242  0.3902  0.0725
  900YOPE   C1B12279   9.724   3.989   6.393  0.4436  0.0704 -0.1508
  900YOPE   C2B12280   9.840   4.123   6.821  0.0484 -0.1426  0.3910
  900YOPE   D3B12281  10.084   4.171   7.215  0.2724  0.2569  0.2600
  900YOPE   C4B12282  10.274   4.170   7.560 -0.2224  0.0050 -0.3751
  901YOPE   NH312283   2.784  17.268   6.104  0.3752 -0.2278  0.1929
  901YOPE   PO412284   3.141  17.224   5.978 -0.2794  0.2572 -0.3789
  901YOPE   GL112285   3.492  17.203   6.328  0.2674 -0.1697  0.1888
  901YOPE   GL212286   3.703  17.000   6.297 -0.2205  0.1218 -0.0563
  901YOPE   C1A12287   3.614  17.251   6.781 -0.2082  0.1755 -0.0149
  901YOPE   D2A12288   3.734  17.373   7.250  0.1639 -0.1035  0.1065
  901YOPE   C3A12289   3.647  17.050   7.573 -0.0629 -0.1172  0.1907
  901YOPE   C4A12290   3.310  16.914   7.533 -0.1574 -0.3185  0.2917
  901YOPE   C1B12291   3.728  16.732   6.613 -0.1462  0.1219 -0.0714
  901YOPE   C2B12292   3.616  16.848   7.113  0.0608  0.0949 -0.2291
  901YOPE   D3B12293   3.657  16.552   7.402  0.0347 -0.3560  0.0039
  901YOPE   C4B12294   3.634  16.636   7.833 -0.2755 -0.0523  0.0844
  902YOPE   NH312295  10.777  11.862   5.527  0.2904  0.1041  0.0928
  902YOPE   PO412296  10.642  11.424   5.494 -0.0236  0.0894 -0.2380
  902YOPE   GL112297  10.545  11.521   5.926  0.1097  0.0834  0.0197
  902YOPE   GL212298  10.702  11.771   6.012  0.0584  0.1860  0.1877
  902YOPE   C1A12299  10.452  11.496   6.360  0.1540  0.0515 -0.1587
  902YOPE   D2A12300  10.614  11.589   6.787 -0.2026 -0.1518  0.0198
  902YOPE   C3A12301  10.587  11.255   7.117 -0.2396 -0.0647 -0.2250
  902YOPE   C4A12302  10.418  10.999   7.459 -0.0897  0.0898  0.0359
  902YOPE   C1B12303  10.968  11.770   6.404  0.2078  0.2086  0.2888
  902YOPE   C2B12304  11.162  11.757   6.788 -0.3767 -0.0126 -0.1243
  902YOPE   D3B12305  11.359  11.899   7.186  0.0878 -0.1315 -0.1157
  902YOPE   C4B12306  11.648  11.881   7.584 -0.0942 -0.0667  0.1727
  903YOPE   NH312307  12.186  15.765   5.562 -0.1197 -0.0654 -0.3291
  903YOPE   PO412308  11.787  16.061   5.660  0.0082 -0.2367  0.4332
  903YOPE   GL112309  11.552  16.028   6.032  0.0643  0.2216  0.1095
  903YOPE   GL212310  11.493  16.320   6.138  0.0119  0.0738 -0.0218
  903YOPE   C1A12311  11.698  15.826   6.348 -0.1013  0.1169 -0.2211
  903YOPE   D2A12312  11.931  15.660   6.701  0.1753 -0.1724  0.2027
  903YOPE   C3A12313  11.877  15.677   7.073 -0.0446  0.1090  0.3115
  903YOPE   C4A12314  11.688  15.776   7.490  0.1285  0.1879  0.0503
  903YOPE   C1B12315  11.460  16.182   6.573 -0.4526 -0.0900 -0.0441
  903YOPE   C2B12316  11.527  16.207   6.889 -0.1584 -0.1738  0.2647
  903YOPE   D3B12317  11.448  16.108   7.154 -0.0369 -0.2005  0.1635
  903YOPE   C4B12318  11.233  15.954   7.586 -0.2095  0.0736 -0.1549
  904YOPE   NH312319  17.054  14.957   6.037 -0.3030 -0.1398  0.1743
  904YOPE   PO412320  17.207  14.550   6.109  0.1474 -0.0347  0.4747
  904YOPE   GL112321  17.065  14.709   6.476 -0.0661 -0.1279  0.0251
  904YOPE   GL212322  17.395  14.589   6.540 -0.1694 -0.0087  0.3344
  904YOPE   C1A12323  16.841  14.891   6.800  0.0368  0.0112 -0.0619
  904YOPE   D2A12324  16.716  15.166   7.054  0.1247  0.1347  0.0968
  904YOPE   C3A12325  16.716  15.259   7.422 -0.1186 -0.2195  0.0328
  904YOPE   C4A12326  16.930  15.119   7.785  0.1002  0.0524 -0.0503
  904YOPE   C1B12327  17.347  14.702   6.915  0.2318 -0.2704  0.3732
  904YOPE   C2B12328  17.040  14.893   7.298  0.0484 -0.0130  0.0899
  904YOPE   D3B12329  16.981  14.662   7.675  0.2061  0.1665  0.2160
  904YOPE   C4B12330  16.948  14.520   8.138  0.4562  0.1686  0.3761
  905YOPE   NH312331   1.282  15.381   5.879  0.1262 -0.0903 -0.1914
  905YOPE   PO412332   1.039  15.569   6.204 -0.3349  0.2151  0.2289
  905YOPE   GL112333   1.121  15.337   6.530 -0.0524 -0.0731  0.2304
  905YOPE   GL212334   1.457  15.304   6.330  0.1105  0.1988  0.1224
  905YOPE   C1A12335   0.944  15.329   6.804 -0.0664  0.0052  0.1805
  905YOPE   D2A12336   0.998  15.286   7.190  0.0117 -0.0014  0.2832
  905YOPE   C3A12337   1.386  15.267   7.428  0.1295  0.2089  0.2339
  905YOPE   C4A12338   1.657  15.400   7.628 -0.1826 -0.3224 -0.0575
  905YOPE   C1B12339   1.720  15.168   6.586  0.3230 -0.0085  0.1769
  905YOPE   C2B12340   1.689  15.079   7.066 -0.0122 -0.1764 -0.1605
  905YOPE   D3B12341   1.848  15.021   7.371 -0.0098  0.0180 -0.1841
  905YOPE   C4B12342   1.971  14.948   7.743 -0.0604  0.0590  0.1421
  906YOPE   NH312343  17.657   5.573   5.733  0.2180 -0.3634  0.0662
  906YOPE   PO412344  18.043   5.542   5.886  0.0620 -0.0477  0.1822
  906YOPE   GL112345  17.804   5.532   6.246 -0.2991  0.1272  0.0306
  906YOPE   GL212346  17.971   5.788   6.477 -0.0715 -0.2565 -0.2507
  906YOPE   C1A12347  17.334   5.479   6.401 -0.0399 -0.0263 -0.0139
  906YOPE   D2A12348  17.009   5.274   6.362  0.2402  0.1560 -0.1774
  906YOPE   C3A12349  16.696   5.352   6.634 -0.0164  0.1151  0.0475
  906YOPE   C4A12350  16.438   5.088   6.986  0.5513  0.1149  0.0850
  906YOPE   C1B12351  18.335   5.709   6.698  0.0412  0.0946  0.2150
  906YOPE   C2B12352  18.252   5.938   7.035 -0.1322 -0.5607 -0.1753
  906YOPE   D3B12353  18.293   5.758   7.545 -0.1382  0.1927  0.1193
  906YOPE   C4B12354  18.431   5.555   7.897 -0.0787  0.2499 -0.0340
  907YOPE   NH312355   5.117   5.055   5.208  0.1245 -0.0834  0.0355
  907YOPE   PO412356   5.367   4.703   5.252  0.1179  0.0880  0.4672
  907YOPE   GL112357   5.510   4.946   5.576  0.1038  0.0282 -0.0404
  907YOPE   GL212358   5.463   5.289   5.514  0.0279  0.3341 -0.0622
  907YOPE   C1A12359   5.486   4.858   6.016  0.2002  0.0239 -0.0568
  907YOPE   D2A12360   5.761   4.598   6.150  0.0654  0.1196  0.0393
  907YOPE   C3A12361   5.729   4.445   6.601  0.4087  0.1114  0.1584
  907YOPE   C4A12362   5.484   4.264   6.978 -0.1585  0.1766 -0.0458
  907YOPE   C1B12363   5.592   5.534   5.842 -0.1468  0.0121  0.3963
  907YOPE   C2B12364   5.709   5.563   6.281 -0.1300  0.0253 -0.0306
  907YOPE   D3B12365   5.596   5.729   6.682 -0.0136 -0.1505  0.2198
  907YOPE   C4B12366   5.436   5.918   7.153 -0.1114  0.1431 -0.0311
  908YOPE   NH312367   1.074   4.696   5.735 -0.0587  0.0561  0.0530
  908YOPE   PO412368   1.159   4.298   5.931  0.1724 -0.0381  0.0125
  908YOPE   GL112369   1.252   4.130   6.235 -0.0212 -0.1243  0.0026
  908YOPE   GL212370   0.960   4.133   6.417 -0.0306 -0.0245  0.2387
  908YOPE   C1A12371   1.383   4.335   6.586  0.0486  0.0538 -0.1177
  908YOPE   D2A12372   1.745   4.551   6.705  0.2616 -0.2468  0.3017
  908YOPE   C3A12373   1.966   4.447   6.369 -0.0394  0.0826 -0.0068
  908YOPE   C4A12374   2.310   4.323   6.171 -0.1137 -0.1722 -0.0343
  908YOPE   C1B12375   0.984   4.188   6.899  0.0302  0.2992  0.2717
  908YOPE   C2B12376   1.061   4.374   7.300  0.0595  0.0552  0.0971
  908YOPE   D3B12377   1.214   4.762   7.334 -0.2187 -0.0425  0.0017
  908YOPE   C4B12378   1.085   5.168   7.303 -0.1030  0.2685 -0.0534
  909YOPE   NH312379   9.841   2.584   5.985 -0.3545  0.1983 -0.4762
  909YOPE   PO412380   9.732   2.169   5.810 -0.0263 -0.2401 -0.0891
  909YOPE   GL112381   9.299   2.200   6.012  0.0944  0.0599  0.2797
  909YOPE   GL212382   9.237   1.940   6.095  0.0591 -0.1048  0.4265
  909YOPE   C1A12383   8.939   2.353   6.319 -0.1701 -0.2565  0.0325
  909YOPE   D2A12384   8.926   2.160   6.797 -0.0286 -0.0548 -0.2753
  909YOPE   C3A12385   8.911   1.794   6.950  0.0192 -0.1861 -0.0187
  909YOPE   C4A12386   8.971   1.543   7.286  0.0746  0.1636 -0.0394
  909YOPE   C1B12387   9.082   1.600   6.263 -0.0958  0.1278 -0.0970
  909YOPE   C2B12388   9.167   1.411   6.622  0.0594 -0.2056 -0.1264
  909YOPE   D3B12389   9.383   1.364   7.022 -0.1569  0.2134  0.1540
  909YOPE   C4B12390   9.682   1.318   7.248  0.0287  0.1476 -0.1308
  910YOPE   NH312391  12.023  12.646   5.494 -0.1107 -0.1099 -0.2591
  910YOPE   PO412392  11.828  12.237   5.323  0.2792 -0.0230  0.2089
  910YOPE   GL112393  11.972  12.227   5.833  0.3249  0.2345  0.0707
  910YOPE   GL212394  11.761  12.063   6.014 -0.0143 -0.0562 -0.0414
  910YOPE   C1A12395  12.035  12.331   6.282 -0.2198 -0.4384  0.0218
  910YOPE   D2A12396  11.743  12.412   6.558 -0.1423  0.0503  0.0970
  910YOPE   C3A12397  11.573  12.418   7.048 -0.2160 -0.0649 -0.2589
  910YOPE   C4A12398  11.573  12.353   7.462  0.0739 -0.0128  0.1443
  910YOPE   C1B12399  11.551  11.894   6.402 -0.2935 -0.1526 -0.2611
  910YOPE   C2B12400  11.724  11.974   6.838 -0.1394 -0.0661  0.1137
  910YOPE   D3B12401  11.893  12.114   7.191 -0.1790  0.1626 -0.2128
  910YOPE   C4B12402  12.096  12.275   7.570 -0.0841  0.0224 -0.2489
  911YOPE   NH312403  11.858  10.074   6.240  0.3969  0.1115  0.1683
  911YOPE   PO412404  11.429  10.186   6.107 -0.0225 -0.1354  0.0582
  911YOPE   GL112405  11.150  10.430   6.430 -0.0773 -0.1907  0.1585
  911YOPE   GL212406  10.957  10.208   6.303  0.0562 -0.0560  0.4269
  911YOPE   C1A12407  11.135  10.867   6.502 -0.2296  0.3009 -0.0676
  911YOPE   D2A12408  11.182  11.200   6.801 -0.0790  0.5048 -0.1339
  911YOPE   C3A12409  11.092  11.400   7.150 -0.1026 -0.1594 -0.0545
  911YOPE   C4A12410  11.253  11.533   7.512 -0.1823  0.2696  0.1953
  911YOPE   C1B12411  11.036  10.001   6.704  0.1125  0.0493 -0.0816
  911YOPE   C2B12412  10.903  10.085   7.110 -0.0160  0.3413  0.1665
  911YOPE   D3B12413  10.710  10.452   7.372  0.0039  0.2481 -0.0592
  911YOPE   C4B12414  10.285  10.527   7.470 -0.1256 -0.0311  0.2013
  912YOPE   NH312415  17.270  10.739   5.827  0.1882  0.0460  0.1360
  912YOPE   PO412416  16.874  10.915   5.794 -0.2390 -0.0707  0.1326
  912YOPE   GL112417  16.874  11.041   6.188 -0.1287  0.0464  0.0368
  912YOPE   GL212418  17.019  11.316   6.149  0.1233  0.4099  0.1088
  912YOPE   C1A12419  16.832  10.877   6.571 -0.1947 -0.2074  0.1543
  912YOPE   D2A12420  16.696  10.576   6.678 -0.3353  0.1794  0.0629
  912YOPE   C3A12421  16.584  10.518   7.068  0.0267  0.2113  0.0198
  912YOPE   C4A12422  16.560  10.325   7.383  0.1552 -0.1522 -0.3554
  912YOPE   C1B12423  17.284  11.156   6.498  0.0503  0.1524  0.0489
  912YOPE   C2B12424  17.583  11.359   6.837 -0.1180 -0.2164 -0.2581
  912YOPE   D3B12425  17.698  11.473   7.253  0.0536 -0.0040  0.2281
  912YOPE   C4B12426  17.783  11.809   7.533 -0.1027 -0.1502 -0.0228
  913YOPE   NH312427   1.806  10.449   5.646 -0.0073  0.3558  0.5142
  913YOPE   PO412428   1.976  10.814   5.647 -0.0765  0.2120 -0.1866
  913YOPE   GL112429   1.968  10.698   6.085 -0.4168  0.2217  0.2252
  913YOPE   GL212430   2.218  10.564   6.267 -0.1204  0.1053 -0.0425
  913YOPE   C1A12431   1.877  10.536   6.556 -0.1989  0.0038 -0.1650
  913YOPE   D2A12432   1.586  10.678   6.914 -0.5195 -0.3339  0.2825
  913YOPE   C3A12433   1.477  10.531   7.287  0.0678 -0.3924 -0.0152
  913YOPE   C4A12434   1.488  10.622   7.747 -0.2870  0.0205  0.1104
  913YOPE   C1B12435   2.639  10.390   6.383  0.0575  0.0199  0.1921
  913YOPE   C2B12436   2.973  10.559   6.302 -0.0416 -0.3556  0.0352
  913YOPE   D3B12437   3.338  10.449   6.262 -0.0339  0.1681  0.2349
  913YOPE   C4B12438   3.647  10.630   5.874 -0.0492 -0.1954  0.3605
  914YOPE   NH312439   8.841   3.613   5.904  0.1193  0.2140  0.0466
  914YOPE   PO412440   8.960   4.097   5.877  0.1076  0.1825  0.2056
  914YOPE   GL112441   8.730   4.293   6.062 -0.0478  0.2000 -0.0075
  914YOPE   GL212442   8.293   4.339   6.021  0.0966 -0.2593 -0.2824
  914YOPE   C1A12443   8.696   4.381   6.430  0.0109 -0.0923  0.1458
  914YOPE   D2A12444   8.934   4.474   6.753  0.0402 -0.2036 -0.0291
  914YOPE   C3A12445   9.104   4.489   7.151 -0.2747 -0.1684  0.1352
  914YOPE   C4A12446   9.106   4.193   7.549 -0.1452 -0.1440 -0.5794
  914YOPE   C1B12447   8.104   4.365   6.413  0.1172 -0.1923  0.4142
  914YOPE   C2B12448   7.918   4.487   6.846  0.0258  0.1165  0.0762
  914YOPE   D3B12449   7.939   4.511   7.315  0.1119 -0.2933  0.1894
  914YOPE   C4B12450   7.963   4.304   7.620 -0.0460 -0.3595 -0.4895
  915YOPE   NH312451   2.409   2.818   5.859 -0.0002  0.2637 -0.1128
  915YOPE   PO412452   2.718   2.495   5.881  0.1006  0.1721  0.1542
  915YOPE   GL112453   2.664   2.732   6.376 -0.0611  0.1083  0.1483
  915YOPE   GL212454   2.799   3.036   6.330 -0.0253 -0.0559  0.0331
  915YOPE   C1A12455   2.632   2.686   6.856 -0.1828  0.2132 -0.0154
  915YOPE   D2A12456   2.628   2.586   7.249  0.0264 -0.0559 -0.0784
  915YOPE   C3A12457   2.686   2.290   7.521  0.1824  0.1306 -0.3274
  915YOPE   C4A12458   3.153   2.294   7.706  0.2768 -0.2587  0.3649
  915YOPE   C1B12459   2.646   3.199   6.791 -0.2442 -0.0159  0.1772
  915YOPE   C2B12460   2.616   3.511   7.139  0.2171  0.0954 -0.1916
  915YOPE   D3B12461   2.553   3.556   7.525 -0.3134  0.2585 -0.1720
  915YOPE   C4B12462   2.252   3.646   7.883  0.0543  0.2057 -0.2652
  916YOPE   NH312463   7.150  10.459   5.287 -0.0921  0.2294 -0.3389
  916YOPE   PO412464   6.824  10.175   5.113  0.0674 -0.0409 -0.0232
  916YOPE   GL112465   6.766   9.896   5.423 -0.2032 -0.0485  0.4488
  916YOPE   GL212466   7.093   9.854   5.514 -0.2478 -0.1756 -0.1621
  916YOPE   C1A12467   6.608   9.703   5.806 -0.2916  0.0264 -0.2221
  916YOPE   D2A12468   6.522   9.894   6.270  0.2658  0.0651 -0.3746
  916YOPE   C3A12469   6.573   9.781   6.644 -0.1479  0.0080  0.0503
  916YOPE   C4A12470   6.598  10.088   7.062 -0.2222 -0.2907 -0.2115
  916YOPE   C1B12471   7.110   9.563   5.776  0.0113 -0.1494 -0.0547
  916YOPE   C2B12472   6.884   9.522   6.239 -0.0059 -0.3466 -0.0953
  916YOPE   D3B12473   7.051   9.317   6.656 -0.2222  0.4913  0.1467
  916YOPE   C4B12474   7.113   9.273   7.053  0.1961  0.2349 -0.0257
  917YOPE   NH312475  11.390   7.122   5.770 -0.0877 -0.2520  0.0553
  917YOPE   PO412476  11.851   6.908   5.773 -0.0520 -0.0392 -0.3998
  917YOPE   GL112477  12.071   6.852   6.232 -0.3041  0.0911 -0.2447
  917YOPE   GL212478  12.097   7.095   6.441 -0.2736 -0.0572 -0.0010
  917YOPE   C1A12479  12.293   6.689   6.662  0.1649  0.0842 -0.0475
  917YOPE   D2A12480  12.173   6.513   7.004 -0.4348 -0.1580  0.0331
  917YOPE   C3A12481  12.001   6.798   7.340 -0.0720 -0.1704  0.1064
  917YOPE   C4A12482  11.998   7.038   7.754  0.0967  0.3007 -0.3274
  917YOPE   C1B12483  11.570   7.014   6.445 -0.0391 -0.0733  0.4548
  917YOPE   C2B12484  11.091   6.958   6.433  0.0518 -0.1877  0.4942
  917YOPE   D3B12485  10.818   7.153   6.410 -0.1171  0.2483  0.2135
  917YOPE   C4B12486  10.507   7.369   6.528 -0.0991  0.0076 -0.1511
  918YOPE   NH312487  18.752  14.128   6.379  0.1878 -0.1494 -0.2657
  918YOPE   PO412488  18.977  14.140   6.049 -0.1699 -0.0633 -0.0898
  918YOPE   GL112489  19.249  13.921   6.436  0.3255 -0.1247 -0.1854
  918YOPE   GL212490  19.070  13.970   6.726  0.0596  0.0098  0.1379
  918YOPE   C1A12491  19.541  13.733   6.740  0.1955 -0.1268  0.0248
  918YOPE   D2A12492  20.025  13.803   6.848 -0.3269 -0.2444  0.2272
  918YOPE   C3A12493  20.100  14.099   7.151 -0.1515 -0.0929 -0.1914
  918YOPE   C4A12494  19.858  14.305   7.461 -0.1535 -0.0193  0.0958
  918YOPE   C1B12495  18.943  14.158   7.071  0.1953  0.1535 -0.0210
  918YOPE   C2B12496  19.002  14.176   7.445 -0.1792 -0.0204  0.0965
  918YOPE   D3B12497  18.749  13.939   7.664 -0.1730 -0.0143 -0.0367
  918YOPE   C4B12498  18.502  13.725   7.423 -0.2905 -0.0719 -0.0283
  919YOPE   NH312499   3.161  11.408   5.437  0.2050 -0.2773  0.1931
  919YOPE   PO412500   2.972  10.996   5.546 -0.2234  0.0383  0.0380
  919YOPE   GL112501   2.859  11.030   5.996  0.1413 -0.2033  0.1949
  919YOPE   GL212502   2.503  11.124   6.069 -0.0032 -0.0538 -0.1939
  919YOPE   C1A12503   2.862  11.020   6.411 -0.1027 -0.1599 -0.3964
  919YOPE   D2A12504   3.027  10.932   6.845  0.0721  0.0587  0.2049
  919YOPE   C3A12505   3.151  11.135   7.176 -0.0695 -0.0984  0.2189
  919YOPE   C4A12506   3.445  11.320   7.422  0.0683 -0.1063 -0.0910
  919YOPE   C1B12507   2.232  11.019   6.498 -0.0228  0.1745 -0.3124
  919YOPE   C2B12508   2.023  10.930   6.873 -0.2347 -0.1958  0.1378
  919YOPE   D3B12509   2.191  11.173   7.211  0.1200 -0.4810  0.0278
  919YOPE   C4B12510   2.279  11.209   7.603  0.2014  0.0155 -0.0121
  920YOPE   NH312511  15.254   3.568   5.695 -0.0296  0.1527 -0.3391
  920YOPE   PO412512  15.540   3.466   5.869  0.0246  0.0431  0.0239
  920YOPE   GL112513  15.402   3.724   6.178 -0.1484  0.0740 -0.3026
  920YOPE   GL212514  15.087   3.696   6.191  0.0053  0.0924  0.1307
  920YOPE   C1A12515  15.271   3.870   6.658  0.1244  0.2393  0.0002
  920YOPE   D2A12516  15.119   3.990   7.061 -0.2712  0.1580  0.0514
  920YOPE   C3A12517  15.131   4.417   7.247 -0.0944 -0.0806 -0.0740
  920YOPE   C4A12518  15.175   4.623   7.600 -0.0146  0.1374 -0.0621
  920YOPE   C1B12519  14.868   3.461   6.554  0.0307  0.0304 -0.0651
  920YOPE   C2B12520  14.840   3.565   6.992  0.1314 -0.1086 -0.0676
  920YOPE   D3B12521  14.707   3.742   7.408 -0.0083  0.0742 -0.0429
  920YOPE   C4B12522  14.408   3.510   7.723  0.0237  0.0934 -0.0310
  921YOPE   NH312523  16.922   0.293   5.771  0.0103  0.1929 -0.3350
  921YOPE   PO412524  16.560  -0.014   5.795 -0.2368 -0.0868 -0.1673
  921YOPE   GL112525  16.676   0.074   6.220  0.3281  0.1940  0.0060
  921YOPE   GL212526  17.023  -0.121   6.263  0.1354 -0.0103  0.1445
  921YOPE   C1A12527  16.495   0.180   6.613  0.2041  0.1194  0.0772
  921YOPE   D2A12528  16.694   0.048   6.915  0.0215 -0.2555  0.0148
  921YOPE   C3A12529  16.559   0.041   7.316 -0.0631 -0.0330  0.2452
  921YOPE   C4A12530  16.143   0.152   7.367  0.0585  0.0565  0.0795
  921YOPE   C1B12531  17.083   0.195   6.637 -0.0684  0.1038 -0.0148
  921YOPE   C2B12532  17.332   0.447   7.034 -0.0424 -0.0093  0.2496
  921YOPE   D3B12533  17.459   0.450   7.384 -0.2032 -0.3064 -0.1247
  921YOPE   C4B12534  17.457   0.625   7.764  0.0441 -0.2888  0.1473
  922YOPE   NH312535  16.160   8.648   5.527  0.0206 -0.2104  0.1508
  922YOPE   PO412536  16.508   8.498   5.444  0.2078 -0.1006  0.2409
  922YOPE   GL112537  16.665   8.323   5.791 -0.0494  0.0071 -0.1628
  922YOPE   GL212538  17.068   8.273   5.805  0.0351 -0.1300  0.6965
  922YOPE   C1A12539  16.682   8.019   6.142  0.1883 -0.1778  0.3318
  922YOPE   D2A12540  16.651   8.079   6.517  0.1292 -0.1598 -0.0273
  922YOPE   C3A12541  16.929   7.994   6.839  0.2484 -0.0564  0.0104
  922YOPE   C4A12542  17.080   7.651   6.884 -0.3801 -0.2592  0.1796
  922YOPE   C1B12543  17.172   8.082   6.217  0.2663 -0.3028 -0.4112
  922YOPE   C2B12544  17.331   7.844   6.415 -0.1578  0.0482 -0.0049
  922YOPE   D3B12545  17.485   7.487   6.271 -0.2155  0.0175 -0.1660
  922YOPE   C4B12546  17.759   7.125   6.478  0.2346 -0.0018 -0.1447
  923YOPE   NH312547   9.267   9.606   5.338  0.1748 -0.2227 -0.0331
  923YOPE   PO412548   8.971   9.266   5.367 -0.1869  0.0231  0.0631
  923YOPE   GL112549   8.681   9.142   5.733  0.1022  0.0197  0.1185
  923YOPE   GL212550   8.828   9.188   6.078 -0.2538  0.3601 -0.1632
  923YOPE   C1A12551   8.248   9.087   5.790 -0.1157  0.0113 -0.2952
  923YOPE   D2A12552   7.862   9.089   6.087  0.0926  0.1888  0.1008
  923YOPE   C3A12553   7.978   9.345   6.479 -0.2555 -0.2556 -0.0714
  923YOPE   C4A12554   7.985   9.408   6.919 -0.1234  0.1376  0.0658
  923YOPE   C1B12555   8.455   9.184   6.318  0.1876 -0.4864  0.3266
  923YOPE   C2B12556   8.365   9.122   6.807 -0.2451 -0.2202  0.1773
  923YOPE   D3B12557   8.052   8.924   7.111 -0.1704 -0.0648  0.0012
  923YOPE   C4B12558   8.012   8.602   7.414  0.1106  0.1813 -0.1383
  924YOPE   NH312559   6.935   2.798   5.547  0.0764  0.0065 -0.4011
  924YOPE   PO412560   6.664   2.505   5.668  0.1113  0.0443 -0.3231
  924YOPE   GL112561   6.812   2.461   6.029 -0.3048  0.3432  0.4926
  924YOPE   GL212562   6.447   2.382   6.191 -0.0445  0.0618  0.0347
  924YOPE   C1A12563   6.798   2.584   6.379 -0.3806 -0.2220 -0.0087
  924YOPE   D2A12564   6.646   2.737   6.784 -0.0266  0.1461 -0.2433
  924YOPE   C3A12565   6.890   2.744   7.067 -0.0690  0.1338 -0.1658
  924YOPE   C4A12566   7.126   2.696   7.477 -0.0303  0.1082 -0.0930
  924YOPE   C1B12567   6.560   2.252   6.592 -0.0263 -0.1630  0.0052
  924YOPE   C2B12568   6.822   2.219   6.908  0.1947  0.3873 -0.2189
  924YOPE   D3B12569   6.893   2.191   7.435 -0.3033 -0.0128  0.2992
  924YOPE   C4B12570   6.716   2.472   7.756  0.0081 -0.0774  0.0973
  925YOPE   NH312571  13.613   8.647   6.062 -0.2215 -0.0950  0.1388
  925YOPE   PO412572  13.341   8.903   5.976  0.1437  0.4423  0.0523
  925YOPE   GL112573  13.378   9.200   6.340  0.1998  0.1035  0.0626
  925YOPE   GL212574  13.571   9.108   6.545  0.0570 -0.0803  0.2742
  925YOPE   C1A12575  13.068   9.149   6.647  0.1167  0.2133  0.2175
  925YOPE   D2A12576  12.806   9.140   6.950 -0.2823 -0.2692 -0.1831
  925YOPE   C3A12577  12.466   9.210   6.794  0.1795  0.1857 -0.1340
  925YOPE   C4A12578  12.036   9.219   6.773  0.3495 -0.1640  0.3229
  925YOPE   C1B12579  13.607   8.927   6.861 -0.1016  0.0575 -0.3492
  925YOPE   C2B12580  13.528   9.018   7.340  0.0014  0.0305  0.1213
  925YOPE   D3B12581  13.746   8.964   7.724 -0.0624  0.1449  0.0082
  925YOPE   C4B12582  13.687   9.100   8.123 -0.0229 -0.0192 -0.1193
  926YOPE   NH312583  11.107  17.330   5.869  0.0611 -0.2230 -0.0181
  926YOPE   PO412584  10.668  17.609   5.853 -0.0532 -0.2043 -0.3287
  926YOPE   GL112585  10.398  17.493   6.283  0.2455  0.2767  0.0836
  926YOPE   GL212586  10.250  17.074   6.299 -0.0540  0.2552 -0.2643
  926YOPE   C1A12587  10.329  17.456   6.736 -0.0818 -0.0944  0.1049
  926YOPE   D2A12588  10.497  17.227   7.073  0.0513  0.1890 -0.1615
  926YOPE   C3A12589  10.313  17.036   7.503  0.0719  0.1776 -0.1891
  926YOPE   C4A12590  10.205  17.304   7.914 -0.1234 -0.3535  0.2223
  926YOPE   C1B12591  10.274  16.960   6.702 -0.0170  0.0682  0.0693
  926YOPE   C2B12592  10.031  17.074   7.083 -0.0705 -0.0596 -0.3330
  926YOPE   D3B12593   9.718  17.155   7.448  0.0199  0.1026  0.1693
  926YOPE   C4B12594   9.674  17.393   7.772 -0.0666 -0.2420  0.2064
  927YOPE   NH312595   4.734   8.198   5.374  0.1584 -0.3660  0.0089
  927YOPE   PO412596   4.655   8.640   5.481 -0.4177  0.0326  0.0824
  927YOPE   GL112597   4.708   8.858   5.875 -0.2068  0.0198 -0.0413
  927YOPE   GL212598   4.498   9.091   5.955  0.2606 -0.0495 -0.1686
  927YOPE   C1A12599   4.548   8.786   6.348  0.1894 -0.1378  0.2243
  927YOPE   D2A12600   4.719   8.758   6.711  0.0068  0.3979  0.3019
  927YOPE   C3A12601   4.507   8.855   7.096  0.1225 -0.1541  0.1896
  927YOPE   C4A12602   4.443   9.278   7.230 -0.1029  0.0243 -0.0848
  927YOPE   C1B12603   4.776   9.287   6.240  0.0033  0.0991 -0.0968
  927YOPE   C2B12604   4.764   9.298   6.668 -0.2078  0.0608 -0.0441
  927YOPE   D3B12605   4.862   9.436   7.102  0.0491 -0.1436  0.1662
  927YOPE   C4B12606   5.260   9.391   7.253  0.0838  0.1331 -0.2421
  928YOPE   NH312607   0.992  10.995   5.919 -0.0305 -0.0990  0.3758
  928YOPE   PO412608   1.194  11.383   5.879 -0.1828 -0.0952  0.1701
  928YOPE   GL112609   1.535  11.253   6.235  0.2028 -0.0987 -0.1776
  928YOPE   GL212610   1.714  11.566   6.327 -0.1216 -0.1054 -0.0844
  928YOPE   C1A12611   1.591  11.077   6.585  0.0622  0.2095 -0.1541
  928YOPE   D2A12612   1.156  10.982   6.844 -0.1160 -0.0169  0.0664
  928YOPE   C3A12613   1.201  10.950   7.342  0.0205 -0.0994  0.1905
  928YOPE   C4A12614   1.268  11.201   7.732 -0.4268 -0.0446  0.0597
  928YOPE   C1B12615   1.256  11.499   6.541  0.1166 -0.0397 -0.0748
  928YOPE   C2B12616   1.249  11.534   7.006  0.0594  0.0529  0.1263
  928YOPE   D3B12617   1.322  11.544   7.381  0.2458 -0.0321 -0.2467
  928YOPE   C4B12618   1.212  11.848   7.730 -0.0548  0.1274 -0.0814
  929YOPE   NH312619   2.292   1.523   6.017  0.0324  0.2842  0.1898
  929YOPE   PO412620   1.870   1.435   5.892 -0.0342  0.2900 -0.3199
  929YOPE   GL112621   1.939   1.364   6.298 -0.1057 -0.0020  0.1008
  929YOPE   GL212622   2.212   1.110   6.326 -0.0468  0.0619  0.2348
  929YOPE   C1A12623   1.931   1.602   6.700 -0.0129 -0.1101 -0.1412
  929YOPE   D2A12624   1.902   1.561   7.057  0.1820 -0.2902  0.1018
  929YOPE   C3A12625   1.868   1.701   7.450  0.1682  0.0227  0.0863
  929YOPE   C4A12626   1.721   1.690   7.841  0.1601 -0.5428  0.1222
  929YOPE   C1B12627   2.436   0.961   6.682  0.1882  0.1354 -0.1582
  929YOPE   C2B12628   2.240   1.054   7.037  0.1522 -0.0322 -0.2010
  929YOPE   D3B12629   2.158   1.267   7.372  0.0412 -0.4935 -0.1187
  929YOPE   C4B12630   2.178   1.477   7.748 -0.3371  0.0324  0.1235
  930YOPE   NH312631   8.861  15.716   5.564 -0.1666  0.0296 -0.1747
  930YOPE   PO412632   9.314  15.784   5.462  0.0549  0.0596 -0.0986
  930YOPE   GL112633   9.249  15.878   5.877 -0.2512 -0.2061  0.5418
  930YOPE   GL212634   9.522  16.079   5.814  0.1572 -0.1545 -0.0706
  930YOPE   C1A12635   9.262  15.773   6.286 -0.0969 -0.2101 -0.0243
  930YOPE   D2A12636   9.132  15.664   6.652  0.2207  0.0419 -0.1613
  930YOPE   C3A12637   8.778  15.744   6.608 -0.0802 -0.2217  0.2308
  930YOPE   C4A12638   8.484  15.484   6.412  0.0139  0.0926 -0.1714
  930YOPE   C1B12639   9.572  16.279   6.201  0.2557  0.0415  0.0051
  930YOPE   C2B12640   9.828  16.290   6.585 -0.1471  0.3392  0.2957
  930YOPE   D3B12641   9.745  16.077   7.021 -0.0294  0.0184  0.4690
  930YOPE   C4B12642   9.883  15.707   7.264  0.0106  0.0479 -0.3506
  931YOPE   NH312643  18.736   0.268   5.801 -0.2429 -0.0855 -0.1493
  931YOPE   PO412644  18.836   0.463   6.239 -0.1488 -0.3372 -0.0824
  931YOPE   GL112645  19.010   0.441   6.594 -0.1901  0.2176 -0.0137
  931YOPE   GL212646  18.708   0.496   6.781  0.0930 -0.1147 -0.2084
  931YOPE   C1A12647  19.173   0.462   6.893  0.3552  0.3275  0.0868
  931YOPE   D2A12648  19.007   0.395   7.341  0.1332 -0.0769  0.0423
  931YOPE   C3A12649  18.932   0.636   7.563  0.0895  0.2288  0.0280
  931YOPE   C4A12650  19.173   0.999   7.758 -0.4246 -0.0944  0.2742
  931YOPE   C1B12651  18.552   0.544   7.158 -0.2720 -0.0822 -0.0319
  931YOPE   C2B12652  18.173   0.628   7.393 -0.2598 -0.2192 -0.1432
  931YOPE   D3B12653  18.085   0.613   7.830 -0.2146 -0.0295 -0.3561
  931YOPE   C4B12654  18.127   0.966   8.038  0.0476 -0.0720 -0.1302
  932YOPE   NH312655   1.403   5.207   5.826 -0.0570  0.1254 -0.1526
  932YOPE   PO412656   0.929   5.179   5.836 -0.0502 -0.1324  0.1131
  932YOPE   GL112657   0.815   5.068   6.291  0.0559 -0.0245 -0.0803
  932YOPE   GL212658   0.552   5.081   6.158  0.0394  0.0011 -0.1114
  932YOPE   C1A12659   0.822   5.183   6.691  0.0230  0.2470  0.1315
  932YOPE   D2A12660   0.758   5.421   7.039  0.0396 -0.1160 -0.1729
  932YOPE   C3A12661   0.805   5.605   7.398 -0.1789  0.1348  0.2480
  932YOPE   C4A12662   0.610   5.740   7.787 -0.1339 -0.2612 -0.0397
  932YOPE   C1B12663   0.323   5.260   6.453  0.1969  0.3655 -0.1192
  932YOPE   C2B12664   0.104   5.359   6.784 -0.0906 -0.0422 -0.0611
  932YOPE   D3B12665  -0.300   5.518   7.126  0.1569  0.0845  0.0257
  932YOPE   C4B12666  -0.704   5.446   7.205  0.2964  0.5102 -0.0420
  933YOPE   NH312667  17.856   6.009   5.986 -0.0292 -0.4127 -0.0109
  933YOPE   PO412668  17.497   6.092   5.803  0.1813  0.0029 -0.6118
  933YOPE   GL112669  17.428   6.425   6.005  0.0917 -0.2441 -0.1975
  933YOPE   GL212670  17.511   6.740   6.058  0.3899 -0.1486 -0.0189
  933YOPE   C1A12671  17.204   6.355   6.301 -0.0013  0.1623 -0.1602
  933YOPE   D2A12672  16.944   6.317   6.654  0.0544 -0.0254  0.1576
  933YOPE   C3A12673  17.115   6.112   6.956 -0.3775  0.0850 -0.0694
  933YOPE   C4A12674  16.891   6.023   7.376 -0.0487 -0.2083  0.0839
  933YOPE   C1B12675  17.335   6.866   6.435  0.1443  0.0436 -0.0574
  933YOPE   C2B12676  17.223   7.200   6.633  0.1924 -0.1083  0.0225
  933YOPE   D3B12677  17.483   7.422   7.000  0.0525  0.2138  0.0700
  933YOPE   C4B12678  17.846   7.719   7.138 -0.0255 -0.0115 -0.0198
  934YOPE   NH312679  15.779  17.720   5.167 -0.1534  0.2688  0.1371
  934YOPE   PO412680  15.570  17.860   5.434 -0.0126 -0.1735  0.0153
  934YOPE   GL112681  15.376  17.686   5.735 -0.1984 -0.0611 -0.2745
  934YOPE   GL212682  15.721  17.542   5.942 -0.1554  0.1760 -0.1323
  934YOPE   C1A12683  15.359  17.762   6.164  0.1168 -0.0974  0.1409
  934YOPE   D2A12684  15.093  17.766   6.645  0.0258 -0.0236 -0.1991
  934YOPE   C3A12685  15.145  17.940   7.054  0.0632  0.3281 -0.2045
  934YOPE   C4A12686  15.371  18.187   7.248  0.3407  0.0721 -0.1117
  934YOPE   C1B12687  16.087  17.848   5.966 -0.2371  0.2282  0.1465
  934YOPE   C2B12688  16.203  18.102   6.165 -0.0944  0.0408  0.0551
  934YOPE   D3B12689  16.195  18.479   6.386  0.3504 -0.1712  0.2466
  934YOPE   C4B12690  16.167  19.013   6.267  0.0189  0.2271 -0.1449
  935YOPE   NH312691   4.011  17.244   6.024 -0.2785 -0.1285 -0.0740
  935YOPE   PO412692   4.386  17.144   5.679 -0.3328 -0.0904  0.0847
  935YOPE   GL112693   4.413  16.965   6.148  0.3782  0.1573  0.1382
  935YOPE   GL212694   4.165  16.829   6.235 -0.2488  0.0137 -0.0315
  935YOPE   C1A12695   4.634  17.190   6.595 -0.0555  0.3627  0.4566
  935YOPE   D2A12696   4.901  17.140   6.875  0.1168  0.2188 -0.2943
  935YOPE   C3A12697   4.764  16.942   7.251 -0.1943 -0.3346  0.0765
  935YOPE   C4A12698   4.554  16.676   7.617 -0.0879 -0.1443  0.1449
  935YOPE   C1B12699   4.539  16.712   6.576  0.0741 -0.2533 -0.0738
  935YOPE   C2B12700   4.597  16.568   6.946 -0.0754  0.1968  0.0022
  935YOPE   D3B12701   4.677  16.318   7.245 -0.0808 -0.1005 -0.2032
  935YOPE   C4B12702   4.869  16.259   7.656  0.3662 -0.2551  0.0983
  936YOPE   NH312703  11.060   5.382   5.710  0.0251 -0.3102  0.2350
  936YOPE   PO412704  10.840   5.018   5.580 -0.1514  0.0475  0.0516
  936YOPE   GL112705  10.723   4.844   5.984 -0.0215 -0.1826 -0.1202
  936YOPE   GL212706  10.872   5.122   6.146 -0.1056 -0.0475 -0.1736
  936YOPE   C1A12707  10.455   4.627   6.246  0.4010 -0.0552  0.2024
  936YOPE   D2A12708  10.085   4.781   6.202  0.1150 -0.0969  0.1737
  936YOPE   C3A12709   9.840   4.888   6.615  0.1331 -0.2053 -0.3330
  936YOPE   C4A12710   9.463   4.816   6.810 -0.2118  0.1464 -0.3103
  936YOPE   C1B12711  11.018   5.303   6.701  0.0354 -0.1146 -0.3606
  936YOPE   C2B12712  11.339   5.225   6.946  0.1185  0.0937 -0.0411
  936YOPE   D3B12713  11.155   5.485   7.195 -0.1671 -0.0251 -0.1211
  936YOPE   C4B12714  10.926   5.585   7.580  0.0104  0.2443 -0.0439
  937YOPE   NH312715   0.595  14.559   6.226 -0.1659  0.0746 -0.1943
  937YOPE   PO412716   0.181  14.585   6.370  0.1748  0.1144 -0.0591
  937YOPE   GL112717   0.239  14.473   6.732  0.1174 -0.1033  0.0684
  937YOPE   GL212718   0.616  14.392   6.731  0.0699 -0.0625  0.1895
  937YOPE   C1A12719   0.389  14.592   7.161  0.0414  0.1644 -0.1169
  937YOPE   D2A12720   0.627  14.443   7.531  0.0692 -0.0870 -0.0762
  937YOPE   C3A12721   0.454  14.207   7.917 -0.0132 -0.1089 -0.0627
  937YOPE   C4A12722   0.531  14.289   8.337  0.3696  0.0722  0.0875
  937YOPE   C1B12723   0.725  14.148   7.040  0.2291  0.1381  0.2617
  937YOPE   C2B12724   0.516  13.859   7.244  0.2520 -0.1465 -0.0232
  937YOPE   D3B12725   0.641  13.792   7.672  0.0153  0.1560  0.3824
  937YOPE   C4B12726   0.984  13.569   7.847 -0.1611 -0.0710  0.0540
  938YOPE   NH312727  14.455  14.595   5.654 -0.1233 -0.0958 -0.1824
  938YOPE   PO412728  14.047  14.723   5.816 -0.0853 -0.0015  0.0152
  938YOPE   GL112729  13.821  15.061   6.095  0.0012 -0.2314  0.3094
  938YOPE   GL212730  13.931  15.365   5.907 -0.0233 -0.1396  0.2102
  938YOPE   C1A12731  13.804  15.328   6.532 -0.4684  0.1013 -0.1188
  938YOPE   D2A12732  13.852  15.504   6.866 -0.0850  0.1761  0.1301
  938YOPE   C3A12733  13.874  15.319   7.291  0.1813  0.0343  0.1606
  938YOPE   C4A12734  13.708  14.992   7.604 -0.1028  0.1940  0.0670
  938YOPE   C1B12735  13.720  15.675   6.105  0.1953 -0.0746  0.1121
  938YOPE   C2B12736  13.502  15.679   6.512  0.0681  0.2743  0.2108
  938YOPE   D3B12737  13.375  15.657   6.886 -0.0851 -0.3720  0.1039
  938YOPE   C4B12738  13.386  15.552   7.234 -0.2139  0.1817  0.2034
  939YOPE   NH312739   6.137  15.584   5.632  0.0640 -0.2236  0.0105
  939YOPE   PO412740   5.898  15.977   5.634 -0.0948  0.0638  0.0937
  939YOPE   GL112741   5.730  15.958   5.995  0.0881 -0.1190 -0.0531
  939YOPE   GL212742   5.898  16.296   6.042 -0.0348  0.1620 -0.1919
  939YOPE   C1A12743   5.554  15.705   6.280 -0.4528 -0.0174  0.2388
  939YOPE   D2A12744   5.713  15.499   6.608 -0.1885 -0.4409 -0.0915
  939YOPE   C3A12745   5.851  15.433   7.086 -0.2703 -0.0903 -0.1514
  939YOPE   C4A12746   6.106  15.533   7.477 -0.2465 -0.1513  0.3216
  939YOPE   C1B12747   6.150  16.353   6.461  0.2990  0.0302 -0.1428
  939YOPE   C2B12748   6.456  16.268   6.758 -0.0092 -0.1366  0.0603
  939YOPE   D3B12749   6.843  16.051   7.002 -0.2539  0.0062  0.0638
  939YOPE   C4B12750   7.010  15.811   7.314 -0.1917 -0.0776 -0.1073
  940YOPE   NH312751   9.046   2.705   5.830  0.0311  0.0501  0.0506
  940YOPE   PO412752   9.566   2.909   5.732  0.0303  0.0040 -0.0914
  940YOPE   GL112753   9.418   2.762   6.168  0.2415 -0.0324 -0.0857
  940YOPE   GL212754   9.623   2.843   6.420 -0.3199 -0.0246 -0.0860
  940YOPE   C1A12755   9.476   2.361   6.454 -0.2520  0.1233  0.2398
  940YOPE   D2A12756   9.488   2.379   6.873 -0.0571  0.0066  0.1025
  940YOPE   C3A12757   9.214   2.336   7.191 -0.0436  0.2424 -0.0472
  940YOPE   C4A12758   9.212   2.394   7.710 -0.4081  0.0340  0.3507
  940YOPE   C1B12759   9.353   2.814   6.780  0.0669  0.0887 -0.0699
  940YOPE   C2B12760   9.318   2.825   7.162  0.0413 -0.1202 -0.1876
  940YOPE   D3B12761   9.039   2.750   7.435  0.0022  0.0065  0.2481
  940YOPE   C4B12762   8.709   2.508   7.576  0.0012  0.0617 -0.0450
  941YOPE   NH312763   0.602   4.014   6.037  0.0386 -0.0591 -0.2022
  941YOPE   PO412764   0.145   4.252   6.130  0.1077 -0.3364 -0.0140
  941YOPE   GL112765   0.204   4.306   6.532 -0.1005  0.0141  0.0581
  941YOPE   GL212766   0.546   4.258   6.665  0.1821 -0.0436  0.0699
  941YOPE   C1A12767   0.054   4.427   6.880  0.2838  0.1204 -0.2380
  941YOPE   D2A12768  -0.299   4.397   7.180 -0.0093 -0.0755  0.0988
  941YOPE   C3A12769  -0.553   4.127   7.403  0.0940 -0.0275  0.1071
  941YOPE   C4A12770  -0.778   4.006   7.732  0.2464  0.4794 -0.1479
  941YOPE   C1B12771   0.555   4.424   7.045  0.1408  0.0639  0.1422
  941YOPE   C2B12772   0.601   4.367   7.565  0.1197  0.2403  0.1550
  941YOPE   D3B12773   0.884   4.534   7.847 -0.2040 -0.0540 -0.4608
  941YOPE   C4B12774   0.980   5.043   7.811  0.1569  0.3883 -0.0173
  942POPC   NC312775   4.758   1.392   5.826  0.2495 -0.0723  0.0569
  942POPC   PO412776   5.174   1.284   5.587 -0.0816  0.0764  0.1031
  942POPC   GL112777   5.523   1.281   5.844 -0.1438  0.0001 -0.0896
  942POPC   GL212778   5.808   1.409   5.791  0.3645 -0.2182  0.1562
  942POPC   C1A12779   5.683   1.059   6.231  0.1595 -0.0792 -0.0065
  942POPC   D2A12780   5.853   0.966   6.537 -0.0263 -0.1089 -0.1143
  942POPC   C3A12781   5.797   1.085   6.891  0.2488 -0.1584 -0.1020
  942POPC   C4A12782   5.705   1.121   7.342 -0.2851 -0.0385  0.0147
  942POPC   C1B12783   5.811   1.629   6.117  0.1654  0.1357  0.1183
  942POPC   C2B12784   5.759   1.519   6.536 -0.2144  0.2744  0.0230
  942POPC   C3B12785   5.821   1.645   7.061  0.0179 -0.3264  0.1611
  942POPC   C4B12786   5.527   1.850   7.338 -0.0949 -0.3014 -0.1400
  943POPC   NC312787   7.219   0.527   5.922  0.0750 -0.0237  0.1126
  943POPC   PO412788   7.437   0.164   6.002 -0.1532 -0.0148 -0.1491
  943POPC   GL112789   7.495   0.120   6.463 -0.1211  0.3451 -0.0675
  943POPC   GL212790   7.835   0.097   6.501 -0.1247 -0.0827  0.0250
  943POPC   C1A12791   7.476  -0.064   6.927 -0.1152  0.0656 -0.2035
  943POPC   D2A12792   7.527  -0.326   7.348  0.0679 -0.0222 -0.1046
  943POPC   C3A12793   7.377  -0.785   7.331  0.1531 -0.0307 -0.1273
  943POPC   C4A12794   7.573  -1.163   7.432 -0.0779 -0.0622  0.1653
  943POPC   C1B12795   7.717   0.397   6.856  0.2995 -0.1650  0.2898
  943POPC   C2B12796   7.513   0.594   7.173 -0.1116  0.0640 -0.2524
  943POPC   C3B12797   7.147   0.656   7.389  0.0212 -0.1668 -0.3000
  943POPC   C4B12798   6.794   0.555   7.680 -0.0763  0.0092 -0.0051
  944POPC   NC312799   0.161   5.609   5.434 -0.1369  0.1789  0.2081
  944POPC   PO412800   0.496   5.391   5.767  0.2351  0.0826  0.3003
  944POPC   GL112801   0.706   5.539   6.195 -0.0280 -0.2613  0.1528
  944POPC   GL212802   0.672   5.856   6.207  0.3453  0.0829  0.2934
  944POPC   C1A12803   0.582   5.645   6.648  0.3186 -0.1656 -0.1097
  944POPC   D2A12804   0.556   5.903   6.996  0.3447 -0.0129  0.2591
  944POPC   C3A12805   0.329   5.656   7.209  0.0765  0.0290 -0.1077
  944POPC   C4A12806   0.428   5.232   7.449 -0.2132 -0.0228  0.0009
  944POPC   C1B12807   1.006   5.915   6.392 -0.3302 -0.0452 -0.2622
  944POPC   C2B12808   1.063   6.035   6.787  0.0038 -0.2692  0.0637
  944POPC   C3B12809   1.012   6.004   7.126  0.1935  0.0465  0.0890
  944POPC   C4B12810   1.014   6.088   7.514 -0.0866 -0.0674 -0.3432
  945POPC   NC312811  15.391   2.557   5.866 -0.1201  0.0530 -0.5715
  945POPC   PO412812  15.740   2.615   6.053 -0.0254  0.0693  0.4221
  945POPC   GL112813  15.725   2.523   6.510 -0.2226  0.0782  0.1366
  945POPC   GL212814  15.811   2.131   6.496  0.2833  0.2813  0.0456
  945POPC   C1A12815  15.684   2.525   6.968 -0.2696 -0.0762 -0.0744
  945POPC   D2A12816  15.769   2.333   7.226  0.2964  0.1565 -0.2052
  945POPC   C3A12817  15.877   2.430   7.572 -0.0897 -0.1690 -0.0152
  945POPC   C4A12818  15.858   2.526   7.962 -0.0289  0.2201 -0.0060
  945POPC   C1B12819  15.527   2.040   6.865  0.1284 -0.0763  0.0495
  945POPC   C2B12820  15.526   1.831   7.214  0.0937  0.0596 -0.0896
  945POPC   C3B12821  15.597   1.977   7.553 -0.1865  0.2480 -0.2460
  945POPC   C4B12822  15.595   2.106   7.919  0.0466  0.2511  0.1419
  946POPC   NC312823  15.350   1.639   5.669  0.1271 -0.0524 -0.2896
  946POPC   PO412824  15.292   1.285   5.887 -0.0875 -0.0256 -0.4319
  946POPC   GL112825  15.279   1.252   6.276  0.1126 -0.1592 -0.3710
  946POPC   GL212826  15.061   1.408   6.425 -0.0662 -0.0499 -0.0903
  946POPC   C1A12827  15.569   1.085   6.618 -0.0559  0.3753 -0.0045
  946POPC   D2A12828  15.793   0.838   6.976  0.2127  0.3713 -0.1140
  946POPC   C3A12829  15.846   0.378   7.062  0.0555 -0.0728 -0.4341
  946POPC   C4A12830  16.076   0.010   6.804 -0.1059 -0.1554 -0.1622
  946POPC   C1B12831  15.205   1.458   6.907  0.0507  0.1226 -0.0457
  946POPC   C2B12832  15.260   1.394   7.314  0.2571  0.1295 -0.1692
  946POPC   C3B12833  15.309   1.495   7.679  0.4287  0.0844  0.0809
  946POPC   C4B12834  15.392   1.670   8.054  0.0123 -0.0788  0.0876
  947POPC   NC312835   1.228   6.906   5.408 -0.0034  0.3673 -0.0618
  947POPC   PO412836   1.504   6.564   5.466 -0.3521 -0.0230  0.3157
  947POPC   GL112837   1.763   6.454   5.685  0.1193 -0.2604  0.1179
  947POPC   GL212838   1.661   6.222   5.811 -0.1659 -0.1172  0.2118
  947POPC   C1A12839   1.874   6.620   6.089 -0.2153  0.0571 -0.2179
  947POPC   D2A12840   1.659   6.743   6.469  0.0045 -0.0986 -0.0660
  947POPC   C3A12841   1.194   6.884   6.492  0.3005 -0.2358  0.1173
  947POPC   C4A12842   0.948   6.807   6.794  0.3837 -0.0521 -0.0776
  947POPC   C1B12843   1.454   6.298   6.273 -0.0500 -0.0787 -0.0523
  947POPC   C2B12844   1.334   6.434   6.668 -0.1450  0.1334  0.0623
  947POPC   C3B12845   1.215   6.418   7.108 -0.1036 -0.0614 -0.0855
  947POPC   C4B12846   1.158   6.561   7.521  0.1989  0.0347  0.0062
  948POPC   NC312847  16.267  12.647   5.574  0.2668 -0.0701  0.1570
  948POPC   PO412848  16.407  12.904   5.941 -0.0767 -0.1764  0.1951
  948POPC   GL112849  16.166  12.826   6.283 -0.0967 -0.1760 -0.0596
  948POPC   GL212850  16.375  12.633   6.358 -0.2771  0.0447  0.1180
  948POPC   C1A12851  16.115  13.047   6.608 -0.1375  0.1205  0.0138
  948POPC   D2A12852  16.022  13.245   7.038  0.0609  0.1603 -0.1485
  948POPC   C3A12853  15.879  13.412   7.469  0.3617  0.1567  0.1431
  948POPC   C4A12854  15.879  13.227   7.817  0.3563  0.1031  0.1140
  948POPC   C1B12855  16.457  12.784   6.806  0.1210  0.0514 -0.2212
  948POPC   C2B12856  16.495  13.011   7.218 -0.1713 -0.1961  0.2461
  948POPC   C3B12857  16.467  13.472   7.311  0.0452 -0.0563  0.3389
  948POPC   C4B12858  16.178  13.752   7.208  0.2948  0.0802  0.0131
  949POPC   NC312859  16.254   6.423   5.850 -0.3635  0.1356  0.2622
  949POPC   PO412860  16.680   6.369   5.793  0.1139 -0.1299  0.1425
  949POPC   GL112861  16.700   6.136   6.219  0.0168 -0.1110  0.1754
  949POPC   GL212862  16.523   6.023   6.448 -0.1004  0.2517 -0.0887
  949POPC   C1A12863  16.968   5.861   6.438 -0.4187  0.1017  0.0809
  949POPC   D2A12864  17.058   5.670   6.779 -0.0623 -0.1514  0.0821
  949POPC   C3A12865  17.197   5.620   7.163  0.2195  0.3379  0.2280
  949POPC   C4A12866  17.260   5.672   7.645 -0.1687 -0.3877 -0.1611
  949POPC   C1B12867  16.624   5.951   6.835  0.1400 -0.3097 -0.0745
  949POPC   C2B12868  16.415   5.805   7.224  0.1341  0.2470 -0.0428
  949POPC   C3B12869  16.328   5.645   7.618  0.1504  0.0997 -0.2000
  949POPC   C4B12870  16.533   5.258   7.790 -0.1055  0.3753  0.0609
  950POPC   NC312871  15.437   6.584   5.649 -0.3828  0.1090 -0.0871
  950POPC   PO412872  15.698   6.921   5.609 -0.4476 -0.1500 -0.0029
  950POPC   GL112873  15.965   6.853   6.042  0.2624  0.2261 -0.2903
  950POPC   GL212874  16.100   7.146   6.216  0.1724 -0.2805 -0.0507
  950POPC   C1A12875  15.982   6.770   6.605 -0.0760  0.0778  0.0775
  950POPC   D2A12876  16.116   6.798   7.063  0.3795  0.0683 -0.1487
  950POPC   C3A12877  16.466   6.863   7.359  0.1867 -0.2703 -0.0665
  950POPC   C4A12878  16.794   7.053   7.604  0.0718 -0.1997 -0.0703
  950POPC   C1B12879  15.754   7.163   6.469  0.4893  0.0656  0.4469
  950POPC   C2B12880  15.430   7.381   6.753 -0.0819  0.2818  0.0329
  950POPC   C3B12881  15.158   7.347   7.146  0.0580 -0.0748 -0.2167
  950POPC   C4B12882  15.128   7.729   7.321  0.2503  0.1020 -0.3969
  951POPC   NC312883   4.923   5.765   4.827 -0.0861 -0.2141 -0.0934
  951POPC   PO412884   4.722   5.413   5.227 -0.1297 -0.0205 -0.0090
  951POPC   GL112885   4.491   5.504   5.651  0.0321  0.2278 -0.2087
  951POPC   GL212886   4.264   5.190   5.688 -0.1264  0.0009  0.1478
  951POPC   C1A12887   4.716   5.670   5.983 -0.1949  0.0770  0.4031
  951POPC   D2A12888   4.759   5.758   6.434  0.4601 -0.1062  0.2145
  951POPC   C3A12889   5.116   5.819   6.637 -0.4228 -0.1477 -0.1088
  951POPC   C4A12890   5.380   6.213   6.728  0.3650 -0.1409 -0.0205
  951POPC   C1B12891   4.554   5.170   5.983 -0.2045 -0.0638  0.1547
  951POPC   C2B12892   4.704   5.282   6.339 -0.0911 -0.0850  0.3368
  951POPC   C3B12893   4.762   5.447   6.784  0.2107 -0.1218  0.0225
  951POPC   C4B12894   4.660   5.801   6.953  0.1269 -0.2568 -0.0035
  952POPC   NC312895   3.189   1.669   6.248 -0.0564 -0.0066 -0.1650
  952POPC   PO412896   3.519   1.992   6.180 -0.0440  0.2452 -0.3724
  952POPC   GL112897   3.457   1.965   6.535  0.4408 -0.2010  0.2185
  952POPC   GL212898   3.297   2.203   6.618  0.0060 -0.0265  0.0197
  952POPC   C1A12899   3.621   1.930   6.947 -0.0894  0.2283 -0.1997
  952POPC   D2A12900   3.889   2.091   7.214 -0.0361 -0.0128  0.1652
  952POPC   C3A12901   4.144   1.831   7.314 -0.2128 -0.3392 -0.1369
  952POPC   C4A12902   4.481   1.564   7.274  0.0512  0.3053 -0.1808
  952POPC   C1B12903   3.280   2.309   6.928  0.3024  0.1732 -0.1277
  952POPC   C2B12904   3.177   2.553   7.253 -0.2631  0.3157  0.2550
  952POPC   C3B12905   3.212   2.804   7.645 -0.0809 -0.0019 -0.1606
  952POPC   C4B12906   3.163   3.265   7.743 -0.0150 -0.3411  0.2402
  953POPC   NC312907  13.801  12.216   5.777  0.0161 -0.1575 -0.4019
  953POPC   PO412908  13.342  11.996   5.926 -0.0106  0.0051 -0.0603
  953POPC   GL112909  13.372  12.173   6.278  0.3928  0.2349  0.2420
  953POPC   GL212910  13.124  12.087   6.501 -0.1281  0.2507 -0.2561
  953POPC   C1A12911  13.501  12.306   6.690  0.2010  0.1170 -0.0709
  953POPC   D2A12912  13.380  12.368   7.061 -0.1363 -0.3269  0.1482
  953POPC   C3A12913  13.633  12.266   7.365  0.0357  0.1721 -0.0143
  953POPC   C4A12914  13.864  12.026   7.584  0.3148  0.1457  0.0539
  953POPC   C1B12915  13.026  11.992   6.928  0.2203  0.1761 -0.0617
  953POPC   C2B12916  13.202  12.000   7.291 -0.0657  0.4003 -0.2360
  953POPC   C3B12917  13.394  12.067   7.785 -0.1240 -0.5273  0.0640
  953POPC   C4B12918  13.460  12.377   8.068  0.1570 -0.0321  0.1892
  954POPC   NC312919   3.661   9.802   4.458  0.1784 -0.1739  0.1074
  954POPC   PO412920   3.854   9.685   4.967 -0.0346  0.2062  0.0435
  954POPC   GL112921   3.794   9.714   5.382 -0.1426  0.0176 -0.2553
  954POPC   GL212922   3.652   9.971   5.597 -0.0703  0.5077 -0.0583
  954POPC   C1A12923   4.011   9.548   5.837 -0.0665 -0.3429 -0.1550
  954POPC   D2A12924   3.912   9.695   6.217 -0.1946 -0.0457 -0.3129
  954POPC   C3A12925   3.903   9.729   6.621  0.1376 -0.2059  0.1230
  954POPC   C4A12926   4.090   9.653   7.105  0.2599 -0.1472  0.0103
  954POPC   C1B12927   3.560  10.091   5.962 -0.0815 -0.0430  0.1240
  954POPC   C2B12928   3.854  10.323   6.267 -0.1727 -0.2661  0.2543
  954POPC   C3B12929   3.767  10.179   6.702  0.3391 -0.1585 -0.0031
  954POPC   C4B12930   3.503   9.928   6.962 -0.3870 -0.2397 -0.1982
  955POPC   NC312931  10.245  10.344   5.684 -0.3350 -0.0864  0.2670
  955POPC   PO412932  10.537  10.617   5.562 -0.0519 -0.0791  0.0794
  955POPC   GL112933  10.623  10.687   5.925 -0.0220 -0.0496 -0.1235
  955POPC   GL212934  10.850  10.676   6.114 -0.3772 -0.0656  0.2851
  955POPC   C1A12935  10.467  10.946   6.247 -0.1845  0.2086 -0.2366
  955POPC   D2A12936  10.182  10.914   6.544  0.0961 -0.1934  0.0403
  955POPC   C3A12937  10.068  11.345   6.695 -0.0594 -0.2391  0.2078
  955POPC   C4A12938   9.911  11.661   6.936 -0.0374 -0.3355 -0.0296
  955POPC   C1B12939  10.673  10.538   6.523 -0.2257 -0.1296 -0.1563
  955POPC   C2B12940  10.883  10.526   6.896  0.0166 -0.1587 -0.2402
  955POPC   C3B12941  10.941  10.867   7.091  0.0998 -0.0535 -0.0067
  955POPC   C4B12942  10.932  10.958   7.558  0.2634  0.0617  0.2998
  956POPC   NC312943   4.452   3.065   5.322  0.5375 -0.2118  0.0454
  956POPC   PO412944   4.639   2.668   5.501  0.4058  0.2655  0.0581
  956POPC   GL112945   4.691   2.559   5.902 -0.2684 -0.0435 -0.1054
  956POPC   GL212946   5.133   2.652   6.019  0.0244  0.1086  0.1661
  956POPC   C1A12947   4.905   2.292   6.259 -0.1164  0.1026 -0.0542
  956POPC   D2A12948   5.139   2.266   6.629  0.1901  0.0494 -0.1185
  956POPC   C3A12949   5.078   2.516   6.995  0.3108  0.0719  0.0799
  956POPC   C4A12950   5.221   2.761   7.354 -0.1830 -0.2314 -0.2270
  956POPC   C1B12951   4.974   2.734   6.476 -0.4897 -0.0799 -0.2107
  956POPC   C2B12952   4.626   2.870   6.801 -0.0464 -0.0098 -0.0571
  956POPC   C3B12953   4.086   2.884   6.850 -0.0730 -0.0065  0.0895
  956POPC   C4B12954   3.691   2.935   6.758 -0.5590 -0.2338  0.2212
  957POPC   NC312955   1.787  16.573   5.757 -0.1905  0.1068 -0.1460
  957POPC   PO412956   1.446  16.928   5.878  0.0311  0.2401  0.2188
  957POPC   GL112957   1.181  16.813   6.242  0.0605  0.0368 -0.0485
  957POPC   GL212958   0.971  16.516   6.234  0.2342 -0.0502  0.3980
  957POPC   C1A12959   1.140  17.002   6.752  0.1040 -0.0719  0.3136
  957POPC   D2A12960   1.211  16.909   7.168 -0.0533  0.0329  0.2963
  957POPC   C3A12961   1.262  16.843   7.576 -0.0287 -0.1210  0.0454
  957POPC   C4A12962   1.582  16.745   7.952 -0.3308  0.3647  0.1271
  957POPC   C1B12963   1.251  16.494   6.643  0.2219 -0.0585 -0.0838
  957POPC   C2B12964   1.043  16.412   7.031 -0.0722 -0.0444  0.0635
  957POPC   C3B12965   0.815  16.659   7.390 -0.0726  0.0391  0.2514
  957POPC   C4B12966   0.606  16.761   7.819  0.0006  0.2055  0.2067
  958POPC   NC312967  10.548   0.508   5.603 -0.1694  0.1517  0.0176
  958POPC   PO412968  10.529   0.023   5.650 -0.0119 -0.0767 -0.0009
  958POPC   GL112969  10.653  -0.144   6.020 -0.0632  0.0236  0.1189
  958POPC   GL212970  10.919  -0.020   6.130  0.2552  0.2307 -0.1470
  958POPC   C1A12971  10.572  -0.203   6.568 -0.0245  0.3802  0.2275
  958POPC   D2A12972  10.442  -0.235   6.998 -0.2941  0.3380 -0.2736
  958POPC   C3A12973  10.352  -0.006   7.368  0.2446 -0.0320  0.3174
  958POPC   C4A12974  10.408   0.351   7.585 -0.2598 -0.4127 -0.1519
  958POPC   C1B12975  11.048  -0.121   6.546  0.2076  0.2046 -0.0514
  958POPC   C2B12976  11.001  -0.468   6.764  0.1155 -0.0004  0.0844
  958POPC   C3B12977  10.893  -0.618   7.101 -0.0009  0.0222  0.1101
  958POPC   C4B12978  10.594  -0.480   7.359 -0.0424 -0.3494  0.0271
  959POPC   NC312979  10.174  14.994   5.386 -0.1526  0.0835 -0.0969
  959POPC   PO412980  10.719  14.901   5.414  0.4910  0.0082  0.1157
  959POPC   GL112981  10.908  14.903   5.796 -0.1508 -0.1611 -0.1982
  959POPC   GL212982  11.215  14.685   5.838  0.3210 -0.0844  0.0016
  959POPC   C1A12983  10.907  14.917   6.269  0.0278  0.0668  0.0528
  959POPC   D2A12984  10.984  14.873   6.662 -0.1028 -0.0544 -0.2776
  959POPC   C3A12985  10.925  15.242   6.874 -0.2553  0.0509  0.4383
  959POPC   C4A12986  10.806  15.257   7.214 -0.2705 -0.2315 -0.2643
  959POPC   C1B12987  11.397  14.661   6.280 -0.0814 -0.0244 -0.0143
  959POPC   C2B12988  11.691  14.758   6.584  0.2229 -0.2157  0.0541
  959POPC   C3B12989  11.987  14.751   6.958 -0.0300 -0.0145  0.1804
  959POPC   C4B12990  11.746  14.855   7.339 -0.2443 -0.0307  0.0215
  960POPC   NC312991  13.897   0.111   5.633  0.2646 -0.3444  0.0649
  960POPC   PO412992  13.578  -0.215   5.453 -0.3918 -0.4200 -0.0176
  960POPC   GL112993  13.509  -0.115   5.875 -0.0434 -0.0080 -0.0517
  960POPC   GL212994  13.720  -0.118   6.166 -0.2438  0.0555  0.3001
  960POPC   C1A12995  13.342   0.152   6.270  0.4116  0.1790  0.1464
  960POPC   D2A12996  13.239   0.071   6.662 -0.0092 -0.2290 -0.0218
  960POPC   C3A12997  13.540   0.004   7.020  0.3178  0.2465 -0.2928
  960POPC   C4A12998  13.445   0.116   7.506 -0.0530  0.0704  0.0140
  960POPC   C1B12999  13.788  -0.069   6.609 -0.0924  0.0096  0.2363
  960POPC   C2B13000  14.015  -0.308   6.967  0.3972 -0.1801  0.1609
  960POPC   C3B13001  13.917  -0.152   7.394  0.2883  0.0907  0.2515
  960POPC   C4B13002  13.797  -0.010   7.816  0.0260 -0.1290 -0.2424
  961POPC   NC313003   4.278  15.678   5.097 -0.1511  0.0387 -0.0319
  961POPC   PO413004   4.180  15.675   5.603 -0.1259  0.2571 -0.0456
  961POPC   GL113005   4.374  15.546   5.955  0.1126 -0.2199  0.2458
  961POPC   GL213006   4.733  15.631   6.052 -0.0496 -0.0263 -0.0928
  961POPC   C1A13007   4.110  15.494   6.308 -0.2863 -0.3715  0.1888
  961POPC   D2A13008   3.955  15.782   6.643  0.2451 -0.1384 -0.0186
  961POPC   C3A13009   4.283  15.910   6.925  0.0469  0.0597  0.4343
  961POPC   C4A13010   4.422  15.909   7.271  0.2781  0.0689 -0.0979
  961POPC   C1B13011   5.000  15.844   6.346  0.0145 -0.0226  0.0400
  961POPC   C2B13012   5.271  15.817   6.704 -0.0126 -0.1648  0.0306
  961POPC   C3B13013   5.443  15.733   7.047  0.2190 -0.0964  0.3099
  961POPC   C4B13014   5.748  15.903   7.287 -0.2245 -0.0560  0.0377
  962POPC   NC313015   3.592  17.395   5.704 -0.0939  0.0091 -0.2479
  962POPC   PO413016   3.439  17.736   5.946  0.1103  0.1872 -0.3454
  962POPC   GL113017   3.131  17.596   6.366 -0.0210  0.2194  0.1186
  962POPC   GL213018   3.419  17.659   6.561  0.2577  0.1783  0.1828
  962POPC   C1A13019   3.085  17.299   6.694  0.0540 -0.1089 -0.1335
  962POPC   D2A13020   3.251  17.209   7.093 -0.4217 -0.2128  0.3886
  962POPC   C3A13021   3.302  17.558   7.404 -0.2073  0.2830 -0.3520
  962POPC   C4A13022   3.526  17.687   7.758 -0.1951  0.0243 -0.0589
  962POPC   C1B13023   3.505  17.737   6.971  0.1109  0.0696  0.2249
  962POPC   C2B13024   3.711  17.896   7.364 -0.1521 -0.0156  0.1767
  962POPC   C3B13025   3.992  18.215   7.666  0.1634  0.1001 -0.0796
  962POPC   C4B13026   4.291  18.471   7.860 -0.2992 -0.4586  0.0537
  963POPC   NC313027  12.935   5.012   5.083  0.1497  0.1631  0.0396
  963POPC   PO413028  13.291   4.763   5.080  0.0272  0.3416  0.1176
  963POPC   GL113029  13.438   4.931   5.462  0.3265 -0.1102 -0.2602
  963POPC   GL213030  13.191   5.053   5.517 -0.1423  0.1661 -0.0900
  963POPC   C1A13031  13.353   4.643   5.874 -0.0848 -0.0988 -0.2494
  963POPC   D2A13032  13.157   4.789   6.275 -0.1476 -0.2840 -0.4660
  963POPC   C3A13033  13.139   4.639   6.712 -0.3413  0.1809  0.1624
  963POPC   C4A13034  13.383   4.566   7.125  0.0575 -0.0767  0.1135
  963POPC   C1B13035  12.959   5.067   5.831  0.0203 -0.0736 -0.0216
  963POPC   C2B13036  12.766   5.100   6.179 -0.3363 -0.0012 -0.0166
  963POPC   C3B13037  12.770   5.112   6.518  0.1145 -0.2509 -0.3025
  963POPC   C4B13038  12.820   4.952   6.937  0.0287  0.0872  0.1182
  964POPC   NC313039  14.128   1.092   5.614 -0.4683 -0.1635 -0.3223
  964POPC   PO413040  14.387   1.371   5.840  0.0605  0.0591  0.0971
  964POPC   GL113041  14.133   1.245   6.189  0.1232 -0.1573 -0.1775
  964POPC   GL213042  13.892   1.125   6.141  0.1175  0.4497  0.0957
  964POPC   C1A13043  14.109   1.217   6.636 -0.1529 -0.1379  0.2360
  964POPC   D2A13044  14.332   1.081   6.985  0.0193 -0.1849  0.1181
  964POPC   C3A13045  14.313   1.323   7.485  0.1509  0.0588  0.0431
  964POPC   C4A13046  14.014   1.605   7.614  0.1660  0.0599 -0.3921
  964POPC   C1B13047  13.659   0.984   6.431 -0.0135 -0.1438 -0.1336
  964POPC   C2B13048  13.596   1.044   6.832  0.1500  0.1380 -0.1374
  964POPC   C3B13049  13.524   1.097   7.302  0.1335  0.1354  0.0539
  964POPC   C4B13050  13.210   0.965   7.641 -0.0255  0.0573 -0.3265
  965POPC   NC313051  12.150   2.497   5.017  0.0065  0.2926 -0.2490
  965POPC   PO413052  12.204   2.455   5.569  0.2523 -0.0421  0.2316
  965POPC   GL113053  12.263   2.225   5.941  0.0403  0.1843 -0.0272
  965POPC   GL213054  12.188   1.997   5.812 -0.2700 -0.2284  0.1753
  965POPC   C1A13055  12.172   2.350   6.350  0.2576  0.0615 -0.1724
  965POPC   D2A13056  12.068   2.326   6.716  0.0699 -0.1787 -0.0217
  965POPC   C3A13057  12.048   2.595   7.084 -0.0935 -0.1247 -0.0109
  965POPC   C4A13058  11.916   2.754   7.465  0.3718 -0.3187 -0.0351
  965POPC   C1B13059  12.088   1.887   6.300  0.2728  0.1100 -0.0113
  965POPC   C2B13060  12.106   1.806   6.742 -0.0672  0.3024  0.0244
  965POPC   C3B13061  11.796   1.921   6.952 -0.0075 -0.0076 -0.1182
  965POPC   C4B13062  11.781   2.113   7.267 -0.1435 -0.0885 -0.3981
  966POPC   NC313063  14.495  18.600   4.992  0.1339 -0.0985 -0.1610
  966POPC   PO413064  14.325  18.866   5.329 -0.0339  0.0776  0.0410
  966POPC   GL113065  14.393  18.781   5.816  0.1712 -0.1084 -0.0159
  966POPC   GL213066  14.674  18.670   6.009  0.0108  0.4466  0.4119
  966POPC   C1A13067  14.217  18.835   6.323  0.2571 -0.1202 -0.4525
  966POPC   D2A13068  14.271  18.856   6.755 -0.0402  0.1673 -0.0168
  966POPC   C3A13069  14.043  18.946   7.002  0.2075 -0.2434 -0.1980
  966POPC   C4A13070  14.048  19.119   7.403 -0.6264 -0.1263 -0.3323
  966POPC   C1B13071  14.723  18.555   6.352  0.0129  0.2567  0.0724
  966POPC   C2B13072  14.990  18.224   6.658 -0.0550  0.2490  0.0330
  966POPC   C3B13073  15.465  18.101   6.670  0.0342 -0.0835 -0.3044
  966POPC   C4B13074  15.733  17.972   6.442  0.1780 -0.3744  0.0540
  967POPC   NC313075  18.579   8.525   5.106  0.2236  0.1829 -0.0509
  967POPC   PO413076  18.570   8.633   5.457  0.0873 -0.2933 -0.1812
  967POPC   GL113077  18.775   8.627   5.888  0.4527 -0.1757 -0.1798
  967POPC   GL213078  18.722   8.292   5.907  0.1869  0.1374 -0.2040
  967POPC   C1A13079  18.463   8.590   6.273  0.2497 -0.0063  0.2057
  967POPC   D2A13080  18.456   8.450   6.710 -0.0735 -0.0590  0.2320
  967POPC   C3A13081  18.671   8.344   7.117  0.0006 -0.2212 -0.1588
  967POPC   C4A13082  18.803   8.037   7.511  0.0419 -0.1379 -0.0113
  967POPC   C1B13083  18.871   8.060   6.219  0.0413  0.1074 -0.0468
  967POPC   C2B13084  18.853   8.025   6.643 -0.0365 -0.2053 -0.1451
  967POPC   C3B13085  19.031   8.016   7.041  0.0178 -0.1331  0.1366
  967POPC   C4B13086  19.237   8.145   7.359  0.0717 -0.2270  0.1841
  968POPC   NC313087  15.707  15.518   5.967  0.4721 -0.0551  0.2172
  968POPC   PO413088  15.616  15.161   6.093  0.1746 -0.0375 -0.1029
  968POPC   GL113089  15.796  15.128   6.537 -0.0032  0.0429 -0.0263
  968POPC   GL213090  15.584  14.900   6.529  0.2053 -0.0239  0.2307
  968POPC   C1A13091  15.599  15.133   7.002  0.1319  0.2945  0.5584
  968POPC   D2A13092  15.671  15.069   7.385  0.1140  0.0467  0.2615
  968POPC   C3A13093  15.393  15.301   7.740  0.4672 -0.3535 -0.0774
  968POPC   C4A13094  15.426  15.435   8.118 -0.3865  0.2255  0.0428
  968POPC   C1B13095  15.411  14.576   6.819  0.0904 -0.0965 -0.0892
  968POPC   C2B13096  15.423  14.625   7.297  0.1205 -0.1307 -0.1124
  968POPC   C3B13097  15.315  14.275   7.582 -0.0593  0.2915  0.0689
  968POPC   C4B13098  15.324  13.985   7.937 -0.1268 -0.0202  0.1513
  969POPC   NC313099  18.285   2.061   5.260  0.3021 -0.2719  0.2665
  969POPC   PO413100  18.272   2.095   5.698  0.0663  0.1207  0.2707
  969POPC   GL113101  18.545   1.819   6.014  0.0592 -0.0511  0.3283
  969POPC   GL213102  18.435   1.485   6.108 -0.1812 -0.3161 -0.1225
  969POPC   C1A13103  18.791   1.798   6.379  0.0171 -0.0749 -0.3696
  969POPC   D2A13104  18.701   1.987   6.711  0.0777  0.2887 -0.0657
  969POPC   C3A13105  18.551   1.859   7.144 -0.0138 -0.0354 -0.1111
  969POPC   C4A13106  18.770   2.024   7.487  0.1196  0.1330 -0.0980
  969POPC   C1B13107  18.255   1.657   6.547  0.3128  0.3750  0.0283
  969POPC   C2B13108  18.224   2.048   6.755 -0.0164 -0.1245  0.4887
  969POPC   C3B13109  18.080   2.194   7.159 -0.2059  0.0494 -0.1842
  969POPC   C4B13110  18.192   2.182   7.549  0.4386  0.1868 -0.0167
  970POPC   NC313111  10.670   9.649   5.297  0.0737 -0.1531  0.1990
  970POPC   PO413112  10.390   9.756   5.733 -0.0647 -0.2569 -0.1954
  970POPC   GL113113  10.562   9.772   6.189 -0.3312  0.1472 -0.0721
  970POPC   GL213114  10.850   9.653   6.314 -0.0070  0.1521  0.0885
  970POPC   C1A13115  10.490  10.093   6.613 -0.0185  0.1120  0.0031
  970POPC   D2A13116  10.394  10.277   6.992 -0.1774  0.2338 -0.1927
  970POPC   C3A13117  10.388   9.910   7.318  0.1730 -0.0368 -0.0628
  970POPC   C4A13118  10.667  10.018   7.583  0.0393 -0.2978  0.0001
  970POPC   C1B13119  10.759   9.549   6.717 -0.3107 -0.2120 -0.1248
  970POPC   C2B13120  10.747   9.607   7.036 -0.2964 -0.0145  0.3385
  970POPC   C3B13121  10.765   9.513   7.502 -0.1266  0.0501  0.1604
  970POPC   C4B13122  10.841   9.023   7.699 -0.2467 -0.3136  0.0126
  971POPC   NC313123   7.294   3.482   5.648  0.0285 -0.1607  0.1156
  971POPC   PO413124   7.476   3.040   5.707 -0.1560 -0.1068 -0.1301
  971POPC   GL113125   7.662   2.821   6.075  0.0430 -0.1014 -0.0409
  971POPC   GL213126   7.945   2.976   6.217 -0.2549  0.3499  0.0328
  971POPC   C1A13127   7.542   2.833   6.467  0.0530  0.0421  0.0750
  971POPC   D2A13128   7.426   2.811   6.999 -0.1569 -0.0002 -0.1108
  971POPC   C3A13129   7.634   2.656   7.393  0.0351  0.1189 -0.2336
  971POPC   C4A13130   7.796   2.234   7.651 -0.0501 -0.2092  0.2200
  971POPC   C1B13131   7.978   3.343   6.248 -0.0443  0.3035 -0.2301
  971POPC   C2B13132   8.005   3.715   6.487  0.1729 -0.0213  0.3085
  971POPC   C3B13133   8.312   3.961   6.714 -0.0611 -0.0654  0.2069
  971POPC   C4B13134   8.445   4.271   6.889  0.2137 -0.2006  0.0290
  972POPC   NC313135  18.329  17.944   5.653 -0.1350 -0.1801  0.4598
  972POPC   PO413136  18.198  18.209   5.950 -0.2667 -0.0811  0.1552
  972POPC   GL113137  18.019  18.405   6.285 -0.5167  0.1893 -0.0390
  972POPC   GL213138  18.041  18.657   6.317  0.4299  0.1208 -0.3266
  972POPC   C1A13139  18.110  18.426   6.738  0.3119  0.0424 -0.2585
  972POPC   D2A13140  18.134  18.418   7.236 -0.1083 -0.2679  0.3789
  972POPC   C3A13141  18.037  18.502   7.621 -0.0503  0.4286 -0.2446
  972POPC   C4A13142  18.037  18.357   8.143  0.1496 -0.0203 -0.1778
  972POPC   C1B13143  17.813  18.842   6.637  0.1341 -0.4391  0.2527
  972POPC   C2B13144  17.675  18.748   7.034  0.0231 -0.0112  0.1916
  972POPC   C3B13145  17.556  18.658   7.487 -0.1408 -0.2394  0.1781
  972POPC   C4B13146  17.104  18.550   7.739 -0.3663 -0.4378 -0.2621
  973POPC   NC313147   0.090  17.396   5.984 -0.1410  0.1680 -0.0373
  973POPC   PO413148  -0.223  17.077   6.097 -0.0850 -0.0681 -0.0841
  973POPC   GL113149  -0.404  17.203   6.485  0.1951  0.0250  0.0311
  973POPC   GL213150  -0.688  17.068   6.520 -0.2290 -0.0713 -0.1008
  973POPC   C1A13151  -0.464  17.401   6.823 -0.1934 -0.3075  0.2388
  973POPC   D2A13152  -0.366  17.362   7.267 -0.3530 -0.3512  0.2163
  973POPC   C3A13153  -0.689  17.478   7.631  0.0263 -0.0643 -0.3967
  973POPC   C4A13154  -0.717  17.946   7.755  0.0477 -0.2568  0.0534
  973POPC   C1B13155  -0.652  16.910   6.936 -0.0775  0.1547 -0.1301
  973POPC   C2B13156  -0.773  16.911   7.380  0.1249 -0.2862 -0.0931
  973POPC   C3B13157  -0.773  17.059   7.905 -0.0326  0.0533  0.1930
  973POPC   C4B13158  -0.859  17.222   8.316 -0.2166 -0.2401  0.1288
  974POPC   NC313159  11.219   6.174   5.981  0.0816 -0.0971  0.0976
  974POPC   PO413160  11.326   5.818   5.775 -0.1941  0.0603 -0.2986
  974POPC   GL113161  11.601   5.898   6.123  0.2302  0.0279  0.2329
  974POPC   GL213162  11.900   5.962   6.092 -0.3197 -0.1848  0.1797
  974POPC   C1A13163  11.638   6.055   6.545 -0.0964  0.0781 -0.1718
  974POPC   D2A13164  11.750   6.285   6.847 -0.2550  0.0467 -0.3275
  974POPC   C3A13165  11.554   6.112   7.143  0.2027 -0.0148 -0.1932
  974POPC   C4A13166  11.205   6.000   7.425  0.1365  0.0425  0.2385
  974POPC   C1B13167  12.027   5.705   6.475  0.3216 -0.0264  0.3889
  974POPC   C2B13168  12.381   5.538   6.639 -0.0535 -0.3579  0.0623
  974POPC   C3B13169  12.634   5.382   6.911 -0.0356 -0.3170 -0.1208
  974POPC   C4B13170  12.759   5.319   7.374 -0.2495 -0.0270 -0.2308
  975POPC   NC313171  10.221  17.300   5.875 -0.0287  0.0796 -0.0797
  975POPC   PO413172  10.120  16.950   5.631  0.1447  0.1355 -0.0520
  975POPC   GL113173   9.908  16.913   5.949  0.0058  0.2216 -0.2964
  975POPC   GL213174   9.816  17.150   6.093 -0.0820 -0.0527 -0.0339
  975POPC   C1A13175   9.736  16.725   6.323 -0.2455 -0.0952 -0.0517
  975POPC   D2A13176   9.763  16.790   6.704 -0.0260 -0.0017 -0.2017
  975POPC   C3A13177   9.509  16.504   6.999 -0.2044  0.1025  0.0628
  975POPC   C4A13178   9.367  16.444   7.402  0.0207 -0.0802  0.0266
  975POPC   C1B13179   9.777  17.248   6.543 -0.1261  0.1096 -0.2628
  975POPC   C2B13180   9.588  17.222   6.938  0.2631 -0.0663  0.1427
  975POPC   C3B13181   9.357  17.008   7.161 -0.0992 -0.0891 -0.1292
  975POPC   C4B13182   9.282  16.918   7.558  0.0566 -0.0357  0.1921
  976POPC   NC313183   7.579  18.610   5.690 -0.0783 -0.3614  0.0065
  976POPC   PO413184   7.951  18.804   5.768  0.2608 -0.2669 -0.1537
  976POPC   GL113185   8.149  18.760   6.084  0.2096  0.0553 -0.0894
  976POPC   GL213186   8.340  18.456   6.028 -0.1505  0.4437  0.1773
  976POPC   C1A13187   8.324  18.656   6.467  0.3559 -0.1971 -0.0928
  976POPC   D2A13188   8.310  18.602   6.836 -0.0428 -0.1531 -0.0550
  976POPC   C3A13189   7.956  18.494   7.127  0.0525 -0.2063  0.2016
  976POPC   C4A13190   7.951  18.505   7.587  0.0888  0.2750 -0.1933
  976POPC   C1B13191   8.515  18.209   6.351  0.3974  0.0379  0.1124
  976POPC   C2B13192   8.752  18.337   6.776  0.0020  0.0280 -0.0087
  976POPC   C3B13193   9.127  18.585   6.942  0.3302  0.1229 -0.0833
  976POPC   C4B13194   9.372  18.953   7.023  0.0601  0.2641 -0.0062
  977POPC   NC313195  18.379   5.994   5.316 -0.1979  0.0802  0.0297
  977POPC   PO413196  18.713   5.984   5.664  0.0389 -0.3060  0.2845
  977POPC   GL113197  18.720   6.166   6.082 -0.1499 -0.3260  0.0266
  977POPC   GL213198  19.081   6.264   6.151  0.2793  0.1614 -0.2555
  977POPC   C1A13199  18.633   6.268   6.516  0.0292 -0.1710  0.0593
  977POPC   D2A13200  18.575   6.294   6.898 -0.0225  0.2013 -0.1312
  977POPC   C3A13201  18.486   6.713   7.051 -0.3358  0.6247 -0.2154
  977POPC   C4A13202  18.548   6.960   7.356  0.0988 -0.2705  0.0790
  977POPC   C1B13203  19.171   6.291   6.573  0.1550 -0.2635  0.0354
  977POPC   C2B13204  19.031   6.331   7.054  0.0274 -0.0123 -0.1508
  977POPC   C3B13205  18.920   6.633   7.397 -0.1049  0.0639 -0.0102
  977POPC   C4B13206  18.727   6.644   7.796  0.0923  0.1197 -0.0800
  978POPC   NC313207   4.419  11.212   5.124  0.1450 -0.0175  0.3111
  978POPC   PO413208   4.567  10.833   5.230  0.4837  0.0892  0.0850
  978POPC   GL113209   4.370  10.883   5.698  0.3686 -0.2690  0.1026
  978POPC   GL213210   4.161  10.662   5.954  0.1170 -0.0656 -0.2505
  978POPC   C1A13211   4.541  11.029   6.045  0.2264  0.3342 -0.3986
  978POPC   D2A13212   4.346  11.354   6.388  0.1342 -0.3571  0.0928
  978POPC   C3A13213   3.947  11.414   6.520  0.0594  0.0124 -0.1273
  978POPC   C4A13214   4.122  11.619   6.965 -0.0633  0.0413  0.5040
  978POPC   C1B13215   4.232  10.682   6.334  0.1720 -0.0147  0.1260
  978POPC   C2B13216   4.165  10.469   6.709 -0.0401 -0.2628  0.0588
  978POPC   C3B13217   3.949  10.573   7.008 -0.0113  0.0411  0.3785
  978POPC   C4B13218   3.626  10.319   7.238  0.1701 -0.1830 -0.3431
  979POPC   NC313219   5.199  17.068   5.908 -0.2231 -0.2922 -0.1597
  979POPC   PO413220   5.641  17.090   5.614 -0.0803  0.1415 -0.0349
  979POPC   GL113221   5.733  17.238   5.999 -0.2576  0.0633 -0.0349
  979POPC   GL213222   5.760  17.496   6.031 -0.1048 -0.2110 -0.3993
  979POPC   C1A13223   5.828  17.230   6.433  0.1444 -0.1291 -0.1084
  979POPC   D2A13224   6.022  17.102   6.802 -0.1023 -0.1619 -0.0640
  979POPC   C3A13225   6.136  17.342   7.035  0.3183  0.1646  0.1595
  979POPC   C4A13226   6.488  17.406   7.431 -0.1518 -0.2831 -0.2579
  979POPC   C1B13227   5.817  17.770   6.361 -0.3249 -0.2570  0.0575
  979POPC   C2B13228   5.858  17.809   6.789 -0.1342  0.4542 -0.2652
  979POPC   C3B13229   5.947  17.818   7.204 -0.0669 -0.2307 -0.1342
  979POPC   C4B13230   5.980  18.006   7.569 -0.1730  0.1271 -0.0279
  980POPC   NC313231   9.034  17.964   5.543 -0.1566 -0.0276 -0.4582
  980POPC   PO413232   8.718  17.669   5.618 -0.0928 -0.2991  0.1338
  980POPC   GL113233   8.497  17.558   5.952 -0.4028 -0.2792  0.1748
  980POPC   GL213234   8.177  17.696   5.936 -0.0596  0.0122 -0.0020
  980POPC   C1A13235   8.480  17.660   6.436  0.0598 -0.0804 -0.0620
  980POPC   D2A13236   8.671  17.851   6.716  0.3994 -0.1738  0.1867
  980POPC   C3A13237   8.756  17.523   7.057 -0.1012 -0.0900 -0.2102
  980POPC   C4A13238   8.722  17.181   7.423  0.0344 -0.1270  0.2833
  980POPC   C1B13239   7.939  17.821   6.155 -0.1910  0.2419 -0.2112
  980POPC   C2B13240   7.566  17.961   6.210 -0.2817  0.1979 -0.1026
  980POPC   C3B13241   7.273  17.812   6.505  0.1339 -0.2246  0.0795
  980POPC   C4B13242   6.900  17.645   6.513  0.1287  0.3239 -0.1547
  981POPC   NC313243   8.272  17.460   5.434  0.0332 -0.0467  0.0230
  981POPC   PO413244   8.235  16.942   5.332  0.0244 -0.0701  0.1440
  981POPC   GL113245   8.248  16.763   5.673 -0.1047  0.2128  0.0398
  981POPC   GL213246   8.388  17.074   5.827  0.0355  0.1861 -0.0997
  981POPC   C1A13247   8.160  16.736   6.064  0.2874  0.0317  0.0661
  981POPC   D2A13248   8.084  16.757   6.513 -0.3091 -0.0200 -0.0983
  981POPC   C3A13249   8.101  16.479   6.873 -0.2458 -0.1251 -0.2581
  981POPC   C4A13250   7.944  16.303   7.279  0.2080 -0.0707 -0.0518
  981POPC   C1B13251   8.188  17.199   6.258 -0.0283 -0.2370 -0.1736
  981POPC   C2B13252   8.282  17.216   6.751  0.1810 -0.2629  0.0185
  981POPC   C3B13253   8.133  16.920   7.111 -0.3073  0.1927  0.4000
  981POPC   C4B13254   8.456  16.733   7.493 -0.0111 -0.1539 -0.0293
  982YOPC   NC313255  16.216   7.160   5.711  0.2449  0.2054  0.2155
  982YOPC   PO413256  16.514   6.886   5.961 -0.2309 -0.0362  0.0281
  982YOPC   GL113257  16.515   6.664   6.237 -0.3982 -0.0299  0.0195
  982YOPC   GL213258  16.817   6.678   6.324  0.0546  0.1884 -0.1865
  982YOPC   C1A13259  16.481   6.468   6.710 -0.0124 -0.0864  0.1455
  982YOPC   D2A13260  16.621   6.435   7.146 -0.0955 -0.0792  0.0009
  982YOPC   C3A13261  16.489   6.279   7.538 -0.1955  0.0104  0.0029
  982YOPC   C4A13262  16.789   6.289   7.849 -0.4799 -0.1213 -0.1153
  982YOPC   C1B13263  16.919   6.763   6.860 -0.2246  0.3946  0.1796
  982YOPC   C2B13264  17.189   6.900   7.047 -0.6676 -0.3627  0.1318
  982YOPC   D3B13265  17.173   7.240   7.331 -0.4505  0.0949 -0.1196
  982YOPC   C4B13266  17.003   7.523   7.587 -0.0168  0.1730 -0.2887
  983YOPC   NC313267   3.842  14.810   5.162  0.0491 -0.2460  0.0415
  983YOPC   PO413268   4.154  14.679   5.468 -0.0276 -0.4213 -0.0127
  983YOPC   GL113269   4.149  14.723   5.957  0.2020 -0.1938  0.0176
  983YOPC   GL213270   4.380  14.471   6.117  0.1488 -0.1505 -0.1016
  983YOPC   C1A13271   3.979  14.636   6.371 -0.0465 -0.1217 -0.2733
  983YOPC   D2A13272   3.751  14.792   6.722  0.0252 -0.3180  0.0130
  983YOPC   C3A13273   3.669  14.899   7.175 -0.2322 -0.2595 -0.0230
  983YOPC   C4A13274   3.353  14.864   7.469 -0.0729 -0.0467  0.1181
  983YOPC   C1B13275   4.440  14.635   6.561 -0.1190  0.5007  0.0941
  983YOPC   C2B13276   4.586  14.996   6.877 -0.2138 -0.0307 -0.1552
  983YOPC   D3B13277   4.636  14.956   7.353  0.0156  0.1305 -0.4617
  983YOPC   C4B13278   4.903  15.152   7.657  0.7468  0.1092 -0.1056
  984YOPC   NC313279   3.694  11.238   5.139  0.1881  0.1224 -0.2363
  984YOPC   PO413280   3.650  11.410   5.453 -0.1923 -0.2118 -0.0202
  984YOPC   GL113281   3.922  11.281   5.882  0.0040 -0.2138 -0.1392
  984YOPC   GL213282   3.879  11.460   6.022 -0.0609 -0.1115 -0.2878
  984YOPC   C1A13283   3.721  10.985   6.223  0.1273 -0.3095  0.0939
  984YOPC   D2A13284   3.684  10.706   6.563  0.1028  0.1107 -0.1922
  984YOPC   C3A13285   3.356  10.507   6.727  0.0688 -0.0783  0.2128
  984YOPC   C4A13286   2.822  10.418   6.835 -0.2631 -0.0742 -0.1816
  984YOPC   C1B13287   3.640  11.721   6.251  0.0711 -0.1899 -0.0350
  984YOPC   C2B13288   3.248  11.740   6.486 -0.2159 -0.2751 -0.2843
  984YOPC   D3B13289   3.002  11.444   6.778  0.1540 -0.1119  0.2635
  984YOPC   C4B13290   2.681  11.340   7.147  0.0653 -0.0444 -0.0328
  985YOPC   NC313291   4.993  12.497   5.371 -0.3154  0.1686 -0.1636
  985YOPC   PO413292   4.705  12.298   5.405  0.1030 -0.0579 -0.0380
  985YOPC   GL113293   4.663  12.217   5.868 -0.0342  0.0430  0.0064
  985YOPC   GL213294   4.770  12.481   5.923  0.2755 -0.2678  0.0050
  985YOPC   C1A13295   4.587  12.023   6.150  0.1375  0.0349  0.3209
  985YOPC   D2A13296   4.657  11.748   6.337 -0.0044  0.1248  0.4308
  985YOPC   C3A13297   4.520  11.857   6.739 -0.0259 -0.1137 -0.1944
  985YOPC   C4A13298   4.866  11.819   7.222  0.1997  0.0655  0.2714
  985YOPC   C1B13299   4.860  12.478   6.333  0.3121 -0.3418 -0.1424
  985YOPC   C2B13300   4.898  12.181   6.590  0.4346 -0.1054  0.4209
  985YOPC   D3B13301   4.749  12.269   7.044 -0.1995  0.2404  0.0226
  985YOPC   C4B13302   4.378  12.526   7.203 -0.1017 -0.2414 -0.2495
  986YOPC   NC313303  10.090   2.924   5.520 -0.0073 -0.2327 -0.3171
  986YOPC   PO413304  10.383   2.728   5.844  0.0899  0.0461 -0.0749
  986YOPC   GL113305  10.374   2.535   6.177  0.0806 -0.0380  0.3320
  986YOPC   GL213306  10.153   2.676   6.381 -0.2465 -0.0860  0.3088
  986YOPC   C1A13307  10.503   2.348   6.469  0.2046 -0.0897 -0.0112
  986YOPC   D2A13308  10.823   2.273   6.798 -0.0005  0.3307  0.2635
  986YOPC   C3A13309  10.665   2.230   7.139  0.0422  0.0040 -0.0592
  986YOPC   C4A13310  10.738   2.106   7.524 -0.2812 -0.1910 -0.1242
  986YOPC   C1B13311   9.963   2.757   6.726 -0.0789 -0.3138  0.0140
  986YOPC   C2B13312   9.810   2.819   7.119  0.1679  0.0232 -0.1859
  986YOPC   D3B13313   9.690   2.533   7.287 -0.1336 -0.2501 -0.2696
  986YOPC   C4B13314   9.667   2.191   7.481  0.0500  0.0933  0.3127
  987YOPC   NC313315   8.516  13.653   5.596  0.0118  0.4980  0.0018
  987YOPC   PO413316   8.857  13.486   5.516  0.4383  0.0795  0.1662
  987YOPC   GL113317   9.026  13.400   5.902  0.0370  0.1333  0.2522
  987YOPC   GL213318   9.281  13.626   5.946 -0.1209  0.2837  0.1066
  987YOPC   C1A13319   9.079  13.359   6.330  0.2338  0.3637 -0.2769
  987YOPC   D2A13320   9.255  13.523   6.658  0.2294  0.0148 -0.0135
  987YOPC   C3A13321   9.161  13.502   7.157 -0.1158  0.0069 -0.3692
  987YOPC   C4A13322   8.976  13.486   7.572  0.0990  0.2852  0.2284
  987YOPC   C1B13323   9.540  13.631   6.273  0.0123  0.0683 -0.0408
  987YOPC   C2B13324   9.762  13.798   6.622 -0.1849 -0.1898 -0.2566
  987YOPC   D3B13325   9.720  13.731   7.069 -0.1632  0.2007 -0.1951
  987YOPC   C4B13326   9.492  13.773   7.410 -0.0833 -0.2909  0.1592
  988YOPC   NC313327   6.640   5.660   5.627 -0.0296 -0.1425 -0.4315
  988YOPC   PO413328   6.277   5.678   5.154  0.2015  0.1130 -0.0942
  988YOPC   GL113329   6.098   5.664   5.617  0.1338 -0.2212 -0.2037
  988YOPC   GL213330   5.897   5.965   5.583  0.0524 -0.2312 -0.0685
  988YOPC   C1A13331   6.017   5.307   5.960 -0.0550  0.1097  0.1632
  988YOPC   D2A13332   5.823   5.091   6.383  0.2027  0.2079  0.1610
  988YOPC   C3A13333   5.833   5.230   6.761  0.0539  0.0579 -0.0818
  988YOPC   C4A13334   6.007   5.357   7.180  0.2178  0.0136 -0.0308
  988YOPC   C1B13335   6.003   5.910   6.007 -0.1668  0.1556 -0.0002
  988YOPC   C2B13336   6.218   5.753   6.325 -0.3343  0.1413 -0.0180
  988YOPC   D3B13337   6.534   5.676   6.689 -0.2511  0.0307  0.1939
  988YOPC   C4B13338   6.920   5.481   6.941  0.2432  0.2386  0.2912
  989YOPC   NC313339  13.590  12.968   5.790 -0.0047  0.0501 -0.0912
  989YOPC   PO413340  13.812  12.682   5.899  0.1368  0.2914 -0.2014
  989YOPC   GL113341  13.819  12.663   6.316 -0.1421 -0.0723  0.0417
  989YOPC   GL213342  13.834  12.281   6.242 -0.3368 -0.0280  0.0594
  989YOPC   C1A13343  13.994  12.523   6.705  0.0193 -0.0643 -0.1579
  989YOPC   D2A13344  13.905  12.511   7.089  0.0836  0.0692  0.0018
  989YOPC   C3A13345  14.084  12.784   7.360 -0.2760 -0.4259  0.0578
  989YOPC   C4A13346  14.045  12.987   7.783  0.7430  0.1159 -0.2432
  989YOPC   C1B13347  13.976  12.039   6.636  0.1037  0.0244  0.0654
  989YOPC   C2B13348  14.067  12.039   7.146  0.4803  0.2535 -0.0926
  989YOPC   D3B13349  14.347  12.250   7.454  0.1505 -0.2303  0.0495
  989YOPC   C4B13350  14.480  12.642   7.676  0.0017 -0.1431 -0.1305
  990YOPC   NC313351  18.036   2.498   5.913 -0.2434  0.0777  0.0795
  990YOPC   PO413352  17.675   2.659   5.796  0.0477 -0.1252  0.0693
  990YOPC   GL113353  17.752   2.840   6.256 -0.1287  0.3478  0.1521
  990YOPC   GL213354  17.961   3.230   6.278  0.2672  0.1254 -0.1703
  990YOPC   C1A13355  17.843   2.793   6.603  0.1405 -0.0346  0.1367
  990YOPC   D2A13356  18.132   2.729   6.851 -0.1592 -0.2762  0.3611
  990YOPC   C3A13357  18.258   2.948   7.233 -0.2035  0.1922 -0.3011
  990YOPC   C4A13358  17.977   3.075   7.491  0.3617  0.0259 -0.2282
  990YOPC   C1B13359  18.092   3.219   6.690 -0.0339  0.1390  0.0306
  990YOPC   C2B13360  18.012   3.312   7.100 -0.0667  0.0154 -0.0312
  990YOPC   D3B13361  18.192   3.581   7.466  0.1889  0.4599 -0.0455
  990YOPC   C4B13362  18.495   3.819   7.679  0.1391  0.1133 -0.0161
  991YOPC   NC313363   2.586  12.460   5.431  0.2060 -0.2278 -0.0915
  991YOPC   PO413364   2.247  12.389   5.733  0.2042 -0.5693 -0.0151
  991YOPC   GL113365   2.488  12.481   6.051  0.0043 -0.1499 -0.2231
  991YOPC   GL213366   2.645  12.724   6.050  0.3737 -0.0873 -0.2143
  991YOPC   C1A13367   2.812  12.536   6.432  0.0548 -0.2927 -0.0952
  991YOPC   D2A13368   2.835  12.403   6.860 -0.1543  0.2208  0.2245
  991YOPC   C3A13369   2.429  12.326   7.158  0.1004  0.0001  0.4838
  991YOPC   C4A13370   2.208  12.132   7.611  0.0730  0.0184  0.0326
  991YOPC   C1B13371   3.034  12.858   6.129 -0.1789 -0.0872 -0.1293
  991YOPC   C2B13372   3.377  13.140   6.164  0.0438  0.1653 -0.1615
  991YOPC   D3B13373   3.500  13.362   6.498  0.1504  0.2591  0.0115
  991YOPC   C4B13374   3.387  13.794   6.673  0.1449  0.2219 -0.1230
  992YOPC   NC313375   3.235   6.982   4.871  0.1370  0.0393  0.2349
  992YOPC   PO413376   3.452   6.934   5.307 -0.0447  0.2978 -0.1002
  992YOPC   GL113377   3.562   6.892   5.756 -0.1678  0.0393 -0.3877
  992YOPC   GL213378   3.737   7.061   5.961  0.1083  0.2977 -0.1247
  992YOPC   C1A13379   3.392   6.668   6.095 -0.2739 -0.4241  0.1997
  992YOPC   D2A13380   3.228   6.754   6.489  0.0749 -0.0323  0.0685
  992YOPC   C3A13381   3.236   7.148   6.663 -0.1976 -0.1460  0.3632
  992YOPC   C4A13382   3.395   7.213   7.095  0.0693 -0.3704  0.2893
  992YOPC   C1B13383   3.732   6.941   6.427  0.2086 -0.1669  0.1337
  992YOPC   C2B13384   3.763   6.933   6.853  0.1319  0.0551  0.0186
  992YOPC   D3B13385   3.495   6.712   7.169 -0.0281 -0.0790  0.2504
  992YOPC   C4B13386   3.229   6.472   7.361  0.3183  0.0906  0.3294
  993YOPC   NC313387  13.666  14.951   5.642 -0.0683 -0.2238 -0.0813
  993YOPC   PO413388  13.639  14.565   5.589 -0.1398 -0.1856 -0.2420
  993YOPC   GL113389  13.509  14.615   6.035 -0.0871 -0.0895 -0.4165
  993YOPC   GL213390  13.196  14.729   5.975 -0.0435  0.0846 -0.3855
  993YOPC   C1A13391  13.721  14.776   6.473  0.2338  0.0320 -0.3505
  993YOPC   D2A13392  14.016  14.640   6.736  0.0702 -0.1514  0.3107
  993YOPC   C3A13393  14.355  14.503   6.578  0.3415 -0.2992 -0.1838
  993YOPC   C4A13394  14.603  14.259   6.369  0.0165  0.0926  0.0100
  993YOPC   C1B13395  13.092  14.761   6.305  0.0672  0.1915  0.0121
  993YOPC   C2B13396  12.908  14.925   6.689 -0.0807  0.2193 -0.1636
  993YOPC   D3B13397  13.027  15.144   7.059 -0.0915 -0.3617  0.2514
  993YOPC   C4B13398  13.228  15.136   7.446  0.0469 -0.0205  0.0070
  994YOPC   NC313399   9.372  18.087   5.001  0.0353 -0.2374 -0.1617
  994YOPC   PO413400   9.463  17.779   5.384  0.1347  0.3330 -0.1604
  994YOPC   GL113401   9.566  17.600   5.809 -0.0944  0.1131  0.1088
  994YOPC   GL213402   9.179  17.664   5.915 -0.0493  0.2473 -0.1611
  994YOPC   C1A13403   9.716  17.858   6.125  0.1774  0.2202  0.0616
  994YOPC   D2A13404  10.022  17.810   6.519 -0.2633  0.0654 -0.0870
  994YOPC   C3A13405   9.789  17.668   6.965 -0.0419 -0.4380  0.0717
  994YOPC   C4A13406   9.795  17.840   7.440  0.3405  0.1051 -0.3255
  994YOPC   C1B13407   9.032  17.803   6.311  0.1137 -0.3009 -0.0557
  994YOPC   C2B13408   9.098  18.046   6.691 -0.2396 -0.0720 -0.0505
  994YOPC   D3B13409   8.972  18.037   7.167 -0.0657  0.2338  0.0803
  994YOPC   C4B13410   9.165  18.024   7.467 -0.3312  0.1709 -0.0795
  995YOPC   NC313411   5.427   9.160   5.626 -0.1561  0.1237 -0.2897
  995YOPC   PO413412   5.573   9.527   5.540  0.1438  0.0923 -0.2926
  995YOPC   GL113413   5.437   9.893   5.879 -0.1138  0.1732  0.0612
  995YOPC   GL213414   5.528  10.081   5.701  0.1226  0.0776  0.0863
  995YOPC   C1A13415   5.514  10.056   6.312 -0.1165  0.1566  0.4222
  995YOPC   D2A13416   5.744  10.520   6.425  0.2221  0.1182 -0.4388
  995YOPC   C3A13417   5.649  10.769   6.717 -0.0680 -0.0499 -0.4026
  995YOPC   C4A13418   5.989  10.929   6.990 -0.1684 -0.3376 -0.0228
  995YOPC   C1B13419   5.715  10.442   5.932  0.0188  0.1034  0.1598
  995YOPC   C2B13420   5.527  10.787   5.992 -0.0915 -0.0423 -0.1551
  995YOPC   D3B13421   5.727  11.033   6.248  0.0619  0.1947  0.0194
  995YOPC   C4B13422   5.896  11.178   6.589  0.3716 -0.2747  0.1427
  996YOPC   NC313423  15.231   5.704   5.306  0.0025  0.0595  0.0043
  996YOPC   PO413424  14.991   5.743   5.571  0.1563 -0.0104  0.0005
  996YOPC   GL113425  14.942   5.939   5.984 -0.1731 -0.3318  0.0703
  996YOPC   GL213426  15.161   6.290   5.896  0.1300 -0.0946  0.2309
  996YOPC   C1A13427  15.151   6.009   6.385 -0.1299  0.0082  0.0563
  996YOPC   D2A13428  15.073   6.002   6.814  0.0556  0.0369 -0.1331
  996YOPC   C3A13429  15.111   6.348   7.034  0.2822  0.2683  0.1333
  996YOPC   C4A13430  15.498   6.568   7.237 -0.1204  0.0357  0.1825
  996YOPC   C1B13431  15.569   6.368   6.281 -0.0453  0.2606 -0.3204
  996YOPC   C2B13432  15.550   6.405   6.699 -0.1151 -0.0501  0.0551
  996YOPC   D3B13433  15.559   6.132   6.883  0.4408  0.1915  0.0112
  996YOPC   C4B13434  15.426   6.006   7.206  0.0561 -0.0638 -0.0572
  997YOPC   NC313435   3.055  14.211   5.315  0.4239  0.0183  0.1561
  997YOPC   PO413436   3.151  14.520   5.560 -0.2545  0.2924 -0.0353
  997YOPC   GL113437   3.243  14.597   6.045 -0.1680  0.1287 -0.0661
  997YOPC   GL213438   3.529  14.745   6.056 -0.0896 -0.0226  0.1151
  997YOPC   C1A13439   3.209  14.725   6.545  0.1841 -0.1116  0.0475
  997YOPC   D2A13440   3.273  15.119   6.843 -0.2801  0.3924 -0.3119
  997YOPC   C3A13441   3.165  15.237   7.251  0.0639  0.4224  0.2106
  997YOPC   C4A13442   3.140  15.293   7.617 -0.1087  0.1722 -0.0855
  997YOPC   C1B13443   3.731  15.068   6.277  0.2314  0.1924 -0.2862
  997YOPC   C2B13444   3.671  15.355   6.591 -0.0556 -0.1213 -0.0017
  997YOPC   D3B13445   3.721  15.430   7.029  0.2149  0.1052 -0.2390
  997YOPC   C4B13446   3.521  15.560   7.420  0.1852 -0.1654 -0.4208
  998YOPC   NC313447  18.731  12.733   5.987  0.0692 -0.1985  0.1424
  998YOPC   PO413448  18.597  12.419   6.033  0.1606  0.1409 -0.0656
  998YOPC   GL113449  18.511  12.526   6.412  0.2559 -0.1942 -0.4428
  998YOPC   GL213450  18.689  12.649   6.687 -0.0703 -0.0353 -0.2884
  998YOPC   C1A13451  18.192  12.611   6.851  0.1903 -0.0667 -0.1038
  998YOPC   D2A13452  18.124  12.901   7.273  0.2925  0.6115  0.2644
  998YOPC   C3A13453  17.744  13.014   7.374 -0.0373  0.0041  0.0142
  998YOPC   C4A13454  17.446  13.226   7.590 -0.2621  0.0004 -0.1641
  998YOPC   C1B13455  18.596  12.562   7.201  0.5024 -0.0258 -0.0996
  998YOPC   C2B13456  18.302  12.515   7.549 -0.0296 -0.0580  0.1286
  998YOPC   D3B13457  18.044  12.188   7.729  0.0959 -0.2393 -0.3793
  998YOPC   C4B13458  17.867  12.293   8.083  0.2838  0.0264  0.1356
  999YOPC   NC313459   1.827  12.127   5.598  0.0986 -0.0753  0.0945
  999YOPC   PO413460   1.711  12.398   5.589  0.3516 -0.0168 -0.2275
  999YOPC   GL113461   1.602  12.227   6.064  0.0974 -0.1640  0.4019
  999YOPC   GL213462   1.874  12.390   6.145  0.0308  0.2180 -0.0703
  999YOPC   C1A13463   1.676  12.033   6.454 -0.0226 -0.1505  0.0175
  999YOPC   D2A13464   1.636  11.802   6.862  0.1627 -0.1755 -0.1640
  999YOPC   C3A13465   1.591  11.974   7.308 -0.1143 -0.1425  0.2420
  999YOPC   C4A13466   1.662  11.893   7.753 -0.1313  0.2959 -0.0751
  999YOPC   C1B13467   2.177  12.670   6.442 -0.1370  0.3041  0.0958
  999YOPC   C2B13468   2.346  12.676   6.779 -0.0651  0.0988  0.0640
  999YOPC   D3B13469   2.663  12.880   6.874  0.2765  0.2725  0.1076
  999YOPC   C4B13470   3.079  12.951   6.630  0.0252 -0.2799  0.1933
 1000YOPC   NC313471  11.119   9.888   5.957  0.0305  0.3970  0.2165
 1000YOPC   PO413472  11.469   9.668   6.185 -0.2265 -0.1937 -0.2937
 1000YOPC   GL113473  11.364   9.674   6.524 -0.0560  0.0802  0.0275
 1000YOPC   GL213474  11.617   9.512   6.707 -0.0842 -0.0209  0.1494
 1000YOPC   C1A13475  11.292   9.728   7.081  0.1245  0.1650  0.0427
 1000YOPC   D2A13476  11.224   9.790   7.486  0.0283 -0.1652 -0.2284
 1000YOPC   C3A13477  11.105  10.058   7.817 -0.3213  0.2709 -0.0081
 1000YOPC   C4A13478  10.838  10.421   7.905  0.1409  0.2166 -0.0898
 1000YOPC   C1B13479  11.742   9.447   7.157  0.0347 -0.1476 -0.1710
 1000YOPC   C2B13480  11.638   9.567   7.445  0.1244 -0.0613  0.2137
 1000YOPC   D3B13481  11.799   9.362   7.788 -0.0460  0.0030  0.1159
 1000YOPC   C4B13482  11.712   9.072   8.061 -0.1206 -0.3093  0.0815
 1001YOPC   NC313483   2.669   6.291   5.051  0.0195  0.1682 -0.1694
 1001YOPC   PO413484   2.986   6.082   5.148 -0.4687 -0.1023 -0.1067
 1001YOPC   GL113485   3.103   6.321   5.368  0.2277 -0.1125 -0.0059
 1001YOPC   GL213486   3.070   6.672   5.385 -0.0983  0.0372  0.3545
 1001YOPC   C1A13487   3.416   6.409   5.652 -0.1665  0.1516 -0.2830
 1001YOPC   D2A13488   3.710   6.068   5.671 -0.0073  0.0853 -0.0806
 1001YOPC   C3A13489   3.877   6.039   6.072 -0.3374 -0.2422 -0.0568
 1001YOPC   C4A13490   3.913   6.069   6.556  0.0295  0.0954 -0.0749
 1001YOPC   C1B13491   2.913   6.638   5.799  0.1544 -0.1332  0.1378
 1001YOPC   C2B13492   2.927   6.334   6.091  0.0045  0.1349 -0.2807
 1001YOPC   D3B13493   2.823   6.525   6.409 -0.0347 -0.1459 -0.0538
 1001YOPC   C4B13494   2.778   6.928   6.582  0.1881  0.2302 -0.2052
 1002YOPC   NC313495  14.638   5.338   5.434 -0.2867 -0.1233  0.0765
 1002YOPC   PO413496  14.572   4.887   5.507 -0.2305  0.0071  0.0184
 1002YOPC   GL113497  14.393   5.017   5.883  0.4927 -0.1437  0.2118
 1002YOPC   GL213498  14.265   5.319   5.809 -0.4079  0.0113  0.2594
 1002YOPC   C1A13499  14.170   4.842   6.157  0.3743 -0.0268 -0.3110
 1002YOPC   D2A13500  14.104   4.796   6.674  0.1191  0.0907  0.2734
 1002YOPC   C3A13501  13.967   5.201   7.001  0.3376  0.3555 -0.0431
 1002YOPC   C4A13502  13.800   5.154   7.494  0.0298  0.1762 -0.0357
 1002YOPC   C1B13503  14.124   5.381   6.187  0.1542 -0.1086 -0.1061
 1002YOPC   C2B13504  14.209   5.577   6.582  0.0150  0.1951 -0.0739
 1002YOPC   D3B13505  13.890   5.689   6.836  0.1254  0.0429  0.0836
 1002YOPC   C4B13506  13.643   5.685   7.202  0.6475 -0.4197  0.1122
 1003YOPC   NC313507  17.788   8.138   5.052  0.0609 -0.5593  0.0360
 1003YOPC   PO413508  18.259   8.115   5.211 -0.2704 -0.1350 -0.0638
 1003YOPC   GL113509  18.329   8.096   5.699  0.1049 -0.0025 -0.0459
 1003YOPC   GL213510  18.455   7.782   5.962  0.2822  0.0772  0.3068
 1003YOPC   C1A13511  18.197   8.251   5.999  0.2641 -0.1349  0.1498
 1003YOPC   D2A13512  17.960   8.492   6.247 -0.4117 -0.0439 -0.1542
 1003YOPC   C3A13513  17.717   8.235   6.509 -0.0396 -0.1343  0.1098
 1003YOPC   C4A13514  17.372   8.218   6.895 -0.1147 -0.0564  0.0421
 1003YOPC   C1B13515  18.314   7.894   6.371  0.0045  0.0373  0.4578
 1003YOPC   C2B13516  18.185   7.820   6.744 -0.1028  0.2624  0.3966
 1003YOPC   D3B13517  17.951   8.163   6.965  0.0039  0.0232  0.1124
 1003YOPC   C4B13518  17.807   8.631   6.855  0.3031  0.1898 -0.1372
 1004YOPC   NC313519  10.033  11.322   5.406 -0.2535 -0.1090 -0.1631
 1004YOPC   PO413520  10.082  11.607   5.728  0.0276  0.3936 -0.2966
 1004YOPC   GL113521  10.171  11.880   6.106  0.0888 -0.0220 -0.0819
 1004YOPC   GL213522   9.867  11.764   6.376 -0.2239 -0.0172  0.0238
 1004YOPC   C1A13523  10.454  12.003   6.472  0.2093 -0.0719 -0.0310
 1004YOPC   D2A13524  10.477  12.097   6.886  0.1087 -0.0254 -0.2319
 1004YOPC   C3A13525  10.269  11.802   7.296  0.2030 -0.0843 -0.2508
 1004YOPC   C4A13526  10.206  11.787   7.720  0.1464 -0.0504 -0.1311
 1004YOPC   C1B13527   9.464  11.694   6.618 -0.2948 -0.0512 -0.3731
 1004YOPC   C2B13528   9.377  11.683   7.055  0.2619  0.1193  0.0969
 1004YOPC   D3B13529   9.013  11.826   7.343  0.1489 -0.0736  0.0615
 1004YOPC   C4B13530   8.839  12.091   7.590 -0.2045 -0.0050 -0.1970
 1005YOPC   NC313531  15.084   8.885   5.719  0.2818  0.0523 -0.1730
 1005YOPC   PO413532  15.132   9.240   5.811  0.0845 -0.0040  0.1253
 1005YOPC   GL113533  15.076   9.241   6.202 -0.3371  0.0656  0.0742
 1005YOPC   GL213534  14.761   9.397   6.234 -0.3830  0.0427 -0.0577
 1005YOPC   C1A13535  15.351   9.343   6.622  0.1178 -0.0213 -0.0993
 1005YOPC   D2A13536  15.610   9.619   6.804 -0.1400 -0.0824 -0.2271
 1005YOPC   C3A13537  15.417   9.687   7.166  0.0401 -0.0925  0.0882
 1005YOPC   C4A13538  15.321   9.947   7.471 -0.0659 -0.2236  0.1013
 1005YOPC   C1B13539  14.789   9.011   6.545 -0.0497  0.3375 -0.2750
 1005YOPC   C2B13540  15.012   8.952   6.898 -0.0640  0.1185  0.3357
 1005YOPC   D3B13541  15.438   9.177   7.052 -0.0127  0.0857 -0.2757
 1005YOPC   C4B13542  15.564   9.295   7.502 -0.0274  0.0372  0.0193
 1006YOPC   NC313543   1.272  16.030   5.881 -0.2227 -0.2838 -0.0318
 1006YOPC   PO413544   1.466  16.340   6.075  0.0124 -0.0976  0.0435
 1006YOPC   GL113545   1.370  16.064   6.391  0.0182  0.0843 -0.1827
 1006YOPC   GL213546   1.172  15.842   6.620 -0.1320 -0.1031  0.1697
 1006YOPC   C1A13547   1.589  16.094   6.781 -0.1785  0.1555 -0.3462
 1006YOPC   D2A13548   1.514  16.228   7.083 -0.2386  0.4711 -0.3292
 1006YOPC   C3A13549   1.799  16.009   7.418 -0.1331  0.3037 -0.0124
 1006YOPC   C4A13550   1.774  15.853   7.805 -0.1177 -0.0101  0.2239
 1006YOPC   C1B13551   0.954  15.781   7.033 -0.0907 -0.3526  0.2018
 1006YOPC   C2B13552   0.913  15.710   7.475  0.0158  0.0493 -0.2958
 1006YOPC   D3B13553   1.095  15.434   7.789 -0.0783 -0.2583 -0.0574
 1006YOPC   C4B13554   1.126  15.456   8.209  0.1272  0.0450 -0.2143
 1007YOPC   NC313555   3.715  13.090   5.217 -0.3021 -0.1488 -0.0251
 1007YOPC   PO413556   4.143  13.289   5.255 -0.0597  0.0023  0.2703
 1007YOPC   GL113557   4.151  13.138   5.705  0.2467 -0.0938  0.2043
 1007YOPC   GL213558   3.919  12.932   5.919 -0.0779  0.0090  0.5442
 1007YOPC   C1A13559   4.377  12.992   6.089  0.0758  0.2164 -0.0670
 1007YOPC   D2A13560   4.760  13.010   6.195 -0.2184 -0.1988 -0.5617
 1007YOPC   C3A13561   4.747  13.006   6.550  0.1030  0.1159 -0.0213
 1007YOPC   C4A13562   4.682  12.741   6.809 -0.1711  0.0367  0.5774
 1007YOPC   C1B13563   3.837  13.034   6.272  0.2437 -0.0526 -0.0345
 1007YOPC   C2B13564   3.507  12.733   6.464 -0.0908  0.1291  0.2111
 1007YOPC   D3B13565   3.324  12.660   6.947 -0.1480 -0.0711 -0.0785
 1007YOPC   C4B13566   2.938  12.743   7.208 -0.2925 -0.2941  0.1867
 1008YOPC   NC313567  13.429   7.791   5.996 -0.0438 -0.1503 -0.0344
 1008YOPC   PO413568  13.260   7.491   5.670  0.0177  0.0378 -0.3122
 1008YOPC   GL113569  13.073   7.410   6.114  0.1880  0.1800  0.2020
 1008YOPC   GL213570  13.121   7.069   6.042 -0.1187 -0.0100  0.0750
 1008YOPC   C1A13571  12.950   7.671   6.480 -0.1826 -0.0428 -0.1742
 1008YOPC   D2A13572  12.597   8.004   6.701 -0.0359  0.0208 -0.1713
 1008YOPC   C3A13573  12.480   7.880   7.120 -0.1380  0.0111  0.1726
 1008YOPC   C4A13574  12.656   7.910   7.483  0.4107 -0.0335  0.1439
 1008YOPC   C1B13575  13.482   6.758   6.237 -0.3337 -0.2080  0.0049
 1008YOPC   C2B13576  13.737   6.467   6.468  0.1639  0.1675 -0.0194
 1008YOPC   D3B13577  13.828   6.315   6.876  0.0069  0.2897 -0.0749
 1008YOPC   C4B13578  13.791   6.553   7.320  0.1872 -0.0604  0.0296
 1009YOPC   NC313579  15.055  15.513   5.796 -0.1328  0.1328  0.0211
 1009YOPC   PO413580  15.076  16.024   5.799  0.1695  0.0876 -0.0431
 1009YOPC   GL113581  14.841  15.958   6.133 -0.0739  0.2071 -0.1541
 1009YOPC   GL213582  14.784  15.698   6.142  0.1373  0.4206  0.1148
 1009YOPC   C1A13583  14.470  16.044   6.347 -0.1450  0.0153  0.2735
 1009YOPC   D2A13584  14.336  16.217   6.741 -0.1278 -0.0833 -0.1319
 1009YOPC   C3A13585  14.251  16.182   7.185  0.0212 -0.1422  0.2739
 1009YOPC   C4A13586  14.159  16.227   7.656  0.2378 -0.1091 -0.0050
 1009YOPC   C1B13587  14.847  15.788   6.614  0.0494 -0.1794  0.2911
 1009YOPC   C2B13588  15.143  15.859   6.869  0.0149 -0.0247  0.0421
 1009YOPC   D3B13589  15.180  16.112   7.344  0.0900 -0.1971 -0.1337
 1009YOPC   C4B13590  15.070  16.321   7.657 -0.0968  0.1866 -0.4209
 1010YOPC   NC313591  15.578  10.604   5.293  0.0571 -0.3488 -0.0397
 1010YOPC   PO413592  15.590  10.325   5.604 -0.0694 -0.4037 -0.3119
 1010YOPC   GL113593  15.709  10.035   6.034  0.1073 -0.0792 -0.3139
 1010YOPC   GL213594  15.745  10.199   6.374 -0.0076 -0.3714 -0.1208
 1010YOPC   C1A13595  15.890   9.721   6.352  0.2239 -0.2869 -0.2758
 1010YOPC   D2A13596  16.163   9.704   6.644 -0.0953  0.1835 -0.0710
 1010YOPC   C3A13597  16.347  10.019   6.623  0.2881 -0.0035  0.3934
 1010YOPC   C4A13598  16.609  10.206   6.329 -0.0068 -0.1476 -0.3450
 1010YOPC   C1B13599  15.850  10.076   6.824 -0.1431 -0.0665  0.0776
 1010YOPC   C2B13600  16.215   9.997   7.101  0.1222 -0.1728  0.0106
 1010YOPC   D3B13601  16.681  10.043   7.004 -0.1434 -0.1570 -0.0556
 1010YOPC   C4B13602  16.928  10.002   7.321  0.1593 -0.0611 -0.0663
 1011YOPC   NC313603  14.221  12.659   5.609 -0.2346  0.0858 -0.0995
 1011YOPC   PO413604  14.265  13.148   5.491  0.2378  0.1699  0.3012
 1011YOPC   GL113605  14.170  13.190   5.951 -0.3145 -0.2341  0.1721
 1011YOPC   GL213606  13.887  13.166   6.142  0.2287  0.1596 -0.0057
 1011YOPC   C1A13607  14.315  13.006   6.303  0.1331  0.0407 -0.0034
 1011YOPC   D2A13608  14.486  12.662   6.594 -0.2227  0.1149  0.1251
 1011YOPC   C3A13609  14.430  12.588   7.061  0.0582  0.0264 -0.1926
 1011YOPC   C4A13610  14.843  12.824   7.356  0.1631 -0.1103 -0.1400
 1011YOPC   C1B13611  13.885  13.134   6.579  0.0056  0.2405 -0.2844
 1011YOPC   C2B13612  14.002  12.983   6.910 -0.1698 -0.2895  0.1462
 1011YOPC   D3B13613  13.870  13.254   7.229 -0.1167  0.2018 -0.0954
 1011YOPC   C4B13614  14.094  13.499   7.511 -0.1070 -0.0276  0.0652
 1012YOPC   NC313615   1.683   9.697   5.188  0.1294 -0.0369  0.0118
 1012YOPC   PO413616   1.560   9.945   5.534 -0.4090  0.1348 -0.2805
 1012YOPC   GL113617   1.463  10.183   5.923 -0.0649 -0.2725 -0.0217
 1012YOPC   GL213618   1.262  10.013   6.143  0.0940  0.0830  0.0577
 1012YOPC   C1A13619   1.499  10.353   6.397 -0.0600  0.1618  0.1270
 1012YOPC   D2A13620   1.650  10.161   6.765  0.0303 -0.0661  0.0869
 1012YOPC   C3A13621   1.898  10.267   7.078 -0.0976  0.1842  0.1619
 1012YOPC   C4A13622   2.082  10.591   7.250  0.0220  0.0844  0.2392
 1012YOPC   C1B13623   1.282   9.887   6.492 -0.0281  0.1629 -0.0712
 1012YOPC   C2B13624   1.333   9.704   6.870 -0.1036 -0.1544 -0.0595
 1012YOPC   D3B13625   1.507  10.009   7.311  0.1969 -0.2082 -0.2387
 1012YOPC   C4B13626   1.780  10.223   7.611 -0.1269  0.3481  0.0447
 1013YOPC   NC313627   7.739   2.840   5.381 -0.1240  0.2341 -0.1651
 1013YOPC   PO413628   7.407   2.518   5.444  0.3579  0.0330 -0.0267
 1013YOPC   GL113629   7.270   2.555   5.858 -0.1193 -0.1660 -0.0750
 1013YOPC   GL213630   7.142   2.847   5.992 -0.0325  0.0614 -0.0797
 1013YOPC   C1A13631   7.268   2.436   6.322 -0.1060 -0.1503  0.0756
 1013YOPC   D2A13632   7.191   2.510   6.705 -0.0825  0.0758 -0.1361
 1013YOPC   C3A13633   7.300   2.218   7.136  0.1466 -0.2000  0.2795
 1013YOPC   C4A13634   7.568   1.957   7.324  0.0282  0.0159 -0.0251
 1013YOPC   C1B13635   6.982   3.084   6.429 -0.0709 -0.0334 -0.0746
 1013YOPC   C2B13636   6.901   3.292   6.863  0.0908 -0.3673 -0.1593
 1013YOPC   D3B13637   7.037   3.214   7.231 -0.0119  0.1805 -0.1437
 1013YOPC   C4B13638   7.037   3.223   7.643 -0.0061  0.2836  0.1961
 1014YOPC   NC313639   6.029  13.679   5.501 -0.3748 -0.0088 -0.2823
 1014YOPC   PO413640   6.436  13.810   5.510  0.2825 -0.3509 -0.0894
 1014YOPC   GL113641   6.477  13.917   5.867 -0.1268  0.0148  0.0087
 1014YOPC   GL213642   6.786  13.793   5.905  0.1034 -0.1607 -0.3147
 1014YOPC   C1A13643   6.638  13.939   6.353  0.6357  0.1171 -0.1581
 1014YOPC   D2A13644   6.615  13.619   6.641  0.0968 -0.1677 -0.1827
 1014YOPC   C3A13645   6.816  13.705   7.131  0.0827  0.0749 -0.3273
 1014YOPC   C4A13646   6.854  13.618   7.545 -0.1801 -0.0349  0.0786
 1014YOPC   C1B13647   6.423  13.557   6.170  0.0832 -0.2305  0.0075
 1014YOPC   C2B13648   6.158  13.425   6.437 -0.4321  0.1049  0.1286
 1014YOPC   D3B13649   5.913  13.614   6.600 -0.0408 -0.0786 -0.1392
 1014YOPC   C4B13650   5.555  13.524   6.858  0.0037  0.3403 -0.2652
 1015YOPC   NC313651  14.292   8.711   5.331  0.0264  0.0217  0.0020
 1015YOPC   PO413652  13.916   8.783   5.697 -0.2201  0.0597  0.4056
 1015YOPC   GL113653  14.147   8.783   6.093 -0.0580  0.0916 -0.1358
 1015YOPC   GL213654  14.430   8.742   6.143  0.0482  0.1416 -0.0331
 1015YOPC   C1A13655  14.270   8.970   6.537 -0.3013 -0.1438  0.2159
 1015YOPC   D2A13656  13.984   9.191   6.823 -0.1193  0.1293  0.0118
 1015YOPC   C3A13657  14.037   9.105   7.211 -0.2144  0.1218 -0.0854
 1015YOPC   C4A13658  14.241   8.942   7.595 -0.2422 -0.0310 -0.4908
 1015YOPC   C1B13659  14.850   8.486   6.284 -0.4402 -0.3021 -0.1739
 1015YOPC   C2B13660  14.995   8.527   6.703 -0.1016  0.1020 -0.0093
 1015YOPC   D3B13661  15.084   8.514   7.185  0.3721 -0.0328  0.2911
 1015YOPC   C4B13662  15.167   8.571   7.723  0.1154 -0.3177 -0.1280
 1016YOPC   NC313663   0.674  16.638   5.875  0.1684 -0.1326  0.0166
 1016YOPC   PO413664   0.564  17.190   5.797  0.0907  0.1306 -0.0375
 1016YOPC   GL113665   0.669  17.486   6.167  0.2251 -0.1055 -0.3858
 1016YOPC   GL213666   0.458  17.739   6.217  0.2714 -0.3135 -0.4504
 1016YOPC   C1A13667   0.962  17.397   6.502 -0.3584  0.0297  0.0566
 1016YOPC   D2A13668   1.285  17.496   6.322 -0.2048  0.1657 -0.4122
 1016YOPC   C3A13669   1.513  17.179   6.443 -0.0280  0.2573  0.0622
 1016YOPC   C4A13670   1.654  17.096   6.789 -0.1959 -0.1350 -0.1713
 1016YOPC   C1B13671   0.553  17.669   6.642  0.0247  0.2905  0.0712
 1016YOPC   C2B13672   0.577  17.376   6.976 -0.1782  0.1490  0.2469
 1016YOPC   D3B13673   0.702  17.002   6.950  0.0958  0.3511  0.2152
 1016YOPC   C4B13674   0.416  16.600   7.112  0.1770  0.0760  0.0157
 1017YOPC   NC313675   7.833   4.473   5.868 -0.0134  0.1572 -0.0350
 1017YOPC   PO413676   7.883   4.888   5.718  0.2193  0.0414 -0.0520
 1017YOPC   GL113677   7.400   4.737   5.889  0.1649  0.1874 -0.1413
 1017YOPC   GL213678   7.546   4.593   6.220  0.4163 -0.1305 -0.0344
 1017YOPC   C1A13679   7.117   4.838   6.165  0.0558  0.1251  0.2311
 1017YOPC   D2A13680   7.005   5.084   6.405  0.1320  0.1568 -0.1377
 1017YOPC   C3A13681   6.550   5.076   6.513  0.1284  0.2969 -0.2648
 1017YOPC   C4A13682   6.227   5.295   6.541 -0.0227 -0.1343 -0.0987
 1017YOPC   C1B13683   7.458   4.669   6.746  0.0316 -0.0307 -0.3172
 1017YOPC   C2B13684   7.440   4.375   7.099  0.0699 -0.0561  0.0701
 1017YOPC   D3B13685   7.163   4.520   7.493 -0.3478 -0.4155  0.2853
 1017YOPC   C4B13686   6.901   4.615   7.843  0.2537 -0.1840 -0.4312
 1018YOPC   NC313687   2.220   9.007   5.061  0.1795 -0.3955 -0.0185
 1018YOPC   PO413688   2.144   9.346   5.327  0.1910 -0.0549 -0.0402
 1018YOPC   GL113689   2.096   9.331   5.851  0.2069  0.0985 -0.0612
 1018YOPC   GL213690   2.045   8.964   5.826  0.5447 -0.3996 -0.2098
 1018YOPC   C1A13691   2.043   9.538   6.145  0.2381 -0.3450 -0.0097
 1018YOPC   D2A13692   1.706   9.666   6.468 -0.1963  0.1354 -0.3894
 1018YOPC   C3A13693   1.869   9.698   6.955  0.0742  0.1864  0.1528
 1018YOPC   C4A13694   1.965   9.759   7.370  0.1245  0.7601 -0.0047
 1018YOPC   C1B13695   2.262   8.925   6.224 -0.1228 -0.0702  0.0285
 1018YOPC   C2B13696   2.271   8.810   6.657  0.2177  0.0820 -0.0966
 1018YOPC   D3B13697   2.386   9.002   6.931  0.4020 -0.3282  0.0090
 1018YOPC   C4B13698   2.557   8.949   7.267 -0.0966  0.1431  0.3438
 1019YOPC   NC313699  16.013   3.719   5.801  0.1312 -0.2532 -0.3207
 1019YOPC   PO413700  16.323   3.431   5.869 -0.2855 -0.1298  0.1429
 1019YOPC   GL113701  16.366   3.269   6.316  0.0514 -0.1479  0.3169
 1019YOPC   GL213702  16.270   3.165   6.614  0.2816  0.2830  0.1320
 1019YOPC   C1A13703  16.396   3.608   6.755  0.1109  0.1863 -0.0318
 1019YOPC   D2A13704  16.625   3.433   7.106 -0.0747  0.2027  0.2140
 1019YOPC   C3A13705  16.847   3.565   7.453  0.1704 -0.1268  0.2670
 1019YOPC   C4A13706  16.547   3.706   7.707 -0.0429  0.0414 -0.1130
 1019YOPC   C1B13707  16.126   3.062   6.946 -0.1997 -0.1162 -0.0897
 1019YOPC   C2B13708  16.127   2.764   7.298  0.0528 -0.0038  0.3400
 1019YOPC   D3B13709  16.082   2.899   7.661 -0.2743 -0.2554 -0.3309
 1019YOPC   C4B13710  15.865   3.317   7.743 -0.0184  0.0122  0.3157
 1020YOPC   NC313711   5.859   0.412   5.512 -0.1226  0.0436 -0.0787
 1020YOPC   PO413712   5.502   0.259   5.894  0.1408 -0.0507  0.1487
 1020YOPC   GL113713   5.245   0.185   6.281  0.1509 -0.2596 -0.0102
 1020YOPC   GL213714   4.963   0.479   6.328 -0.0217  0.1612 -0.1031
 1020YOPC   C1A13715   5.194   0.354   6.749 -0.1254 -0.1493  0.0195
 1020YOPC   D2A13716   5.228   0.167   7.153 -0.1260  0.1365 -0.2664
 1020YOPC   C3A13717   5.054   0.027   7.547 -0.1882 -0.0758 -0.2169
 1020YOPC   C4A13718   5.259  -0.129   7.936  0.3832 -0.1763 -0.0517
 1020YOPC   C1B13719   4.633   0.386   6.591 -0.0519 -0.2802  0.1350
 1020YOPC   C2B13720   4.789   0.115   6.969 -0.1095 -0.3807  0.1474
 1020YOPC   D3B13721   4.562   0.026   7.390 -0.0033 -0.1200  0.3241
 1020YOPC   C4B13722   4.482   0.177   7.895 -0.1240 -0.0615  0.1176
 1021YOPC   NC313723   3.423   1.001   5.786 -0.2834 -0.1212 -0.2291
 1021YOPC   PO413724   3.192   1.200   6.102  0.1520  0.0500  0.3673
 1021YOPC   GL113725   3.178   1.257   6.515 -0.2310 -0.2170 -0.4962
 1021YOPC   GL213726   2.953   1.379   6.714 -0.0882  0.1326  0.0051
 1021YOPC   C1A13727   2.973   0.880   6.861 -0.1598 -0.0052  0.2106
 1021YOPC   D2A13728   2.688   0.844   7.213  0.0456 -0.2895 -0.1461
 1021YOPC   C3A13729   2.784   0.593   7.426 -0.0029 -0.2078  0.2072
 1021YOPC   C4A13730   2.884   0.419   7.794 -0.2155 -0.1185  0.2517
 1021YOPC   C1B13731   2.855   1.337   7.047  0.2429  0.1420 -0.2044
 1021YOPC   C2B13732   2.612   1.332   7.473  0.1514 -0.0788 -0.1172
 1021YOPC   D3B13733   2.686   1.584   7.844  0.1598 -0.3856 -0.0960
 1021YOPC   C4B13734   2.583   1.955   7.929  0.3865  0.0859 -0.2422
 1022YOPC   NC313735   0.563   9.775   5.736 -0.2541  0.2073  0.2636
 1022YOPC   PO413736   0.929   9.961   5.687  0.2467  0.1650  0.2319
 1022YOPC   GL113737   0.742   9.930   6.127  0.0693 -0.0184  0.0105
 1022YOPC   GL213738   0.759   9.531   6.235 -0.0068  0.1953  0.0102
 1022YOPC   C1A13739   0.520   9.941   6.620  0.1150 -0.4010 -0.1982
 1022YOPC   D2A13740   0.535  10.022   7.049  0.0513  0.0760  0.1456
 1022YOPC   C3A13741   0.477  10.130   7.427  0.1359 -0.1416  0.1224
 1022YOPC   C4A13742   0.076   9.927   7.551 -0.0906  0.1660  0.0662
 1022YOPC   C1B13743   0.860   9.548   6.700 -0.0920 -0.0823  0.0432
 1022YOPC   C2B13744   0.946   9.612   7.141  0.1889  0.0639  0.1461
 1022YOPC   D3B13745   1.282   9.564   7.377 -0.0535 -0.0746  0.1713
 1022YOPC   C4B13746   1.555   9.344   7.428 -0.0228  0.0446  0.0589
 1023YOPC   NC313747   9.937  12.911   5.658 -0.0962 -0.0939 -0.0551
 1023YOPC   PO413748   9.607  13.109   5.752 -0.0385  0.4005 -0.0826
 1023YOPC   GL113749   9.453  12.903   6.023  0.1344 -0.1544  0.3259
 1023YOPC   GL213750   9.377  12.579   6.050  0.1220  0.1124 -0.1052
 1023YOPC   C1A13751   9.332  12.991   6.506 -0.1989 -0.0678 -0.0433
 1023YOPC   D2A13752   9.066  13.097   6.764  0.1189 -0.2991 -0.0153
 1023YOPC   C3A13753   8.893  13.042   7.068 -0.0327 -0.0683  0.1443
 1023YOPC   C4A13754   8.549  12.896   7.217 -0.3877 -0.0992 -0.3025
 1023YOPC   C1B13755   9.260  12.486   6.418  0.2990 -0.0071  0.3320
 1023YOPC   C2B13756   9.144  12.563   6.804 -0.1562 -0.2979 -0.2322
 1023YOPC   D3B13757   9.438  12.319   7.097 -0.1264  0.0969  0.3982
 1023YOPC   C4B13758   9.750  12.290   7.501 -0.3416 -0.2436  0.1265
 1024YOPC   NC313759   6.709   0.206   5.443 -0.0290  0.0476 -0.0130
 1024YOPC   PO413760   6.542  -0.153   5.616 -0.1004  0.0659 -0.6478
 1024YOPC   GL113761   6.702  -0.227   6.125 -0.2837 -0.4254  0.0535
 1024YOPC   GL213762   7.008   0.121   6.293 -0.0296 -0.2345 -0.1176
 1024YOPC   C1A13763   6.537  -0.212   6.511  0.0499 -0.1508 -0.0745
 1024YOPC   D2A13764   6.570  -0.230   6.927 -0.1881 -0.0763  0.3921
 1024YOPC   C3A13765   6.613  -0.082   7.262  0.0651  0.1494  0.1278
 1024YOPC   C4A13766   6.722   0.093   7.517  0.2186  0.0601 -0.0880
 1024YOPC   C1B13767   7.025  -0.121   6.627  0.1599 -0.0895  0.1000
 1024YOPC   C2B13768   7.119  -0.390   6.966 -0.1906 -0.0994 -0.4409
 1024YOPC   D3B13769   6.983  -0.403   7.439  0.0831 -0.0583  0.2687
 1024YOPC   C4B13770   7.241  -0.278   7.801  0.2692 -0.0135 -0.0217
 1025YOPC   NC313771  13.505  11.539   5.712  0.0931 -0.0626 -0.3055
 1025YOPC   PO413772  13.440  11.164   5.938 -0.1401 -0.2012 -0.2230
 1025YOPC   GL113773  13.406  11.093   6.414  0.0370  0.3115  0.3402
 1025YOPC   GL213774  13.220  11.300   6.486 -0.1715 -0.2068 -0.3429
 1025YOPC   C1A13775  13.296  10.891   6.771  0.0166 -0.1532  0.1410
 1025YOPC   D2A13776  13.268  10.781   7.096  0.3406  0.0006  0.1931
 1025YOPC   C3A13777  13.273  10.872   7.445  0.1071 -0.0005 -0.3005
 1025YOPC   C4A13778  13.318  10.769   7.900 -0.3131  0.2144 -0.1063
 1025YOPC   C1B13779  13.205  11.350   6.958 -0.1544 -0.3841 -0.0357
 1025YOPC   C2B13780  13.220  11.366   7.385 -0.1021 -0.0538  0.0607
 1025YOPC   D3B13781  13.073  11.197   7.775  0.1281  0.0796 -0.1346
 1025YOPC   C4B13782  12.908  11.051   8.166 -0.0532  0.0524  0.1187
 1026YOPC   NC313783   3.899   7.132   5.448  0.1822  0.0188  0.0472
 1026YOPC   PO413784   4.238   7.428   5.418 -0.0217  0.2972  0.1701
 1026YOPC   GL113785   4.065   7.480   5.807  0.2857  0.2498 -0.1135
 1026YOPC   GL213786   4.287   7.706   6.045 -0.0320 -0.1559  0.2867
 1026YOPC   C1A13787   4.122   7.239   6.143  0.1224 -0.1207  0.0198
 1026YOPC   D2A13788   4.230   6.822   6.278 -0.2874 -0.1418 -0.0856
 1026YOPC   C3A13789   4.436   6.772   6.625  0.1147  0.0391 -0.3774
 1026YOPC   C4A13790   4.570   6.646   7.035  0.0294 -0.1154  0.3173
 1026YOPC   C1B13791   4.356   7.631   6.438 -0.1091 -0.0659  0.0688
 1026YOPC   C2B13792   4.324   7.618   6.866  0.0999 -0.0210  0.2052
 1026YOPC   D3B13793   4.284   7.890   7.118 -0.0964 -0.1102 -0.5242
 1026YOPC   C4B13794   3.971   8.177   7.368  0.0212  0.0888  0.0352
 1027YOPC   NC313795   6.774   6.304   5.226  0.0413  0.0379  0.0101
 1027YOPC   PO413796   6.841   6.069   5.544 -0.4425  0.1109  0.1602
 1027YOPC   GL113797   6.600   6.045   5.978  0.1564 -0.1368  0.0112
 1027YOPC   GL213798   6.297   6.315   5.923 -0.0320  0.1031 -0.0707
 1027YOPC   C1A13799   6.557   6.081   6.358  0.2409 -0.1834  0.0975
 1027YOPC   D2A13800   6.391   6.202   6.686  0.2770 -0.2789 -0.2991
 1027YOPC   C3A13801   6.528   6.420   7.109  0.1027 -0.4595  0.2041
 1027YOPC   C4A13802   6.727   6.296   7.460  0.3080  0.0225 -0.0104
 1027YOPC   C1B13803   6.112   6.339   6.272 -0.1202 -0.0974 -0.1008
 1027YOPC   C2B13804   5.907   6.103   6.558  0.0111  0.1018 -0.1574
 1027YOPC   D3B13805   6.055   5.877   6.814  0.0994  0.0039  0.2401
 1027YOPC   C4B13806   6.140   5.971   7.257 -0.1635 -0.0033  0.1139
 1028YOPC   NC313807   1.830  16.735   5.245  0.2267 -0.1222 -0.0145
 1028YOPC   PO413808   2.080  16.891   5.513  0.1351 -0.1650 -0.0087
 1028YOPC   GL113809   1.926  17.012   5.917 -0.4050 -0.3516 -0.3495
 1028YOPC   GL213810   2.086  17.343   6.164  0.0895 -0.3011 -0.0911
 1028YOPC   C1A13811   1.879  16.843   6.377 -0.1970  0.1745 -0.2694
 1028YOPC   D2A13812   1.799  16.547   6.705 -0.2647 -0.3399 -0.1735
 1028YOPC   C3A13813   1.638  16.698   7.114  0.0775  0.0732  0.2235
 1028YOPC   C4A13814   1.636  16.528   7.522  0.3526  0.3431 -0.3137
 1028YOPC   C1B13815   2.062  17.361   6.617 -0.0042  0.2352  0.4835
 1028YOPC   C2B13816   1.962  17.414   7.060  0.0487 -0.0852 -0.1986
 1028YOPC   D3B13817   1.676  17.138   7.285 -0.2224  0.3432  0.0901
 1028YOPC   C4B13818   1.423  17.319   7.563  0.5314 -0.3017  0.2470
 1029YOPC   NC313819  14.789  16.862   5.721  0.1619  0.1670  0.0153
 1029YOPC   PO413820  14.598  16.433   5.665  0.0002 -0.1726 -0.2845
 1029YOPC   GL113821  14.388  16.549   6.022  0.0422  0.3879 -0.2315
 1029YOPC   GL213822  14.358  16.864   6.034  0.1582 -0.0013 -0.3876
 1029YOPC   C1A13823  14.625  16.535   6.445  0.0128 -0.0242  0.0029
 1029YOPC   D2A13824  14.541  16.649   6.907 -0.0599  0.0291  0.2593
 1029YOPC   C3A13825  14.712  16.508   7.320 -0.4286 -0.1150  0.1170
 1029YOPC   C4A13826  14.587  16.461   7.712  0.1292 -0.0929 -0.1089
 1029YOPC   C1B13827  14.307  17.146   6.387  0.1017 -0.1714  0.1263
 1029YOPC   C2B13828  13.926  17.019   6.795 -0.5447 -0.1608  0.4820
 1029YOPC   D3B13829  14.048  17.145   7.215 -0.1925  0.1728 -0.0533
 1029YOPC   C4B13830  14.021  17.176   7.652 -0.1148 -0.2174 -0.0756
 1030YOPC   NC313831  11.512  17.876   5.286 -0.1275 -0.6145 -0.0686
 1030YOPC   PO413832  11.935  17.802   5.374 -0.0171  0.1493  0.1820
 1030YOPC   GL113833  12.025  17.930   5.709 -0.1756  0.3413 -0.0565
 1030YOPC   GL213834  12.118  17.669   5.902  0.3947  0.0962  0.2299
 1030YOPC   C1A13835  12.047  18.098   6.139  0.1427  0.2362 -0.3120
 1030YOPC   D2A13836  12.120  18.355   6.500  0.1201  0.3364 -0.2367
 1030YOPC   C3A13837  12.417  18.194   6.815  0.3764 -0.1597  0.2507
 1030YOPC   C4A13838  12.314  18.056   7.232  0.1158  0.0651  0.1636
 1030YOPC   C1B13839  12.146  17.344   6.295  0.1226  0.2497  0.5487
 1030YOPC   C2B13840  12.166  16.965   6.381 -0.1264 -0.2423 -0.0033
 1030YOPC   D3B13841  12.189  17.098   6.759  0.1416  0.2726 -0.1251
 1030YOPC   C4B13842  12.098  17.092   7.168  0.1503  0.1238  0.0721
 1031YOPC   NC313843  17.057   2.605   5.876  0.0600  0.2555  0.1011
 1031YOPC   PO413844  16.621   2.362   6.022  0.0505 -0.2769  0.3496
 1031YOPC   GL113845  16.926   2.093   6.299 -0.0511 -0.1978  0.0493
 1031YOPC   GL213846  17.141   1.979   6.055  0.0390 -0.0840 -0.2174
 1031YOPC   C1A13847  17.114   2.398   6.608  0.0237 -0.1065 -0.1572
 1031YOPC   D2A13848  17.080   2.654   7.043  0.1790 -0.1745  0.0515
 1031YOPC   C3A13849  17.343   2.611   7.451 -0.1902  0.0756 -0.0696
 1031YOPC   C4A13850  17.255   2.628   7.897 -0.0532 -0.0143 -0.0943
 1031YOPC   C1B13851  16.953   1.579   6.362  0.4468  0.0052  0.0358
 1031YOPC   C2B13852  17.036   1.417   6.812  0.0738 -0.2095 -0.0969
 1031YOPC   D3B13853  17.170   1.581   7.140 -0.0731 -0.0269  0.1455
 1031YOPC   C4B13854  17.211   1.701   7.518 -0.2542  0.1497  0.2736
 1032YOPC   NC313855  13.813  10.875   6.013  0.1134  0.3570 -0.0307
 1032YOPC   PO413856  14.105  10.784   6.247  0.0278 -0.4124  0.0872
 1032YOPC   GL113857  13.816  10.743   6.564 -0.0050  0.1438 -0.2325
 1032YOPC   GL213858  13.565  10.576   6.487  0.0758 -0.4308  0.0879
 1032YOPC   C1A13859  13.761  10.719   6.961  0.0667  0.0148  0.0165
 1032YOPC   D2A13860  13.715  10.688   7.377  0.0192 -0.0329 -0.1479
 1032YOPC   C3A13861  13.820  10.632   7.715  0.0481 -0.1666 -0.1856
 1032YOPC   C4A13862  13.990  10.286   8.052  0.3326 -0.1950  0.3531
 1032YOPC   C1B13863  13.425  10.418   6.846 -0.1559 -0.1769  0.1062
 1032YOPC   C2B13864  13.562  10.252   7.185 -0.0632 -0.0064  0.0356
 1032YOPC   D3B13865  13.381  10.337   7.556 -0.2244 -0.3734  0.2974
 1032YOPC   C4B13866  13.494  10.344   8.074  0.3351 -0.0464  0.0362
 1033YOPC   NC313867   9.572  10.768   5.627  0.2034 -0.0376  0.2222
 1033YOPC   PO413868   9.724  11.159   5.739 -0.0874 -0.0348  0.1335
 1033YOPC   GL113869   9.357  11.346   5.946  0.3577 -0.0253 -0.0236
 1033YOPC   GL213870   9.542  11.617   6.062  0.2023 -0.0808 -0.2155
 1033YOPC   C1A13871   9.094  11.418   6.245 -0.1934  0.1011 -0.0552
 1033YOPC   D2A13872   8.979  11.659   6.667  0.0608  0.0724 -0.0624
 1033YOPC   C3A13873   8.892  11.489   7.023  0.3165  0.1609 -0.0568
 1033YOPC   C4A13874   9.206  11.279   7.273  0.2979 -0.0439  0.1498
 1033YOPC   C1B13875   9.616  11.238   6.426  0.0245  0.0924  0.1729
 1033YOPC   C2B13876   9.262  11.210   6.752  0.1759  0.1636 -0.1505
 1033YOPC   D3B13877   9.233  10.764   7.025 -0.1824 -0.1761 -0.0232
 1033YOPC   C4B13878   9.341  10.307   6.892 -0.0232 -0.1168  0.1804
 1034YOPC   NC313879  15.736  12.092   6.000  0.1849  0.0066 -0.0399
 1034YOPC   PO413880  16.223  12.285   6.020  0.0794  0.2159 -0.1547
 1034YOPC   GL113881  16.312  12.064   6.435  0.0336 -0.0922  0.1719
 1034YOPC   GL213882  16.252  11.712   6.474  0.2621 -0.0919 -0.0947
 1034YOPC   C1A13883  16.515  12.325   6.832  0.2012  0.0967  0.0332
 1034YOPC   D2A13884  16.612  12.504   7.207 -0.0216  0.0017  0.2101
 1034YOPC   C3A13885  16.674  12.250   7.463  0.2282 -0.1926  0.3892
 1034YOPC   C4A13886  16.418  11.952   7.566 -0.0978 -0.1145 -0.3304
 1034YOPC   C1B13887  16.422  11.636   6.806  0.1629 -0.1971 -0.1972
 1034YOPC   C2B13888  16.589  11.926   7.085  0.0970 -0.1549 -0.4439
 1034YOPC   D3B13889  16.868  11.693   7.408 -0.0274 -0.1162 -0.1842
 1034YOPC   C4B13890  17.236  11.377   7.323  0.3837  0.0218 -0.2434
 1035YOPC   NC313891   0.299  11.853   6.098 -0.0127 -0.2776  0.1324
 1035YOPC   PO413892   0.091  11.502   5.958  0.2678 -0.3163  0.2379
 1035YOPC   GL113893  -0.023  11.558   6.264  0.4597 -0.2579 -0.0635
 1035YOPC   GL213894  -0.299  11.856   6.285 -0.0481 -0.0185 -0.3234
 1035YOPC   C1A13895   0.037  11.553   6.735  0.1005 -0.0949 -0.1359
 1035YOPC   D2A13896  -0.136  11.737   7.087 -0.3234  0.3606 -0.0443
 1035YOPC   C3A13897   0.038  12.148   7.264 -0.0692  0.2245  0.2798
 1035YOPC   C4A13898   0.210  12.264   7.571  0.0410 -0.0172 -0.1039
 1035YOPC   C1B13899  -0.432  11.893   6.631  0.0100  0.2299  0.1029
 1035YOPC   C2B13900  -0.452  12.126   6.948 -0.0599  0.2012  0.1108
 1035YOPC   D3B13901  -0.799  12.261   7.252 -0.1014  0.1177 -0.0097
 1035YOPC   C4B13902  -1.110  12.327   7.465 -0.0166  0.2996 -0.1233
 1036YOPC   NC313903  18.659   6.542   5.816 -0.1584 -0.3268  0.1212
 1036YOPC   PO413904  18.279   6.763   5.943 -0.2307  0.1238 -0.0262
 1036YOPC   GL113905  18.492   6.808   6.251 -0.1379  0.0544  0.3491
 1036YOPC   GL213906  18.374   6.680   6.559  0.0750  0.2967  0.2567
 1036YOPC   C1A13907  18.350   7.169   6.480  0.0246 -0.1726  0.2910
 1036YOPC   D2A13908  18.589   7.600   6.623 -0.0804  0.0469  0.1541
 1036YOPC   C3A13909  18.563   7.779   7.028  0.2310 -0.0769  0.1451
 1036YOPC   C4A13910  18.301   7.898   7.304 -0.2662 -0.1881 -0.0057
 1036YOPC   C1B13911  18.048   6.827   6.790 -0.0484 -0.2094 -0.1684
 1036YOPC   C2B13912  17.704   6.960   7.027  0.4434 -0.4815 -0.0302
 1036YOPC   D3B13913  17.739   7.220   7.355 -0.0774  0.0949 -0.0616
 1036YOPC   C4B13914  17.681   7.648   7.645 -0.0787  0.0223  0.0343
 1037YOPC   NC313915   0.300   8.440   5.149  0.1043  0.2680  0.0318
 1037YOPC   PO413916   0.287   8.850   5.425  0.0784 -0.1860  0.0574
 1037YOPC   GL113917   0.344   8.895   5.937 -0.0366  0.0006  0.0352
 1037YOPC   GL213918   0.576   8.981   6.055 -0.2418 -0.4838  0.1199
 1037YOPC   C1A13919   0.216   8.774   6.320 -0.2013 -0.2040  0.0440
 1037YOPC   D2A13920   0.163   8.496   6.592 -0.0034  0.2294  0.0253
 1037YOPC   C3A13921   0.366   8.477   6.876 -0.2006  0.0775 -0.1128
 1037YOPC   C4A13922   0.706   8.623   7.190 -0.0429  0.2234  0.1104
 1037YOPC   C1B13923   0.533   9.141   6.437 -0.0590  0.1287  0.1692
 1037YOPC   C2B13924   0.651   8.928   6.815 -0.1860 -0.1420 -0.5475
 1037YOPC   D3B13925   0.868   9.126   7.198 -0.2636  0.1805  0.0199
 1037YOPC   C4B13926   0.923   9.323   7.560  0.1041  0.0513 -0.4841
 1038YOPC   NC313927  14.958   9.825   5.912  0.4189 -0.2303  0.1348
 1038YOPC   PO413928  14.533   9.945   6.120 -0.1623 -0.2201  0.0086
 1038YOPC   GL113929  14.308   9.838   6.437 -0.0911  0.0932 -0.0387
 1038YOPC   GL213930  14.360   9.486   6.482  0.0956  0.0290  0.3549
 1038YOPC   C1A13931  14.292   9.694   6.923  0.1931  0.1076  0.2167
 1038YOPC   D2A13932  14.253   9.545   7.327  0.0873 -0.1581  0.2866
 1038YOPC   C3A13933  14.550   9.411   7.530  0.0435  0.0655  0.1290
 1038YOPC   C4A13934  14.857   9.454   7.913 -0.0217 -0.1325  0.1288
 1038YOPC   C1B13935  14.491   9.228   6.937 -0.1321  0.0945  0.0054
 1038YOPC   C2B13936  14.761   9.050   7.276 -0.0743 -0.1913  0.0771
 1038YOPC   D3B13937  14.742   8.934   7.802  0.1891 -0.1649  0.1103
 1038YOPC   C4B13938  14.451   8.702   8.076  0.0093 -0.0167  0.0054
 1039YOPC   NC313939  17.610   4.041   5.880  0.4734 -0.2385 -0.1463
 1039YOPC   PO413940  17.614   3.699   5.739  0.1508 -0.2109 -0.2101
 1039YOPC   GL113941  17.537   3.554   6.163  0.1260  0.1095 -0.0409
 1039YOPC   GL213942  17.582   3.886   6.340  0.0719 -0.0296  0.3459
 1039YOPC   C1A13943  17.579   3.411   6.604  0.0107 -0.3028 -0.1213
 1039YOPC   D2A13944  17.492   3.369   6.955  0.1697 -0.3119 -0.0666
 1039YOPC   C3A13945  17.605   3.407   7.470  0.0756  0.1265  0.0341
 1039YOPC   C4A13946  17.359   3.168   7.733 -0.1230 -0.0263 -0.1719
 1039YOPC   C1B13947  17.270   3.845   6.724  0.1215 -0.1474 -0.1045
 1039YOPC   C2B13948  17.201   3.742   7.091  0.1321  0.0169 -0.4055
 1039YOPC   D3B13949  17.088   4.049   7.469 -0.2623 -0.1152 -0.1620
 1039YOPC   C4B13950  16.900   4.334   7.833 -0.3568  0.0497 -0.2456
 1040YOPC   NC313951  16.323  16.707   5.471  0.2635 -0.4163 -0.1542
 1040YOPC   PO413952  16.205  17.199   5.611 -0.0827 -0.0878  0.0187
 1040YOPC   GL113953  16.218  17.330   5.967  0.1747 -0.0682  0.4249
 1040YOPC   GL213954  16.139  17.018   6.225 -0.0248 -0.2808  0.0399
 1040YOPC   C1A13955  16.219  17.546   6.349  0.1479 -0.2665  0.1166
 1040YOPC   D2A13956  16.251  17.896   6.591  0.0982  0.1101  0.1982
 1040YOPC   C3A13957  16.261  18.001   7.002  0.0499  0.1378  0.2520
 1040YOPC   C4A13958  16.263  18.460   7.127 -0.2902  0.2190 -0.0158
 1040YOPC   C1B13959  16.038  17.121   6.642 -0.0764  0.2076 -0.0765
 1040YOPC   C2B13960  15.957  17.180   7.083  0.1564  0.1630 -0.0871
 1040YOPC   D3B13961  15.662  17.222   7.371  0.1329 -0.3729 -0.0132
 1040YOPC   C4B13962  15.283  17.184   7.646  0.0089 -0.0781  0.0842
 1041YOPC   NC313963   6.486  17.105   5.616  0.0670  0.1065  0.5097
 1041YOPC   PO413964   6.897  17.161   5.457 -0.0719  0.4665  0.1270
 1041YOPC   GL113965   6.800  16.708   5.707  0.0414 -0.1318 -0.1011
 1041YOPC   GL213966   7.047  16.509   5.584  0.1980 -0.0391 -0.3827
 1041YOPC   C1A13967   6.901  16.450   6.080  0.1863  0.3792  0.2184
 1041YOPC   D2A13968   6.922  16.299   6.512  0.0417  0.0290  0.0153
 1041YOPC   C3A13969   7.199  16.028   6.699 -0.2555 -0.1158  0.1276
 1041YOPC   C4A13970   7.076  15.624   6.657  0.1082  0.2961  0.0934
 1041YOPC   C1B13971   7.334  16.813   5.895  0.2066  0.0440 -0.0232
 1041YOPC   C2B13972   7.613  16.920   6.311 -0.4294  0.2785  0.1796
 1041YOPC   D3B13973   7.631  16.896   6.728 -0.3889 -0.2545  0.2377
 1041YOPC   C4B13974   7.719  17.200   7.019  0.1240  0.1625  0.1621
 1042YOPC   NC313975  14.260   3.589   5.741 -0.0356  0.0075  0.0252
 1042YOPC   PO413976  14.000   3.378   5.600  0.1008  0.4287  0.2588
 1042YOPC   GL113977  13.850   3.242   5.954 -0.0193  0.2127  0.1536
 1042YOPC   GL213978  13.925   2.882   6.097  0.1216 -0.1526 -0.1223
 1042YOPC   C1A13979  13.933   3.480   6.372  0.1639 -0.1466 -0.0946
 1042YOPC   D2A13980  13.936   3.414   6.915  0.1852  0.1344  0.1213
 1042YOPC   C3A13981  13.580   3.291   7.206 -0.0299  0.0748  0.0043
 1042YOPC   C4A13982  13.330   2.849   7.077  0.1134  0.1543 -0.1116
 1042YOPC   C1B13983  13.836   2.947   6.539  0.0376  0.1170 -0.2281
 1042YOPC   C2B13984  13.847   2.878   6.955 -0.0214 -0.1671  0.1954
 1042YOPC   D3B13985  13.775   2.882   7.381  0.1735 -0.0077 -0.0218
 1042YOPC   C4B13986  13.825   3.156   7.694 -0.3546  0.5033 -0.1597
 1043YOPC   NC313987  16.061   1.078   5.378  0.2071 -0.1802  0.1645
 1043YOPC   PO413988  15.687   1.190   5.635 -0.1489 -0.1337  0.1639
 1043YOPC   GL113989  15.851   0.952   5.972  0.0078 -0.0515  0.1666
 1043YOPC   GL213990  16.151   0.811   5.962  0.1179 -0.1281 -0.0463
 1043YOPC   C1A13991  15.802   0.584   6.335  0.0156  0.0024  0.0629
 1043YOPC   D2A13992  15.685   0.191   6.530 -0.0747 -0.1490 -0.0964
 1043YOPC   C3A13993  15.294  -0.119   6.656  0.1775  0.2038  0.1059
 1043YOPC   C4A13994  15.175  -0.206   7.044 -0.0542 -0.1446 -0.1192
 1043YOPC   C1B13995  16.332   0.651   6.476  0.2608  0.0098 -0.0301
 1043YOPC   C2B13996  16.218   0.568   6.782 -0.4256  0.0122  0.0960
 1043YOPC   D3B13997  16.363   0.511   7.115  0.2102  0.2182 -0.2101
 1043YOPC   C4B13998  16.137   0.671   7.511  0.0930  0.0109  0.0254
 1044YOPC   NC313999   8.180  18.433   5.465 -0.2888  0.2514  0.1929
 1044YOPC   PO414000   8.393  18.847   5.296 -0.0025 -0.1632  0.0912
 1044YOPC   GL114001   8.439  19.026   5.768  0.0887 -0.1873  0.0314
 1044YOPC   GL214002   8.165  19.206   5.876 -0.0460 -0.2549  0.0298
 1044YOPC   C1A14003   8.650  18.974   6.182 -0.0687 -0.2153  0.2172
 1044YOPC   D2A14004   8.799  18.760   6.459  0.0344  0.4383 -0.0026
 1044YOPC   C3A14005   9.000  18.429   6.363 -0.3278  0.2531 -0.3960
 1044YOPC   C4A14006   9.338  18.181   6.252 -0.0714  0.2682 -0.0515
 1044YOPC   C1B14007   8.234  19.189   6.301  0.4669  0.2031 -0.1647
 1044YOPC   C2B14008   8.155  19.355   6.641  0.2917 -0.1841  0.0454
 1044YOPC   D3B14009   8.202  19.156   6.853  0.1413 -0.4223  0.1714
 1044YOPC   C4B14010   8.384  19.013   7.264  0.0441  0.0031  0.1017
 1045YOPC   NC314011   7.716  15.830   4.772  0.1191  0.2636  0.0737
 1045YOPC   PO414012   8.054  16.002   5.066  0.0113  0.0805 -0.1337
 1045YOPC   GL114013   8.061  16.045   5.516 -0.1372  0.0413  0.0728
 1045YOPC   GL214014   7.952  15.899   5.717  0.2346 -0.0815  0.1173
 1045YOPC   C1A14015   8.194  16.302   5.892 -0.1374  0.0344  0.3613
 1045YOPC   D2A14016   8.208  16.330   6.372 -0.0215  0.1243 -0.2075
 1045YOPC   C3A14017   8.569  16.333   6.630  0.0074  0.3814 -0.0010
 1045YOPC   C4A14018   8.946  16.564   6.785  0.2082 -0.0013 -0.1160
 1045YOPC   C1B14019   7.998  15.889   6.173  0.1883 -0.0990  0.2286
 1045YOPC   C2B14020   7.998  15.849   6.608  0.2564 -0.3138 -0.1390
 1045YOPC   D3B14021   8.386  15.932   6.762 -0.0995 -0.0882 -0.0648
 1045YOPC   C4B14022   8.738  15.848   7.110 -0.5843 -0.3652  0.1446
 1046YOPC   NC314023   4.361  14.281   5.647 -0.0664 -0.0660 -0.0366
 1046YOPC   PO414024   4.845  14.288   5.851  0.2515 -0.0627  0.0369
 1046YOPC   GL114025   4.718  14.102   6.312 -0.3600 -0.2609  0.1671
 1046YOPC   GL214026   4.971  13.898   6.404 -0.1169 -0.0193 -0.0418
 1046YOPC   C1A14027   4.671  14.236   6.769 -0.2042  0.2562 -0.0795
 1046YOPC   D2A14028   4.544  14.364   7.269 -0.4053  0.0572  0.1298
 1046YOPC   C3A14029   4.138  14.206   7.467 -0.2744 -0.3334  0.0837
 1046YOPC   C4A14030   3.741  13.973   7.531  0.2537  0.1340 -0.0552
 1046YOPC   C1B14031   4.919  13.806   6.789  0.0633  0.0723 -0.1643
 1046YOPC   C2B14032   5.108  13.656   7.139  0.0524 -0.1895  0.2777
 1046YOPC   D3B14033   4.920  13.343   7.399  0.0442  0.3963  0.0251
 1046YOPC   C4B14034   4.805  13.189   7.819 -0.0732  0.1511 -0.1106
 1047YOPC   NC314035  18.120  13.625   5.913 -0.1279 -0.1271  0.0684
 1047YOPC   PO414036  18.434  13.922   6.009 -0.2949  0.1198  0.0565
 1047YOPC   GL114037  18.094  13.985   6.234  0.0457 -0.1174 -0.2522
 1047YOPC   GL214038  18.269  14.147   6.520 -0.0760 -0.2194  0.0207
 1047YOPC   C1A14039  17.777  14.087   6.621  0.2726 -0.1998  0.0510
 1047YOPC   D2A14040  17.475  14.117   6.850 -0.1314  0.1600  0.0640
 1047YOPC   C3A14041  17.367  14.134   7.270  0.1925 -0.0892  0.1218
 1047YOPC   C4A14042  17.158  14.203   7.656 -0.0036 -0.1289  0.0357
 1047YOPC   C1B14043  18.213  13.873   6.942  0.0264  0.0559  0.3118
 1047YOPC   C2B14044  18.383  14.150   7.241  0.2086 -0.0540  0.1085
 1047YOPC   D3B14045  18.336  14.390   7.640  0.2159 -0.2441  0.1910
 1047YOPC   C4B14046  18.401  14.754   7.884 -0.1208  0.1324  0.3103
 1048YOPC   NC314047   5.486   6.748   5.296  0.0220  0.2347 -0.0293
 1048YOPC   PO414048   5.394   7.074   5.349  0.0431 -0.4220 -0.2065
 1048YOPC   GL114049   5.244   7.329   5.585 -0.4426 -0.2322  0.1943
 1048YOPC   GL214050   5.492   7.565   5.825  0.3934 -0.0118 -0.0426
 1048YOPC   C1A14051   5.003   7.504   5.938  0.0967  0.2096  0.0478
 1048YOPC   D2A14052   4.980   7.516   6.422 -0.1007 -0.5136 -0.0769
 1048YOPC   C3A14053   5.170   7.482   6.881  0.1011 -0.0242 -0.0968
 1048YOPC   C4A14054   5.524   7.376   7.227 -0.2372 -0.3050 -0.1337
 1048YOPC   C1B14055   5.505   7.541   6.256 -0.1520  0.1579  0.2390
 1048YOPC   C2B14056   5.524   7.309   6.523 -0.0915  0.2201 -0.1046
 1048YOPC   D3B14057   5.883   7.082   6.875 -0.0059  0.0690  0.1291
 1048YOPC   C4B14058   6.132   6.898   7.190 -0.1791 -0.0321  0.4424
 1049YOPC   NC314059   4.181   9.987   5.231  0.2950 -0.1499  0.1684
 1049YOPC   PO414060   4.604   9.764   5.270 -0.1084 -0.3864  0.2177
 1049YOPC   GL114061   4.489  10.002   5.645  0.0825  0.0166 -0.2589
 1049YOPC   GL214062   4.567  10.313   5.634 -0.0562 -0.1650  0.1702
 1049YOPC   C1A14063   4.176  10.100   5.919 -0.1883  0.5921  0.0088
 1049YOPC   D2A14064   4.305  10.113   6.376 -0.0080  0.3459 -0.2794
 1049YOPC   C3A14065   4.313   9.976   6.799 -0.3793  0.1652  0.2006
 1049YOPC   C4A14066   4.134  10.103   7.294  0.1653 -0.1746 -0.1651
 1049YOPC   C1B14067   4.645  10.434   5.985 -0.0914  0.0804 -0.1241
 1049YOPC   C2B14068   4.715  10.434   6.484  0.0711  0.1458 -0.0369
 1049YOPC   D3B14069   4.605  10.776   6.709  0.1014  0.1697  0.2625
 1049YOPC   C4B14070   4.157  11.007   6.756 -0.3378  0.0948 -0.1972
 1050YOPC   NC314071   4.057  12.219   4.839 -0.0579  0.2762 -0.1259
 1050YOPC   PO414072   4.226  12.199   5.327  0.2443  0.2289 -0.2159
 1050YOPC   GL114073   3.851  12.077   5.633 -0.2330 -0.0211 -0.4110
 1050YOPC   GL214074   3.624  12.359   5.684 -0.0268  0.2489 -0.0622
 1050YOPC   C1A14075   3.943  12.104   6.044 -0.0794 -0.1622 -0.0636
 1050YOPC   D2A14076   4.102  11.884   6.472  0.1134  0.1244  0.0648
 1050YOPC   C3A14077   3.717  11.810   6.747 -0.0904 -0.1372  0.1341
 1050YOPC   C4A14078   3.337  11.755   7.069  0.2904  0.0447  0.0378
 1050YOPC   C1B14079   3.691  12.563   6.051  0.2080  0.3270  0.1403
 1050YOPC   C2B14080   3.700  12.286   6.434  0.2094  0.2544 -0.0498
 1050YOPC   D3B14081   3.722  12.349   6.863 -0.1121 -0.1318  0.1371
 1050YOPC   C4B14082   3.857  12.527   7.258 -0.2064  0.1804  0.0449
 1051YOPC   NC314083   9.497   5.506   5.854 -0.2491  0.1592 -0.2523
 1051YOPC   PO414084   9.723   5.031   5.756 -0.0761  0.0471 -0.1573
 1051YOPC   GL114085   9.587   4.772   6.158  0.0084 -0.0168 -0.1970
 1051YOPC   GL214086   9.215   4.942   6.223  0.3168  0.1159  0.1704
 1051YOPC   C1A14087   9.646   4.440   6.414  0.0819  0.0338 -0.1503
 1051YOPC   D2A14088   9.386   4.284   6.762 -0.0241  0.1101 -0.1477
 1051YOPC   C3A14089   9.426   4.009   7.180  0.1844  0.0124  0.1470
 1051YOPC   C4A14090   9.777   3.711   7.354 -0.1966 -0.2049  0.0784
 1051YOPC   C1B14091   9.163   4.580   6.365  0.0541  0.4401  0.0606
 1051YOPC   C2B14092   9.171   4.061   6.333  0.0107  0.4797  0.1448
 1051YOPC   D3B14093   9.304   3.744   6.801  0.0996 -0.0958 -0.1233
 1051YOPC   C4B14094   9.250   3.597   7.309  0.0142 -0.0658 -0.2176
 1052YOPC   NC314095   5.359  18.610   6.008 -0.0858  0.0826  0.2176
 1052YOPC   PO414096   4.987  18.394   6.182 -0.4485  0.0477 -0.0215
 1052YOPC   GL114097   4.817  18.145   6.521  0.0124  0.1756  0.2349
 1052YOPC   GL214098   4.678  17.821   6.451 -0.2155  0.4107  0.2624
 1052YOPC   C1A14099   4.728  18.061   6.930 -0.0465  0.0185 -0.1945
 1052YOPC   D2A14100   4.808  17.829   7.414  0.0420 -0.3028 -0.0040
 1052YOPC   C3A14101   4.965  17.930   7.798 -0.2542 -0.3889  0.0350
 1052YOPC   C4A14102   5.161  18.185   8.017 -0.3072  0.2014  0.1039
 1052YOPC   C1B14103   4.461  17.644   6.790 -0.1719 -0.0058  0.1288
 1052YOPC   C2B14104   4.581  17.481   7.153  0.0957 -0.1264 -0.0063
 1052YOPC   D3B14105   4.626  17.267   7.549  0.2671  0.0536  0.0465
 1052YOPC   C4B14106   4.480  17.103   7.910 -0.1574 -0.0538 -0.1234
 1053YOPC   NC314107  13.386  17.548   5.677 -0.0315  0.0014  0.0497
 1053YOPC   PO414108  13.576  17.073   5.725  0.0661 -0.1544 -0.0555
 1053YOPC   GL114109  13.542  17.016   6.103 -0.1705 -0.1244  0.0641
 1053YOPC   GL214110  13.879  16.929   6.172  0.1970 -0.0927  0.3191
 1053YOPC   C1A14111  13.520  17.016   6.528 -0.0145 -0.2260 -0.2283
 1053YOPC   D2A14112  13.494  16.976   7.036 -0.4019  0.2338 -0.1947
 1053YOPC   C3A14113  13.611  16.824   7.402 -0.0882  0.2178 -0.2276
 1053YOPC   C4A14114  13.908  16.722   7.773  0.2066 -0.0788 -0.2315
 1053YOPC   C1B14115  14.000  16.659   6.397  0.0423 -0.0577 -0.1867
 1053YOPC   C2B14116  14.028  16.534   6.876 -0.0445 -0.0945 -0.1258
 1053YOPC   D3B14117  14.171  16.642   7.306 -0.0764  0.1986  0.0384
 1053YOPC   C4B14118  14.404  16.893   7.590  0.2867  0.0149 -0.0143
 1054YOPC   NC314119   1.846  18.509   5.446  0.2886  0.3419  0.0425
 1054YOPC   PO414120   1.690  18.625   5.845 -0.0544  0.0583 -0.2509
 1054YOPC   GL114121   1.982  18.626   6.249 -0.1950  0.2026  0.2758
 1054YOPC   GL214122   2.214  18.390   6.391 -0.0973 -0.1541 -0.1120
 1054YOPC   C1A14123   2.047  18.816   6.665 -0.0299 -0.0792 -0.1101
 1054YOPC   D2A14124   1.935  18.769   7.026  0.2040 -0.0606 -0.4160
 1054YOPC   C3A14125   1.638  18.373   7.138 -0.0028  0.0446 -0.1349
 1054YOPC   C4A14126   1.745  18.200   7.499  0.0083 -0.1576 -0.4840
 1054YOPC   C1B14127   1.942  18.167   6.725  0.4611 -0.1412  0.1992
 1054YOPC   C2B14128   1.951  17.920   7.104  0.2373 -0.1076  0.1162
 1054YOPC   D3B14129   1.745  17.703   7.459 -0.0833  0.2463  0.0795
 1054YOPC   C4B14130   1.527  17.796   7.756  0.2974  0.2755 -0.0593
 1055YOPC   NC314131   0.127  13.214   5.759  0.0429 -0.1119  0.2048
 1055YOPC   PO414132   0.390  12.978   5.990 -0.2998  0.0473 -0.2680
 1055YOPC   GL114133   0.559  12.820   6.341  0.1134 -0.0572  0.0202
 1055YOPC   GL214134   0.768  13.055   6.465 -0.1897 -0.0653 -0.1547
 1055YOPC   C1A14135   0.707  12.499   6.643  0.0475  0.0136 -0.2748
 1055YOPC   D2A14136   1.110  12.290   6.802  0.1873 -0.0512  0.0529
 1055YOPC   C3A14137   1.168  12.406   7.237 -0.1415  0.1223  0.2119
 1055YOPC   C4A14138   1.306  12.321   7.599 -0.0141  0.1617  0.0599
 1055YOPC   C1B14139   0.457  12.945   6.801  0.1197  0.5162  0.4746
 1055YOPC   C2B14140   0.318  13.008   7.158  0.2990 -0.1752 -0.3172
 1055YOPC   D3B14141   0.463  12.813   7.636  0.0627 -0.1706 -0.3259
 1055YOPC   C4B14142   0.585  12.701   8.095 -0.0788 -0.0557 -0.1053
 1056YOPC   NC314143   1.539   3.066   5.515 -0.0228  0.0120 -0.0151
 1056YOPC   PO414144   1.869   2.945   5.796  0.1097 -0.1982  0.0349
 1056YOPC   GL114145   1.910   2.919   6.204  0.0893  0.1296 -0.0124
 1056YOPC   GL214146   2.060   2.612   6.110  0.2468  0.0880 -0.0174
 1056YOPC   C1A14147   1.782   3.037   6.576 -0.0912 -0.0319  0.3536
 1056YOPC   D2A14148   1.657   3.476   6.713 -0.3078 -0.0607 -0.2563
 1056YOPC   C3A14149   1.676   3.618   7.183  0.1410  0.2728 -0.0751
 1056YOPC   C4A14150   2.047   3.547   7.346  0.2291 -0.0181 -0.2802
 1056YOPC   C1B14151   2.159   2.544   6.501  0.1126  0.1243  0.1640
 1056YOPC   C2B14152   2.082   2.794   6.870 -0.0380 -0.3512 -0.0652
 1056YOPC   D3B14153   2.354   3.064   7.251  0.0987  0.1420  0.1868
 1056YOPC   C4B14154   2.396   3.093   7.690 -0.6497  0.1613 -0.0854
 1057YOPC   NC314155   6.733  14.711   5.116 -0.1432 -0.0133  0.1908
 1057YOPC   PO414156   7.002  14.401   5.315  0.0882 -0.1468 -0.4512
 1057YOPC   GL114157   6.896  14.447   5.765  0.0580  0.2009 -0.0975
 1057YOPC   GL214158   7.015  14.234   5.858  0.0165  0.2790 -0.0304
 1057YOPC   C1A14159   6.604  14.387   6.115  0.0254 -0.1466  0.0389
 1057YOPC   D2A14160   6.672  14.473   6.553  0.0022 -0.1906  0.0882
 1057YOPC   C3A14161   6.753  14.857   6.681  0.2201 -0.3048 -0.0962
 1057YOPC   C4A14162   7.090  15.101   6.827  0.0632 -0.3199 -0.2047
 1057YOPC   C1B14163   7.081  14.174   6.260 -0.0678 -0.0265  0.1661
 1057YOPC   C2B14164   7.381  14.159   6.497 -0.1498  0.0156  0.2261
 1057YOPC   D3B14165   7.411  13.855   6.824  0.0299  0.2446  0.3139
 1057YOPC   C4B14166   7.346  13.604   7.306  0.1004  0.0983  0.0242
 1058YOPC   NC314167   7.826  13.425   5.445  0.1644  0.4757  0.1991
 1058YOPC   PO414168   8.144  13.221   5.533  0.0318  0.0962  0.1336
 1058YOPC   GL114169   8.249  13.213   5.990  0.0482  0.1500  0.2597
 1058YOPC   GL214170   8.557  13.300   5.980 -0.4792  0.0017 -0.1896
 1058YOPC   C1A14171   8.208  13.550   6.315  0.2255  0.0039 -0.2864
 1058YOPC   D2A14172   8.293  13.974   6.263  0.2194  0.0717 -0.1262
 1058YOPC   C3A14173   8.446  14.168   6.550 -0.4402 -0.1056 -0.2019
 1058YOPC   C4A14174   8.502  14.230   6.917 -0.4714  0.1546  0.2956
 1058YOPC   C1B14175   8.570  13.182   6.371  0.0138 -0.0376  0.3009
 1058YOPC   C2B14176   8.489  13.179   6.781  0.2131  0.0749  0.1417
 1058YOPC   D3B14177   8.241  13.450   6.783 -0.2108  0.0383  0.1991
 1058YOPC   C4B14178   8.238  13.883   7.095  0.1220 -0.0619 -0.1837
 1059YOPC   NC314179  11.148  14.609   5.384 -0.2020  0.0748 -0.0172
 1059YOPC   PO414180  11.419  14.305   5.365  0.0502 -0.1298  0.0497
 1059YOPC   GL114181  11.260  14.154   5.705 -0.0606  0.0412 -0.1611
 1059YOPC   GL214182  11.325  14.153   6.101 -0.0032 -0.2447 -0.2090
 1059YOPC   C1A14183  10.841  13.996   5.864 -0.0197 -0.3671  0.2725
 1059YOPC   D2A14184  10.622  13.697   6.095  0.1325 -0.1219 -0.0480
 1059YOPC   C3A14185  10.701  13.588   6.574  0.1698  0.0002  0.1017
 1059YOPC   C4A14186  10.920  13.610   6.962  0.1228 -0.0092 -0.1011
 1059YOPC   C1B14187  11.739  14.274   6.267  0.0751 -0.0678  0.0935
 1059YOPC   C2B14188  11.948  14.247   6.592 -0.1884  0.1678 -0.1644
 1059YOPC   D3B14189  11.820  14.343   6.974  0.3468  0.1745 -0.0114
 1059YOPC   C4B14190  11.900  14.396   7.497 -0.2330 -0.0415 -0.0311
 1060YOPC   NC314191   2.485  17.154   5.693 -0.2080  0.2700  0.0038
 1060YOPC   PO414192   2.461  17.632   5.915  0.3239  0.1130 -0.0834
 1060YOPC   GL114193   2.471  17.645   6.428 -0.1209  0.1346 -0.2187
 1060YOPC   GL214194   2.572  17.274   6.540 -0.0651  0.1257 -0.0101
 1060YOPC   C1A14195   2.317  17.804   6.760  0.1468  0.1554 -0.0423
 1060YOPC   D2A14196   2.470  17.963   7.125 -0.1674 -0.4140 -0.1484
 1060YOPC   C3A14197   2.730  17.770   7.479  0.4299 -0.0232 -0.0697
 1060YOPC   C4A14198   3.018  17.755   7.917  0.2269  0.0141 -0.0643
 1060YOPC   C1B14199   2.540  17.355   6.944 -0.1045 -0.0356 -0.4075
 1060YOPC   C2B14200   2.585  17.337   7.386 -0.1662 -0.1136  0.1188
 1060YOPC   D3B14201   2.219  17.482   7.653 -0.2632 -0.1776 -0.3289
 1060YOPC   C4B14202   1.992  17.591   8.097 -0.0651 -0.1944 -0.3439
 1061YOPC   NC314203   4.075   5.362   5.295 -0.2840  0.0056 -0.1613
 1061YOPC   PO414204   3.636   5.448   5.354  0.2313  0.1034  0.0025
 1061YOPC   GL114205   3.701   5.301   5.758  0.1715  0.1218  0.1254
 1061YOPC   GL214206   3.529   5.474   5.934  0.1569  0.1026 -0.1364
 1061YOPC   C1A14207   3.845   5.145   6.173 -0.1713 -0.1506 -0.0061
 1061YOPC   D2A14208   4.212   5.075   6.374 -0.1696  0.1279  0.0316
 1061YOPC   C3A14209   4.380   5.171   6.867 -0.0253  0.0607  0.0450
 1061YOPC   C4A14210   4.525   5.225   7.250 -0.0570 -0.1276 -0.1323
 1061YOPC   C1B14211   3.655   5.630   6.301 -0.1645 -0.3433  0.2077
 1061YOPC   C2B14212   3.601   5.653   6.676 -0.1353 -0.0390  0.0974
 1061YOPC   D3B14213   3.853   5.958   7.042  0.2346  0.0881 -0.2335
 1061YOPC   C4B14214   3.704   6.114   7.435 -0.0487 -0.1395  0.0821
 1062YOPC   NC314215  17.776  16.236   6.059  0.2090  0.0668  0.3518
 1062YOPC   PO414216  18.008  16.596   6.088 -0.1773 -0.2365 -0.1409
 1062YOPC   GL114217  18.084  16.427   6.474  0.0244 -0.2008 -0.0654
 1062YOPC   GL214218  17.849  16.158   6.568  0.0449 -0.1839  0.0969
 1062YOPC   C1A14219  17.893  16.502   6.935  0.0580  0.0654 -0.1294
 1062YOPC   D2A14220  17.722  16.509   7.378  0.4766 -0.0382 -0.0568
 1062YOPC   C3A14221  18.014  16.505   7.721  0.1534  0.1885  0.0420
 1062YOPC   C4A14222  18.404  16.522   7.770 -0.1338  0.2955  0.1151
 1062YOPC   C1B14223  18.040  15.948   6.957  0.1329  0.3080  0.2884
 1062YOPC   C2B14224  18.414  15.841   7.272 -0.1517  0.0020 -0.0555
 1062YOPC   D3B14225  18.398  15.876   7.687  0.0194 -0.4356  0.0560
 1062YOPC   C4B14226  18.222  15.831   8.087 -0.3290  0.0110 -0.0909
 1063YOPC   NC314227  16.058   5.843   5.589 -0.1554 -0.0637 -0.1810
 1063YOPC   PO414228  15.820   6.221   5.689  0.1754  0.0865 -0.0086
 1063YOPC   GL114229  15.873   6.007   6.092  0.1814 -0.0091  0.2580
 1063YOPC   GL214230  15.879   5.760   6.079 -0.2262 -0.1231 -0.0500
 1063YOPC   C1A14231  15.629   5.858   6.488  0.0870 -0.1533 -0.3259
 1063YOPC   D2A14232  15.648   5.598   6.852  0.0693  0.1546 -0.0776
 1063YOPC   C3A14233  15.839   5.740   7.173  0.0741 -0.1829 -0.0829
 1063YOPC   C4A14234  16.041   6.013   7.679 -0.1537 -0.1086 -0.0980
 1063YOPC   C1B14235  16.077   5.741   6.453 -0.3724  0.0098 -0.1775
 1063YOPC   C2B14236  16.228   5.574   6.759 -0.3546  0.0064 -0.1338
 1063YOPC   D3B14237  16.002   5.272   7.127  0.0122 -0.2468  0.0256
 1063YOPC   C4B14238  16.328   4.950   7.465 -0.2092 -0.2714  0.2242
 1064YOPC   NC314239  17.168  13.612   5.785 -0.2667  0.0034  0.1114
 1064YOPC   PO414240  17.061  13.837   6.116  0.0004  0.0410  0.1377
 1064YOPC   GL114241  17.065  14.105   6.442  0.0834 -0.3270 -0.1315
 1064YOPC   GL214242  16.709  14.090   6.550 -0.2896 -0.0462  0.3627
 1064YOPC   C1A14243  17.010  14.364   6.790 -0.4389 -0.0529 -0.0217
 1064YOPC   D2A14244  16.973  14.440   7.203  0.2789  0.0061  0.2314
 1064YOPC   C3A14245  16.644  14.252   7.465 -0.0391 -0.0197  0.0536
 1064YOPC   C4A14246  16.713  13.846   7.753  0.1389 -0.1532  0.1205
 1064YOPC   C1B14247  16.649  13.989   6.968 -0.1008  0.1564  0.1875
 1064YOPC   C2B14248  16.904  13.911   7.228  0.0256  0.3330 -0.2034
 1064YOPC   D3B14249  17.290  13.673   6.993  0.2138  0.0398 -0.0915
 1064YOPC   C4B14250  17.558  13.474   7.157 -0.0754 -0.2954 -0.0181
 1065YOPC   NC314251   5.270   2.501   5.574  0.0294 -0.0483  0.7234
 1065YOPC   PO414252   5.061   2.213   5.686  0.2181 -0.0554  0.0184
 1065YOPC   GL114253   5.449   2.192   5.879  0.0176 -0.0327 -0.0118
 1065YOPC   GL214254   5.599   2.403   5.969  0.2738 -0.3703 -0.1858
 1065YOPC   C1A14255   5.469   2.011   6.283 -0.1213 -0.1420 -0.1771
 1065YOPC   D2A14256   5.526   1.983   6.765 -0.2933 -0.3092 -0.0829
 1065YOPC   C3A14257   5.113   2.041   7.067 -0.0711  0.2791 -0.5743
 1065YOPC   C4A14258   4.930   2.300   7.429  0.1477 -0.2339 -0.0558
 1065YOPC   C1B14259   5.492   2.542   6.383 -0.0506  0.1756 -0.2571
 1065YOPC   C2B14260   5.604   2.445   6.743 -0.2523 -0.0920  0.0427
 1065YOPC   D3B14261   5.627   2.643   7.105 -0.1569  0.3628  0.0726
 1065YOPC   C4B14262   5.742   2.956   7.372  0.1912  0.1052 -0.1195
 1066YOPC   NC314263   0.802  10.420   5.659  0.0490  0.4093 -0.6516
 1066YOPC   PO414264   0.488  10.732   5.842 -0.0732  0.2447  0.1112
 1066YOPC   GL114265   0.575  10.868   6.197 -0.0952  0.3554  0.0900
 1066YOPC   GL214266   0.295  11.000   6.302 -0.0288  0.2711 -0.1567
 1066YOPC   C1A14267   0.762  10.790   6.583 -0.0609  0.1137 -0.0301
 1066YOPC   D2A14268   0.651  10.813   6.999  0.0923 -0.3291 -0.3073
 1066YOPC   C3A14269   0.757  10.491   7.244  0.0776  0.2201 -0.3400
 1066YOPC   C4A14270   0.967  10.437   7.583 -0.1084  0.0119  0.1626
 1066YOPC   C1B14271   0.519  11.283   6.542 -0.2709 -0.3559 -0.2177
 1066YOPC   C2B14272   0.781  11.386   6.699  0.0256  0.2523  0.1053
 1066YOPC   D3B14273   0.828  11.362   7.113  0.1226 -0.2009 -0.0148
 1066YOPC   C4B14274   0.594  11.152   7.417  0.2687  0.1672 -0.2439
 1067YOPC   NC314275  12.688   6.484   5.581 -0.2660  0.0625 -0.0683
 1067YOPC   PO414276  12.403   6.363   5.477 -0.0489  0.0262 -0.1194
 1067YOPC   GL114277  12.480   6.135   5.848  0.0859  0.1235  0.0877
 1067YOPC   GL214278  12.702   5.959   5.751  0.0334  0.2579 -0.1891
 1067YOPC   C1A14279  12.350   6.110   6.254  0.0581  0.0642 -0.3508
 1067YOPC   D2A14280  12.232   6.135   6.685  0.3754 -0.0081 -0.1508
 1067YOPC   C3A14281  12.603   5.986   6.870  0.3195  0.1807 -0.1798
 1067YOPC   C4A14282  12.723   5.813   7.227  0.0450 -0.0998  0.3507
 1067YOPC   C1B14283  12.936   6.175   6.032  0.4469  0.3956 -0.4098
 1067YOPC   C2B14284  13.375   6.202   6.291  0.0832  0.2912  0.0573
 1067YOPC   D3B14285  13.507   5.701   6.434  0.0520 -0.0156  0.0625
 1067YOPC   C4B14286  13.737   5.294   6.532  0.0274 -0.0788 -0.1309
 1068YOPC   NC314287  17.915   0.559   5.497  0.2648 -0.4228  0.0020
 1068YOPC   PO414288  18.243   0.388   5.656 -0.1626 -0.4938 -0.1339
 1068YOPC   GL114289  18.321   0.413   6.102 -0.1451 -0.2260 -0.1060
 1068YOPC   GL214290  18.075   0.362   6.121  0.1362  0.0479  0.0031
 1068YOPC   C1A14291  18.273   0.223   6.601  0.0067 -0.2893 -0.0693
 1068YOPC   D2A14292  18.281   0.065   7.031 -0.1397  0.2724  0.1353
 1068YOPC   C3A14293  18.044   0.157   7.361 -0.3679  0.0962  0.0281
 1068YOPC   C4A14294  17.829   0.263   7.664  0.2786 -0.0180  0.2503
 1068YOPC   C1B14295  18.000   0.658   6.382 -0.3107 -0.1014  0.1614
 1068YOPC   C2B14296  17.730   0.919   6.456 -0.3183 -0.3080 -0.1186
 1068YOPC   D3B14297  17.744   0.874   6.892  0.0223  0.0583  0.0801
 1068YOPC   C4B14298  17.672   0.870   7.317 -0.0622 -0.1348  0.2246
 1069YOPC   NC314299  12.987  13.598   5.854 -0.2335 -0.0646  0.0765
 1069YOPC   PO414300  12.539  13.659   5.963  0.1504 -0.0916 -0.1531
 1069YOPC   GL114301  12.293  13.465   6.098  0.2403 -0.2376  0.4001
 1069YOPC   GL214302  12.212  13.669   6.349  0.1730 -0.3339  0.1701
 1069YOPC   C1A14303  12.006  13.221   6.471  0.1391  0.3639  0.0976
 1069YOPC   D2A14304  11.761  12.944   6.662  0.0410 -0.1018 -0.0817
 1069YOPC   C3A14305  11.696  12.958   7.056 -0.1942 -0.0170  0.0321
 1069YOPC   C4A14306  11.887  13.168   7.461 -0.1164 -0.1128 -0.0262
 1069YOPC   C1B14307  12.184  13.827   6.749  0.2218 -0.1438 -0.1073
 1069YOPC   C2B14308  12.230  13.841   7.243  0.0206 -0.0745 -0.1976
 1069YOPC   D3B14309  12.359  14.147   7.593 -0.0395  0.2573 -0.0734
 1069YOPC   C4B14310  12.274  14.487   7.886  0.3238 -0.0085  0.3947
 1070YOPC   NC314311  16.253   9.845   5.347 -0.0485  0.1869  0.0044
 1070YOPC   PO414312  16.676   9.675   5.440 -0.1568  0.3084 -0.2172
 1070YOPC   GL114313  16.453   9.652   5.839  0.0841  0.1260 -0.2031
 1070YOPC   GL214314  16.427   9.352   5.956  0.0647 -0.1493 -0.1350
 1070YOPC   C1A14315  16.619   9.715   6.311  0.0936 -0.0193  0.2927
 1070YOPC   D2A14316  16.727   9.623   6.751  0.0171 -0.2164 -0.0729
 1070YOPC   C3A14317  16.368   9.517   7.006  0.0832 -0.2626 -0.1415
 1070YOPC   C4A14318  15.971   9.493   7.157  0.0743  0.1128  0.2365
 1070YOPC   C1B14319  16.234   9.343   6.240  0.3200 -0.2911 -0.2169
 1070YOPC   C2B14320  16.355   9.229   6.578 -0.0849 -0.0826  0.2435
 1070YOPC   D3B14321  16.740   9.169   6.502  0.0691 -0.1348  0.1338
 1070YOPC   C4B14322  17.148   8.955   6.315  0.1190 -0.0112  0.3455
 1071YOPC   NC314323  10.307   5.952   5.613 -0.2183  0.0980 -0.1016
 1071YOPC   PO414324  10.323   5.804   5.973 -0.0771  0.1873 -0.0078
 1071YOPC   GL114325   9.944   5.606   6.193 -0.0229 -0.1115 -0.0085
 1071YOPC   GL214326   9.768   5.349   6.339  0.1266  0.0935  0.2121
 1071YOPC   C1A14327  10.065   5.594   6.587 -0.0830  0.1438 -0.0734
 1071YOPC   D2A14328  10.147   5.520   7.038  0.0966 -0.0205 -0.2096
 1071YOPC   C3A14329  10.200   5.756   7.431  0.0294  0.2040 -0.0808
 1071YOPC   C4A14330  10.244   6.186   7.499 -0.1198 -0.2068 -0.0855
 1071YOPC   C1B14331   9.749   5.292   6.861 -0.3366  0.0806  0.2060
 1071YOPC   C2B14332   9.625   5.488   7.291 -0.2219  0.1164  0.1666
 1071YOPC   D3B14333   9.428   5.254   7.683  0.1701  0.1340  0.1176
 1071YOPC   C4B14334   9.188   5.143   7.921 -0.1914  0.1243  0.0956
 1072YOPC   NC314335   6.054   1.765   5.401 -0.2550  0.3154 -0.1408
 1072YOPC   PO414336   6.389   1.593   5.477 -0.0141 -0.0662 -0.3897
 1072YOPC   GL114337   6.240   1.788   5.869  0.1034  0.0836 -0.1772
 1072YOPC   GL214338   5.976   2.048   5.962  0.1402 -0.0968  0.0481
 1072YOPC   C1A14339   6.262   1.747   6.331 -0.1882  0.2341  0.0081
 1072YOPC   D2A14340   6.226   1.822   6.691  0.1485 -0.1217  0.2741
 1072YOPC   C3A14341   6.421   1.920   6.958  0.0961 -0.0844  0.1387
 1072YOPC   C4A14342   6.381   1.907   7.311  0.0420 -0.0577  0.3559
 1072YOPC   C1B14343   6.021   2.200   6.408 -0.0145 -0.0019 -0.2125
 1072YOPC   C2B14344   6.117   2.385   6.846 -0.2304  0.1270  0.1741
 1072YOPC   D3B14345   5.928   2.221   7.151  0.4823 -0.1273  0.2234
 1072YOPC   C4B14346   5.465   2.315   7.420  0.1548  0.1421  0.0743
 1073YOPC   NC314347  12.099  13.476   5.662 -0.0354  0.2247 -0.1340
 1073YOPC   PO414348  11.806  13.159   5.450  0.4638  0.1678 -0.2869
 1073YOPC   GL114349  11.611  13.379   5.782 -0.4610 -0.1412 -0.1590
 1073YOPC   GL214350  11.760  13.350   6.065 -0.3414  0.1797 -0.3015
 1073YOPC   C1A14351  11.350  13.670   5.943  0.1911  0.5406 -0.0306
 1073YOPC   D2A14352  11.081  13.760   6.277  0.0099 -0.2368 -0.0444
 1073YOPC   C3A14353  11.147  13.846   6.586 -0.2429  0.1661 -0.3309
 1073YOPC   C4A14354  11.190  14.017   7.002 -0.0553 -0.4079  0.0939
 1073YOPC   C1B14355  11.633  13.734   6.377 -0.0761  0.0536 -0.1305
 1073YOPC   C2B14356  11.642  13.883   6.793 -0.0441 -0.0511 -0.1217
 1073YOPC   D3B14357  11.426  14.275   6.634  0.1109  0.1034  0.1493
 1073YOPC   C4B14358  11.022  14.434   6.487  0.3273 -0.1102  0.0416
 1074YOPC   NC314359  17.078   3.567   5.487  0.1314  0.0673  0.2287
 1074YOPC   PO414360  17.416   3.254   5.692  0.0641 -0.0729  0.1357
 1074YOPC   GL114361  17.231   3.073   6.098  0.2476  0.0392 -0.3258
 1074YOPC   GL214362  16.864   2.985   6.257 -0.2940  0.1248 -0.1321
 1074YOPC   C1A14363  17.338   2.866   6.603 -0.4556  0.0240 -0.3925
 1074YOPC   D2A14364  17.569   2.914   7.017 -0.2178 -0.4000 -0.0297
 1074YOPC   C3A14365  17.738   2.647   7.142 -0.2306  0.1261  0.1988
 1074YOPC   C4A14366  18.015   2.605   7.470  0.3730 -0.2602 -0.1311
 1074YOPC   C1B14367  16.777   2.809   6.659 -0.0170  0.0175 -0.2022
 1074YOPC   C2B14368  16.562   2.769   6.912  0.0700 -0.1502 -0.3518
 1074YOPC   D3B14369  16.619   2.996   7.317  0.0562  0.0415 -0.0473
 1074YOPC   C4B14370  16.475   3.213   7.601 -0.1745 -0.0465 -0.0491
 1075YOPC   NC314371   7.965   5.389   5.575  0.1122  0.1419 -0.3713
 1075YOPC   PO414372   7.762   5.689   5.811 -0.0942 -0.2394  0.2847
 1075YOPC   GL114373   7.820   5.654   6.170  0.1972 -0.0772  0.0773
 1075YOPC   GL214374   7.783   5.907   6.313 -0.1151 -0.0228  0.0485
 1075YOPC   C1A14375   7.725   5.387   6.458  0.3661 -0.0794  0.1605
 1075YOPC   D2A14376   7.667   5.379   6.910  0.2594  0.2723  0.0497
 1075YOPC   C3A14377   7.397   5.638   7.063  0.2647 -0.0185 -0.0211
 1075YOPC   C4A14378   7.067   5.864   7.331  0.0471 -0.1579  0.0821
 1075YOPC   C1B14379   7.799   5.874   6.772  0.0427  0.4157  0.2066
 1075YOPC   C2B14380   8.044   5.664   7.016  0.1360  0.1866 -0.1011
 1075YOPC   D3B14381   7.835   5.659   7.365 -0.2466 -0.0719  0.0315
 1075YOPC   C4B14382   7.815   5.599   7.793  0.1902  0.3324  0.4178
 1076YOPC   NC314383  18.027  10.957   5.965  0.0410 -0.0659 -0.1429
 1076YOPC   PO414384  17.703  10.619   6.022  0.2334  0.4754 -0.1862
 1076YOPC   GL114385  17.832  10.565   6.380  0.0050 -0.1395 -0.1500
 1076YOPC   GL214386  17.867  10.969   6.511  0.2989 -0.2360 -0.0654
 1076YOPC   C1A14387  17.983  10.499   6.799  0.0831 -0.3372  0.2111
 1076YOPC   D2A14388  17.826  10.372   7.252  0.0882  0.1675  0.0840
 1076YOPC   C3A14389  18.097   9.981   7.405  0.1400  0.0407 -0.1301
 1076YOPC   C4A14390  18.342   9.721   7.369 -0.0244  0.0493  0.2854
 1076YOPC   C1B14391  17.585  10.847   6.855 -0.3354 -0.1718  0.1304
 1076YOPC   C2B14392  17.159  11.016   6.972  0.4232 -0.1794 -0.0229
 1076YOPC   D3B14393  16.927  10.823   7.208 -0.1621 -0.0899  0.1988
 1076YOPC   C4B14394  16.784  10.774   7.539 -0.3165 -0.0237 -0.0995
 1077YOPC   NC314395   8.032   7.229   5.036 -0.2742  0.0817  0.0299
 1077YOPC   PO414396   7.985   7.603   5.229  0.0687  0.2040  0.3243
 1077YOPC   GL114397   8.148   7.570   5.657 -0.0216 -0.0058 -0.3673
 1077YOPC   GL214398   7.934   7.578   5.907  0.0994  0.2947  0.1168
 1077YOPC   C1A14399   8.501   7.633   5.975  0.0455  0.0470  0.3591
 1077YOPC   D2A14400   8.753   7.686   6.352 -0.1830 -0.1153  0.1050
 1077YOPC   C3A14401   8.905   8.039   6.586 -0.1815 -0.0361 -0.1886
 1077YOPC   C4A14402   8.653   8.159   6.864 -0.2331 -0.1224 -0.0772
 1077YOPC   C1B14403   8.079   7.700   6.227 -0.0276  0.0369  0.1140
 1077YOPC   C2B14404   8.204   7.652   6.723  0.1823 -0.0693  0.0590
 1077YOPC   D3B14405   8.208   8.002   7.152 -0.1909  0.0831 -0.1257
 1077YOPC   C4B14406   8.039   7.973   7.464 -0.0113  0.1787 -0.0065
 1078YOPC   NC314407   8.612   9.340   5.016 -0.1667 -0.1086 -0.0523
 1078YOPC   PO414408   8.349   8.909   5.070  0.0020  0.2244  0.2558
 1078YOPC   GL114409   8.092   8.590   5.477  0.2236 -0.0198 -0.3717
 1078YOPC   GL214410   7.741   8.465   5.514  0.1069  0.2661  0.2661
 1078YOPC   C1A14411   8.034   8.663   5.912 -0.1732 -0.0023  0.1630
 1078YOPC   D2A14412   7.857   8.526   6.251 -0.2176 -0.0505  0.0512
 1078YOPC   C3A14413   7.907   8.863   6.592  0.2617 -0.3293  0.1825
 1078YOPC   C4A14414   7.537   9.171   6.741  0.0845  0.6210 -0.0492
 1078YOPC   C1B14415   7.780   8.971   5.562  0.1015 -0.0050  0.3294
 1078YOPC   C2B14416   7.580   9.390   5.758  0.0748 -0.0658 -0.0040
 1078YOPC   D3B14417   7.309   9.239   6.116  0.3344  0.1394 -0.2922
 1078YOPC   C4B14418   7.430   8.875   6.313  0.0925 -0.0641  0.1137
 1079YOPC   NC314419  16.080   4.488   5.418  0.0294  0.0165  0.2816
 1079YOPC   PO414420  16.262   4.151   5.615 -0.0491 -0.0488 -0.1082
 1079YOPC   GL114421  16.189   4.082   6.110 -0.2618 -0.0850  0.0501
 1079YOPC   GL214422  15.877   4.038   6.165  0.0256  0.2249  0.3652
 1079YOPC   C1A14423  16.321   4.051   6.579  0.0276  0.0720 -0.2873
 1079YOPC   D2A14424  16.221   4.146   6.996  0.1975 -0.2246 -0.0447
 1079YOPC   C3A14425  16.235   3.792   7.216  0.3983 -0.2213 -0.0573
 1079YOPC   C4A14426  16.137   3.503   7.397  0.3137  0.0897  0.2772
 1079YOPC   C1B14427  15.689   4.132   6.469  0.0120 -0.2426  0.2019
 1079YOPC   C2B14428  15.478   4.285   6.859 -0.1371  0.2183  0.1409
 1079YOPC   D3B14429  15.347   4.716   6.950 -0.1745  0.0814 -0.2432
 1079YOPC   C4B14430  15.330   4.932   7.251 -0.0837 -0.0247 -0.2011
 1080YOPC   NC314431   9.314  14.456   5.703 -0.0139 -0.0464 -0.0848
 1080YOPC   PO414432   9.436  14.063   5.827 -0.1163 -0.0019 -0.1309
 1080YOPC   GL114433   9.382  14.294   6.155  0.2901 -0.0793 -0.0324
 1080YOPC   GL214434   9.426  14.610   6.212 -0.0642 -0.1921  0.0019
 1080YOPC   C1A14435   9.344  14.008   6.538  0.2662  0.2372  0.0616
 1080YOPC   D2A14436   9.313  14.014   7.038  0.1370 -0.1587 -0.2215
 1080YOPC   C3A14437   8.885  13.950   7.339 -0.0017  0.2754  0.0474
 1080YOPC   C4A14438   8.432  14.129   7.590  0.1570 -0.1109  0.1987
 1080YOPC   C1B14439   9.372  14.482   6.627 -0.0547  0.3091  0.1021
 1080YOPC   C2B14440   9.514  14.597   6.940  0.1960  0.0196 -0.0019
 1080YOPC   D3B14441   9.266  14.896   7.099 -0.0173  0.3887  0.1240
 1080YOPC   C4B14442   9.037  15.020   7.576 -0.0879 -0.2005 -0.0475
 1081YOPC   NC314443  11.242   1.067   5.494 -0.1438 -0.0149 -0.0196
 1081YOPC   PO414444  11.010   1.410   5.527  0.0488  0.1434  0.3072
 1081YOPC   GL114445  11.015   1.334   5.915  0.0826  0.1708  0.1773
 1081YOPC   GL214446  11.346   1.324   5.984  0.0100  0.0311  0.0564
 1081YOPC   C1A14447  10.977   1.460   6.355 -0.1076  0.0303 -0.1266
 1081YOPC   D2A14448  10.967   1.260   6.758 -0.1327 -0.1088  0.2385
 1081YOPC   C3A14449  11.203   1.362   7.041 -0.3878  0.6739  0.1222
 1081YOPC   C4A14450  11.167   1.337   7.443 -0.0215  0.0463 -0.0816
 1081YOPC   C1B14451  11.440   1.170   6.382 -0.0950 -0.0231  0.0940
 1081YOPC   C2B14452  11.549   1.126   6.771  0.3036  0.1478 -0.2349
 1081YOPC   D3B14453  11.650   1.150   7.222 -0.1097  0.1717 -0.2936
 1081YOPC   C4B14454  11.991   1.026   7.545  0.0399 -0.3047  0.2988
 1082YOPC   NC314455  14.636   7.962   5.563  0.0238  0.0204 -0.1722
 1082YOPC   PO414456  14.551   7.587   5.373 -0.0383 -0.3390 -0.1295
 1082YOPC   GL114457  14.413   7.519   5.857 -0.0517  0.0857  0.0453
 1082YOPC   GL214458  14.184   7.784   6.026  0.4779 -0.2467  0.0880
 1082YOPC   C1A14459  14.338   7.250   6.272  0.2142  0.1671 -0.3351
 1082YOPC   D2A14460  13.979   6.938   6.415 -0.1575 -0.3897 -0.1957
 1082YOPC   C3A14461  13.782   6.957   6.795 -0.0753 -0.4137  0.2066
 1082YOPC   C4A14462  13.688   7.136   7.125 -0.0855 -0.4498  0.0662
 1082YOPC   C1B14463  14.010   7.877   6.437 -0.2772 -0.2040  0.0337
 1082YOPC   C2B14464  14.004   8.070   6.827 -0.2599  0.0565  0.0293
 1082YOPC   D3B14465  13.947   7.911   7.133 -0.2721  0.0117 -0.1238
 1082YOPC   C4B14466  14.008   7.852   7.595  0.1076  0.4616  0.0438
 1083YOPC   NC314467  12.452  14.379   5.256 -0.0435 -0.1577  0.1969
 1083YOPC   PO414468  12.221  14.014   5.536 -0.1303  0.3544  0.3617
 1083YOPC   GL114469  12.314  14.237   5.932 -0.1176  0.2060 -0.0249
 1083YOPC   GL214470  12.105  14.533   5.996  0.0505 -0.4099 -0.3351
 1083YOPC   C1A14471  12.400  14.228   6.445  0.1349 -0.0998 -0.2406
 1083YOPC   D2A14472  12.365  14.234   6.909 -0.2519  0.0414  0.1631
 1083YOPC   C3A14473  12.310  14.466   7.201 -0.0214  0.2753  0.0837
 1083YOPC   C4A14474  12.305  14.821   7.518 -0.3760 -0.2852  0.1685
 1083YOPC   C1B14475  12.194  14.696   6.387 -0.1752 -0.0397  0.0657
 1083YOPC   C2B14476  12.437  14.698   6.700  0.1326  0.0734  0.3129
 1083YOPC   D3B14477  12.504  14.996   7.056 -0.0964  0.5512  0.2273
 1083YOPC   C4B14478  12.670  15.338   7.330 -0.0923 -0.1982 -0.0300
 1084YOPC   NC314479   8.525   6.051   5.114  0.0933 -0.0121  0.0532
 1084YOPC   PO414480   8.594   6.047   5.554  0.2825  0.1630  0.1742
 1084YOPC   GL114481   8.666   5.883   6.071 -0.1913 -0.2078  0.1719
 1084YOPC   GL214482   8.799   5.536   6.040  0.0512  0.3314 -0.0112
 1084YOPC   C1A14483   8.781   5.872   6.452 -0.0034 -0.1571 -0.0658
 1084YOPC   D2A14484   9.037   5.977   6.857 -0.1245  0.0683  0.0079
 1084YOPC   C3A14485   8.862   5.777   7.252  0.2444 -0.0273  0.0933
 1084YOPC   C4A14486   9.184   5.654   7.514 -0.2229  0.1984  0.0428
 1084YOPC   C1B14487   8.779   5.390   6.437 -0.4316  0.0241 -0.0364
 1084YOPC   C2B14488   8.656   5.464   6.889  0.1374 -0.2546  0.2387
 1084YOPC   D3B14489   8.412   5.188   7.182 -0.2196  0.0817 -0.1050
 1084YOPC   C4B14490   8.344   4.947   7.606  0.0380 -0.0411 -0.0555
 1085YOPC   NC314491   4.593   7.745   5.501 -0.0224 -0.1531  0.0741
 1085YOPC   PO414492   4.173   7.911   5.533  0.2614  0.0576  0.2069
 1085YOPC   GL114493   3.934   8.020   5.907  0.0508  0.0987  0.0289
 1085YOPC   GL214494   3.761   8.331   5.978 -0.2082  0.0168 -0.0018
 1085YOPC   C1A14495   3.898   7.787   6.350  0.0620 -0.2850 -0.1278
 1085YOPC   D2A14496   3.809   7.905   6.826 -0.0862 -0.2594 -0.1531
 1085YOPC   C3A14497   3.466   8.143   7.099  0.0245  0.1351 -0.2546
 1085YOPC   C4A14498   3.033   8.244   6.985  0.0334  0.4334  0.3920
 1085YOPC   C1B14499   3.863   8.305   6.408  0.0502 -0.2215  0.2427
 1085YOPC   C2B14500   3.872   8.435   6.902  0.0555 -0.0243 -0.0541
 1085YOPC   D3B14501   4.147   8.594   7.198 -0.3003 -0.1325  0.0928
 1085YOPC   C4B14502   4.136   8.580   7.732 -0.1350 -0.1608  0.3557
 1086YOPC   NC314503  17.761  18.029   6.047 -0.0085 -0.1458 -0.1651
 1086YOPC   PO414504  17.843  17.646   5.747 -0.0162  0.3528 -0.1294
 1086YOPC   GL114505  17.567  17.574   6.175 -0.1208  0.0556 -0.2106
 1086YOPC   GL214506  17.841  17.529   6.388  0.1379  0.2341 -0.1410
 1086YOPC   C1A14507  17.294  17.678   6.539 -0.0136 -0.1844  0.1291
 1086YOPC   D2A14508  17.099  17.888   6.892 -0.0064 -0.0252 -0.0405
 1086YOPC   C3A14509  17.136  17.837   7.352  0.0065  0.0646  0.1985
 1086YOPC   C4A14510  17.174  17.881   7.797 -0.0368  0.1061 -0.0287
 1086YOPC   C1B14511  17.770  17.510   6.719 -0.0511 -0.1521  0.3954
 1086YOPC   C2B14512  17.440  17.513   7.062 -0.0463 -0.2533  0.3021
 1086YOPC   D3B14513  17.590  17.615   7.525  0.2000  0.0008 -0.1144
 1086YOPC   C4B14514  17.684  17.503   7.932  0.0975 -0.0433  0.0317
 1087YOPC   NC314515  13.000   0.526   5.123 -0.0294  0.0040  0.1915
 1087YOPC   PO414516  13.001   0.506   5.599  0.0985 -0.0203  0.1339
 1087YOPC   GL114517  13.072   0.626   6.004 -0.1089  0.1219 -0.0567
 1087YOPC   GL214518  12.869   0.524   6.209 -0.2033  0.1918  0.1217
 1087YOPC   C1A14519  13.102   1.078   6.147  0.2329  0.1535  0.1524
 1087YOPC   D2A14520  12.984   1.445   6.258 -0.0951 -0.1305  0.0841
 1087YOPC   C3A14521  13.014   1.641   6.723 -0.1942  0.1750 -0.0767
 1087YOPC   C4A14522  13.046   1.864   7.112 -0.0232  0.0049 -0.2307
 1087YOPC   C1B14523  12.757   0.849   6.464  0.3981  0.0722 -0.0138
 1087YOPC   C2B14524  13.030   1.107   6.682  0.0509  0.1323  0.0188
 1087YOPC   D3B14525  13.131   1.093   7.037 -0.3293  0.4497  0.0121
 1087YOPC   C4B14526  13.071   1.459   7.392  0.0340  0.1456  0.2594
 1088YOPC   NC314527  11.686   0.248   5.161  0.1972  0.0692 -0.1870
 1088YOPC   PO414528  11.923   0.007   5.458  0.0214  0.0451 -0.0110
 1088YOPC   GL114529  11.744   0.084   5.875  0.1974  0.0129 -0.1815
 1088YOPC   GL214530  11.389   0.081   6.002  0.3789 -0.1897  0.0627
 1088YOPC   C1A14531  11.773   0.106   6.343 -0.0244  0.0108 -0.0346
 1088YOPC   D2A14532  11.922   0.067   6.620  0.2663 -0.0405 -0.0447
 1088YOPC   C3A14533  12.095   0.408   6.987 -0.1286  0.0294 -0.2403
 1088YOPC   C4A14534  12.079   0.319   7.335  0.1704 -0.0310 -0.0105
 1088YOPC   C1B14535  11.294   0.286   6.360 -0.1344  0.1182 -0.0865
 1088YOPC   C2B14536  11.439   0.114   6.759  0.0139  0.1137  0.0007
 1088YOPC   D3B14537  11.208  -0.086   6.991  0.1114 -0.0806  0.0276
 1088YOPC   C4B14538  10.931  -0.111   7.241 -0.1489  0.3101  0.0893
 1089YOPC   NC314539   8.178   6.324   5.501 -0.1304  0.0378  0.0246
 1089YOPC   PO414540   7.728   6.296   5.420 -0.0393 -0.1410 -0.0276
 1089YOPC   GL114541   7.724   6.248   5.921 -0.0914 -0.1279 -0.0674
 1089YOPC   GL214542   7.495   6.271   6.074  0.0912 -0.3086 -0.1051
 1089YOPC   C1A14543   7.902   6.359   6.327  0.1596 -0.1133 -0.5077
 1089YOPC   D2A14544   7.951   6.377   6.856  0.1918 -0.2838  0.1494
 1089YOPC   C3A14545   7.980   6.756   7.141  0.2492  0.1881 -0.1686
 1089YOPC   C4A14546   8.196   7.070   7.431 -0.3586 -0.0510 -0.0854
 1089YOPC   C1B14547   7.444   6.195   6.496 -0.1193 -0.2105  0.0156
 1089YOPC   C2B14548   7.402   6.151   6.835 -0.1845 -0.0641  0.1278
 1089YOPC   D3B14549   7.562   6.374   7.210 -0.0674  0.1600 -0.0151
 1089YOPC   C4B14550   7.615   6.119   7.538  0.2003  0.1121 -0.2427
 1090YOPC   NC314551   2.866  15.726   5.035 -0.0773 -0.0561 -0.0882
 1090YOPC   PO414552   3.049  15.447   5.383 -0.3345 -0.0030 -0.0085
 1090YOPC   GL114553   3.156  15.529   5.903  0.0363  0.3104 -0.1165
 1090YOPC   GL214554   3.109  15.111   5.883 -0.4213  0.3142 -0.0857
 1090YOPC   C1A14555   3.517  15.503   6.106  0.1076  0.2347 -0.0758
 1090YOPC   D2A14556   3.694  15.872   6.267 -0.1756  0.0156  0.1007
 1090YOPC   C3A14557   3.393  15.733   6.660  0.1301  0.2572 -0.0431
 1090YOPC   C4A14558   2.965  15.518   6.818 -0.2015  0.2649 -0.1508
 1090YOPC   C1B14559   3.185  15.179   6.272  0.0804  0.1523  0.2574
 1090YOPC   C2B14560   2.875  15.113   6.561 -0.0420  0.2583  0.4277
 1090YOPC   D3B14561   2.448  15.156   6.709  0.1397  0.0290  0.0865
 1090YOPC   C4B14562   2.151  14.938   6.802  0.0851  0.0017 -0.4053
 1091YOPC   NC314563   5.894   9.352   5.216  0.1692 -0.0444  0.0213
 1091YOPC   PO414564   5.888   8.841   5.034  0.1865  0.2453 -0.0185
 1091YOPC   GL114565   6.100   8.752   5.335  0.0806 -0.0840  0.0816
 1091YOPC   GL214566   6.454   8.630   5.306  0.4942 -0.1725  0.1553
 1091YOPC   C1A14567   6.075   8.771   5.744  0.2356 -0.0395 -0.3284
 1091YOPC   D2A14568   5.869   8.854   6.122 -0.0876  0.1357 -0.0261
 1091YOPC   C3A14569   5.449   9.175   6.263 -0.2046 -0.2677  0.2047
 1091YOPC   C4A14570   5.089   8.977   6.465  0.1137 -0.2162  0.0557
 1091YOPC   C1B14571   6.807   8.615   5.530  0.1598  0.2658 -0.1740
 1091YOPC   C2B14572   6.889   8.606   6.028 -0.2117  0.1969 -0.0726
 1091YOPC   D3B14573   6.877   8.945   6.315 -0.2535 -0.0146  0.4248
 1091YOPC   C4B14574   6.552   9.311   6.504 -0.0739  0.0400 -0.1898
 1092YOPC   NC314575   6.631   3.728   5.244 -0.0279 -0.1745 -0.0248
 1092YOPC   PO414576   6.835   3.334   5.469  0.3913 -0.1650 -0.0410
 1092YOPC   GL114577   6.674   3.136   5.955 -0.0749  0.1793  0.3646
 1092YOPC   GL214578   6.953   3.349   6.022 -0.1366 -0.1382  0.1421
 1092YOPC   C1A14579   6.486   3.097   6.317  0.1745 -0.3480  0.2049
 1092YOPC   D2A14580   6.366   3.173   6.734  0.2779 -0.2478  0.0507
 1092YOPC   C3A14581   6.247   2.910   7.161  0.1985  0.2038  0.1056
 1092YOPC   C4A14582   6.373   2.473   7.319  0.3028  0.4630 -0.2639
 1092YOPC   C1B14583   7.041   3.732   6.361 -0.0046 -0.2286 -0.1749
 1092YOPC   C2B14584   7.055   3.934   6.772 -0.2368 -0.0032  0.1346
 1092YOPC   D3B14585   7.131   3.688   7.171  0.0653  0.0437 -0.2866
 1092YOPC   C4B14586   7.327   3.628   7.539 -0.2192  0.2496  0.1928
 1093YOPC   NC314587  18.162  11.724   5.930 -0.0858 -0.3200 -0.0134
 1093YOPC   PO414588  17.884  11.423   6.137  0.3419  0.0164 -0.0554
 1093YOPC   GL114589  18.254  11.406   6.360  0.0545  0.1704  0.0819
 1093YOPC   GL214590  18.447  11.240   6.114  0.1667  0.1531  0.0940
 1093YOPC   C1A14591  18.362  11.401   6.782  0.0495 -0.0278 -0.5261
 1093YOPC   D2A14592  18.371  11.332   7.237 -0.2224  0.2438  0.1302
 1093YOPC   C3A14593  18.241  11.362   7.645 -0.3242  0.1669  0.1652
 1093YOPC   C4A14594  18.205  11.722   7.906 -0.2382 -0.0985 -0.2689
 1093YOPC   C1B14595  18.721  11.108   6.581  0.1503  0.1622  0.3547
 1093YOPC   C2B14596  18.601  10.963   7.048 -0.0573  0.0572  0.3838
 1093YOPC   D3B14597  18.727  10.915   7.447 -0.2151 -0.0710  0.0603
 1093YOPC   C4B14598  18.530  11.046   7.795  0.1744 -0.2880  0.1466
 1094YOPC   NC314599  13.185  14.778   5.436  0.1861 -0.0814  0.3122
 1094YOPC   PO414600  13.277  15.186   5.317  0.3169 -0.1037 -0.3007
 1094YOPC   GL114601  13.117  15.241   5.740 -0.1000 -0.0977  0.1965
 1094YOPC   GL214602  12.799  15.012   5.840 -0.2021  0.0739  0.1550
 1094YOPC   C1A14603  13.305  15.300   6.145  0.2611 -0.3070 -0.0291
 1094YOPC   D2A14604  13.359  15.128   6.558  0.2148 -0.1472  0.0488
 1094YOPC   C3A14605  13.554  15.119   7.004  0.3068 -0.2587  0.2476
 1094YOPC   C4A14606  13.948  14.798   7.193  0.0034 -0.0541 -0.0932
 1094YOPC   C1B14607  12.731  15.193   6.223  0.0107 -0.1859  0.0484
 1094YOPC   C2B14608  12.496  15.170   6.526  0.1143 -0.1902  0.2798
 1094YOPC   D3B14609  12.163  15.130   6.591 -0.0488 -0.1825 -0.1712
 1094YOPC   C4B14610  11.783  15.164   6.837  0.1923 -0.0201  0.0329
 1095YOPC   NC314611   1.519  12.825   5.941 -0.0193  0.2334  0.2844
 1095YOPC   PO414612   1.488  13.284   5.992  0.0681 -0.3834 -0.3970
 1095YOPC   GL114613   1.448  13.190   6.328 -0.1191 -0.0860 -0.1134
 1095YOPC   GL214614   1.686  13.025   6.446  0.0093 -0.0174  0.1733
 1095YOPC   C1A14615   1.224  13.216   6.704  0.0726  0.1253  0.1689
 1095YOPC   D2A14616   1.094  13.221   7.103  0.0628  0.5131 -0.4210
 1095YOPC   C3A14617   0.953  13.662   7.301  0.1091 -0.0185  0.0680
 1095YOPC   C4A14618   1.380  13.916   7.642  0.0079 -0.0575  0.0069
 1095YOPC   C1B14619   1.581  12.835   6.882  0.0486  0.0794 -0.1265
 1095YOPC   C2B14620   1.478  12.813   7.303 -0.1017 -0.2294  0.3279
 1095YOPC   D3B14621   1.748  12.949   7.709  0.0722  0.2394  0.4072
 1095YOPC   C4B14622   1.682  12.994   8.181 -0.1512  0.3496  0.2369
 1096YOPC   NC314623  16.232   7.921   5.271 -0.0982  0.2125  0.2783
 1096YOPC   PO414624  16.422   7.644   5.664  0.0029  0.2362 -0.0142
 1096YOPC   GL114625  16.766   7.435   6.063 -0.2019 -0.3331 -0.2856
 1096YOPC   GL214626  16.936   7.167   6.205  0.3421 -0.0015  0.0463
 1096YOPC   C1A14627  16.864   7.639   6.432  0.0463  0.1400 -0.0954
 1096YOPC   D2A14628  16.549   7.634   6.816  0.1497  0.1183  0.0296
 1096YOPC   C3A14629  16.728   7.784   7.252  0.0051 -0.0781  0.0445
 1096YOPC   C4A14630  16.875   8.110   7.449 -0.0915 -0.0761 -0.0162
 1096YOPC   C1B14631  16.692   7.114   6.521  0.0703  0.0480 -0.2746
 1096YOPC   C2B14632  16.759   7.190   6.959 -0.1314 -0.0315  0.1207
 1096YOPC   D3B14633  16.416   7.335   7.213  0.1265 -0.0769  0.1272
 1096YOPC   C4B14634  15.996   7.422   7.324  0.1608 -0.2965  0.2767
 1097YOPC   NC314635   9.064  18.564   4.752 -0.2040 -0.2218 -0.3942
 1097YOPC   PO414636   9.004  18.445   5.179 -0.2985  0.1474 -0.0159
 1097YOPC   GL114637   9.189  18.602   5.575 -0.2412  0.2743  0.3333
 1097YOPC   GL214638   9.051  18.898   5.807 -0.2949 -0.2473 -0.0287
 1097YOPC   C1A14639   9.446  18.629   5.951 -0.2329 -0.0053  0.2885
 1097YOPC   D2A14640   9.667  18.541   6.338 -0.0879  0.0526  0.2485
 1097YOPC   C3A14641   9.643  18.107   6.586  0.2578  0.1729  0.1347
 1097YOPC   C4A14642   9.512  18.092   7.053  0.3995 -0.1669 -0.3628
 1097YOPC   C1B14643   9.142  19.040   6.243 -0.0421 -0.1233 -0.0989
 1097YOPC   C2B14644   9.299  18.776   6.560  0.0770  0.0527  0.2047
 1097YOPC   D3B14645   9.714  18.511   6.867 -0.3261 -0.1622 -0.2010
 1097YOPC   C4B14646  10.013  18.164   6.922  0.1812 -0.0641 -0.4081
 1098YOPC   NC314647   1.002  18.427   5.466 -0.5183 -0.1074 -0.1969
 1098YOPC   PO414648   0.961  18.196   5.753  0.0033 -0.1144 -0.2313
 1098YOPC   GL114649   0.871  18.041   6.153  0.0714  0.0401 -0.3017
 1098YOPC   GL214650   0.786  18.242   6.428  0.4042  0.0610 -0.5613
 1098YOPC   C1A14651   1.011  17.860   6.663  0.3395  0.2411  0.1288
 1098YOPC   D2A14652   0.837  17.808   7.129 -0.0690  0.0557 -0.1946
 1098YOPC   C3A14653   1.045  17.735   7.532 -0.0408  0.1752 -0.0861
 1098YOPC   C4A14654   1.023  17.377   7.848  0.1711 -0.0094 -0.0646
 1098YOPC   C1B14655   0.787  18.291   6.841 -0.1101 -0.3505 -0.0785
 1098YOPC   C2B14656   0.686  18.366   7.260  0.2916 -0.0824 -0.0819
 1098YOPC   D3B14657   0.621  18.139   7.484 -0.0029  0.1984 -0.0738
 1098YOPC   C4B14658   0.512  17.710   7.611  0.1562 -0.0939 -0.0470
 1099YOPC   NC314659   0.188   3.404   5.582 -0.2809  0.3302 -0.3554
 1099YOPC   PO414660   0.566   3.526   5.957 -0.0046  0.3397  0.1005
 1099YOPC   GL114661   0.566   3.610   6.365  0.0469  0.0959 -0.2076
 1099YOPC   GL214662   0.575   3.261   6.357 -0.1900 -0.0068  0.3190
 1099YOPC   C1A14663   0.763   3.610   6.838 -0.1412 -0.3274  0.2265
 1099YOPC   D2A14664   0.604   3.304   7.118  0.1000  0.0298  0.2276
 1099YOPC   C3A14665   0.864   3.197   7.481  0.1679  0.0727 -0.1591
 1099YOPC   C4A14666   0.992   3.337   7.841 -0.0456 -0.2695 -0.1222
 1099YOPC   C1B14667   0.793   2.874   6.710 -0.0599  0.1125  0.1868
 1099YOPC   C2B14668   1.064   2.649   6.906  0.6013  0.0171  0.1408
 1099YOPC   D3B14669   1.179   2.787   7.328 -0.3421 -0.1228 -0.0740
 1099YOPC   C4B14670   1.305   3.065   7.638  0.0816  0.1073 -0.1405
 1100YOPC   NC314671  10.628   3.012   5.532  0.1090  0.3344 -0.1094
 1100YOPC   PO414672  10.460   3.295   5.606 -0.3444  0.1477  0.0478
 1100YOPC   GL114673  10.228   3.462   5.999  0.1556 -0.3016 -0.0698
 1100YOPC   GL214674  10.293   3.184   6.135  0.1178  0.1508  0.0653
 1100YOPC   C1A14675  10.207   3.654   6.451 -0.0009  0.1622  0.0024
 1100YOPC   D2A14676  10.007   3.576   6.807  0.0882 -0.1417  0.0758
 1100YOPC   C3A14677  10.197   3.666   7.151 -0.1017  0.1048 -0.0183
 1100YOPC   C4A14678  10.196   3.639   7.573  0.0659  0.0799 -0.0676
 1100YOPC   C1B14679  10.181   3.194   6.540 -0.0884 -0.1169 -0.0032
 1100YOPC   C2B14680  10.195   3.152   7.008  0.3381  0.1252  0.3164
 1100YOPC   D3B14681  10.075   3.199   7.381  0.0555 -0.1192  0.2487
 1100YOPC   C4B14682   9.801   3.439   7.860  0.2035  0.1721 -0.1024
 1101YOPC   NC314683   2.364  11.062   5.634 -0.3096 -0.2959  0.2097
 1101YOPC   PO414684   2.660  11.480   5.578  0.1237 -0.1424  0.2690
 1101YOPC   GL114685   2.904  11.489   5.886  0.4888  0.1207  0.2606
 1101YOPC   GL214686   3.155  11.780   5.950  0.1750 -0.1294  0.1934
 1101YOPC   C1A14687   2.826  11.491   6.322  0.3976 -0.3215  0.0140
 1101YOPC   D2A14688   2.559  11.327   6.650 -0.3346 -0.3367  0.3732
 1101YOPC   C3A14689   2.526  10.949   6.878  0.0532  0.0110  0.1548
 1101YOPC   C4A14690   2.337  10.538   6.840 -0.1654 -0.0737  0.1624
 1101YOPC   C1B14691   3.368  12.072   6.046  0.5717 -0.2407 -0.2101
 1101YOPC   C2B14692   3.241  12.282   6.294  0.1585 -0.0207  0.1269
 1101YOPC   D3B14693   3.315  12.215   6.690 -0.0229  0.0610 -0.1693
 1101YOPC   C4B14694   3.281  12.239   7.190 -0.1231 -0.3273  0.2278
 1102YOPC   NC314695  17.886  15.315   6.043  0.1841 -0.1489 -0.1783
 1102YOPC   PO414696  17.389  15.302   6.109  0.0089 -0.0292  0.1305
 1102YOPC   GL114697  17.553  15.173   6.467 -0.3093  0.1104 -0.0447
 1102YOPC   GL214698  17.604  15.486   6.540 -0.0057 -0.0162 -0.1821
 1102YOPC   C1A14699  17.690  15.029   6.795 -0.1478 -0.0099 -0.1083
 1102YOPC   D2A14700  17.696  14.933   7.214  0.0495 -0.0077 -0.0273
 1102YOPC   C3A14701  17.418  15.043   7.540 -0.0449 -0.1620  0.3598
 1102YOPC   C4A14702  17.385  14.893   7.999  0.1424 -0.0380  0.1211
 1102YOPC   C1B14703  17.602  15.750   6.868  0.0288  0.1036  0.1011
 1102YOPC   C2B14704  17.645  16.090   7.157  0.1032  0.2439 -0.1587
 1102YOPC   D3B14705  17.521  15.941   7.417  0.0577  0.2231  0.1224
 1102YOPC   C4B14706  17.220  16.066   7.762  0.3211  0.2346  0.1270
 1103YOPC   NC314707   0.236  16.142   5.392 -0.0484 -0.1248 -0.3223
 1103YOPC   PO414708   0.255  16.319   5.764  0.1753  0.0251 -0.0762
 1103YOPC   GL114709   0.400  16.430   6.219  0.0110  0.0330  0.3787
 1103YOPC   GL214710   0.092  16.615   6.304  0.0230 -0.1044 -0.2116
 1103YOPC   C1A14711   0.347  16.260   6.617  0.1769  0.0683 -0.0981
 1103YOPC   D2A14712   0.460  16.119   7.027 -0.1205 -0.1653  0.1157
 1103YOPC   C3A14713   0.718  16.198   7.411 -0.0267 -0.1517  0.1342
 1103YOPC   C4A14714   1.160  16.311   7.528  0.1745 -0.1319  0.1014
 1103YOPC   C1B14715  -0.105  16.573   6.607 -0.3235 -0.0733  0.2331
 1103YOPC   C2B14716  -0.351  16.445   6.922  0.2298  0.0386  0.4183
 1103YOPC   D3B14717  -0.565  16.325   7.246  0.1341 -0.3174 -0.1281
 1103YOPC   C4B14718  -0.832  16.068   7.506  0.0693 -0.1097  0.0900
 1104YOPC   NC314719   3.267   3.991   5.517 -0.4558 -0.1852 -0.0160
 1104YOPC   PO414720   2.862   3.777   5.477 -0.2352  0.0375 -0.2730
 1104YOPC   GL114721   2.980   3.869   5.945 -0.4229 -0.1346  0.3296
 1104YOPC   GL214722   3.034   3.576   5.997  0.2765  0.0439  0.0830
 1104YOPC   C1A14723   2.905   3.960   6.373 -0.1357  0.2044  0.1007
 1104YOPC   D2A14724   2.732   4.299   6.437 -0.2225  0.0755 -0.0470
 1104YOPC   C3A14725   2.392   4.211   6.655 -0.3622 -0.1677 -0.1203
 1104YOPC   C4A14726   2.405   3.992   7.015  0.1446  0.1980 -0.5015
 1104YOPC   C1B14727   2.988   3.504   6.452  0.0206  0.1434 -0.0316
 1104YOPC   C2B14728   3.071   3.524   6.844 -0.0913  0.1603  0.3908
 1104YOPC   D3B14729   3.168   3.570   7.173  0.1312 -0.0466 -0.0612
 1104YOPC   C4B14730   3.012   3.829   7.481 -0.4099 -0.2837 -0.3347
 1105YOPC   NC314731   2.222  15.616   5.889 -0.2580  0.0470 -0.1256
 1105YOPC   PO414732   1.831  15.538   5.734  0.0410  0.1699 -0.0631
 1105YOPC   GL114733   1.675  15.706   6.110  0.1978 -0.1598  0.2497
 1105YOPC   GL214734   1.929  15.913   6.204  0.1378  0.0819 -0.3994
 1105YOPC   C1A14735   1.711  15.629   6.590  0.2807 -0.3145  0.3140
 1105YOPC   D2A14736   1.918  15.627   7.055  0.1784  0.1008  0.1755
 1105YOPC   C3A14737   2.123  15.537   7.368  0.4422  0.2287 -0.1271
 1105YOPC   C4A14738   2.218  15.404   7.802  0.3819  0.2731  0.0946
 1105YOPC   C1B14739   2.173  16.155   6.543 -0.0446 -0.0258 -0.2316
 1105YOPC   C2B14740   2.072  16.221   6.999  0.2237 -0.0097  0.0006
 1105YOPC   D3B14741   2.182  16.301   7.399 -0.3534  0.3438  0.0272
 1105YOPC   C4B14742   2.027  16.535   7.809 -0.0112 -0.3379 -0.3861
 1106YOPC   NC314743  15.655  18.476   5.568  0.0980 -0.1434 -0.1226
 1106YOPC   PO414744  15.672  18.931   5.687  0.2453  0.2961  0.0216
 1106YOPC   GL114745  15.621  18.624   6.037 -0.1150 -0.3079 -0.1643
 1106YOPC   GL214746  15.670  18.509   6.310 -0.1361  0.0681  0.0463
 1106YOPC   C1A14747  15.271  18.328   6.076 -0.2284  0.0662 -0.1753
 1106YOPC   D2A14748  14.880  18.064   6.169  0.0341  0.4231  0.3594
 1106YOPC   C3A14749  14.598  17.961   6.638  0.0285 -0.2265  0.6089
 1106YOPC   C4A14750  14.445  17.885   7.063  0.1240 -0.1425 -0.1406
 1106YOPC   C1B14751  15.832  18.411   6.685  0.1294 -0.0347  0.0919
 1106YOPC   C2B14752  15.832  18.256   7.063 -0.1628 -0.1957  0.0279
 1106YOPC   D3B14753  15.903  18.203   7.412 -0.1473  0.1643  0.0378
 1106YOPC   C4B14754  15.911  17.860   7.764  0.0495  0.2969 -0.1509
 1107YOPC   NC314755   1.181  17.489   5.531  0.3313  0.2748  0.0122
 1107YOPC   PO414756   1.229  17.803   5.889  0.0731  0.2279 -0.0186
 1107YOPC   GL114757   1.344  18.001   6.306  0.1417  0.2712  0.0816
 1107YOPC   GL214758   1.655  18.273   6.180 -0.1871 -0.0496  0.0786
 1107YOPC   C1A14759   1.368  18.133   6.812 -0.0489 -0.0204 -0.2115
 1107YOPC   D2A14760   1.298  18.030   7.272  0.0111 -0.1045 -0.2693
 1107YOPC   C3A14761   1.246  18.205   7.632  0.1249 -0.3349  0.0887
 1107YOPC   C4A14762   1.355  18.401   7.952  0.0608 -0.1391  0.2134
 1107YOPC   C1B14763   1.603  18.518   6.661 -0.2777 -0.2815 -0.3745
 1107YOPC   C2B14764   1.592  19.016   6.726 -0.1506 -0.1436  0.0414
 1107YOPC   D3B14765   1.952  19.301   6.829 -0.0045  0.1208 -0.1087
 1107YOPC   C4B14766   2.273  19.344   7.000 -0.1939 -0.2568 -0.0608
 1108YOPC   NC314767  10.727   3.753   5.683  0.3891  0.1361 -0.0165
 1108YOPC   PO414768  10.981   3.388   5.769  0.2218  0.3984 -0.1887
 1108YOPC   GL114769  11.145   3.332   6.126  0.0971 -0.2862  0.1197
 1108YOPC   GL214770  11.359   3.114   6.117  0.1087 -0.0597  0.0267
 1108YOPC   C1A14771  11.151   3.142   6.570  0.0344 -0.1643 -0.0451
 1108YOPC   D2A14772  11.274   3.158   6.944  0.2395  0.2713 -0.0265
 1108YOPC   C3A14773  11.042   3.127   7.291  0.3072 -0.0928 -0.0364
 1108YOPC   C4A14774  10.972   3.335   7.745  0.3567 -0.2824  0.4125
 1108YOPC   C1B14775  11.599   3.335   6.324  0.0371 -0.0190 -0.2255
 1108YOPC   C2B14776  12.006   3.408   6.432  0.0807  0.2164  0.2175
 1108YOPC   D3B14777  12.341   3.234   6.324  0.1047 -0.1007  0.1924
 1108YOPC   C4B14778  12.729   3.230   6.342 -0.1419  0.3512 -0.7666
 1109YOPC   NC314779   6.384   0.127   5.946 -0.2388 -0.3706 -0.2273
 1109YOPC   PO414780   6.725   0.363   5.964  0.0043 -0.0353 -0.2068
 1109YOPC   GL114781   6.584   0.300   6.447  0.1396  0.0995 -0.1213
 1109YOPC   GL214782   6.332   0.503   6.441 -0.6028 -0.0931 -0.0957
 1109YOPC   C1A14783   6.608   0.224   6.841 -0.1307 -0.1771  0.1517
 1109YOPC   D2A14784   6.606   0.539   7.179 -0.2337  0.0478 -0.3683
 1109YOPC   C3A14785   6.304   0.443   7.499 -0.2684 -0.1552 -0.0588
 1109YOPC   C4A14786   6.032   0.339   7.804  0.1558  0.0242 -0.3744
 1109YOPC   C1B14787   6.283   0.608   6.803 -0.1079 -0.2258 -0.0516
 1109YOPC   C2B14788   6.213   0.850   7.206 -0.2555 -0.0763 -0.1637
 1109YOPC   D3B14789   6.560   0.986   7.381  0.0861 -0.2860 -0.0284
 1109YOPC   C4B14790   6.911   1.128   7.547 -0.0567  0.0819 -0.1626
 1110YOPC   NC314791   0.550  15.518   6.109 -0.2806 -0.0674  0.0720
 1110YOPC   PO414792   0.547  14.960   5.954 -0.3403  0.1307 -0.0491
 1110YOPC   GL114793   0.623  15.077   6.356  0.0734 -0.1104  0.0062
 1110YOPC   GL214794   0.474  14.872   6.631 -0.1368 -0.0907 -0.0015
 1110YOPC   C1A14795   0.443  15.274   6.798 -0.0551 -0.1845 -0.2866
 1110YOPC   D2A14796   0.530  15.545   7.153 -0.0135 -0.0538  0.0104
 1110YOPC   C3A14797   0.591  15.376   7.591 -0.0131 -0.1958  0.0481
 1110YOPC   C4A14798   0.566  15.227   7.958  0.0883  0.0529 -0.2848
 1110YOPC   C1B14799   0.741  14.894   6.956 -0.0664  0.0323  0.0822
 1110YOPC   C2B14800   0.706  14.919   7.407 -0.3354  0.1387  0.0171
 1110YOPC   D3B14801   0.969  14.930   7.735 -0.0936 -0.2135  0.0402
 1110YOPC   C4B14802   1.165  14.664   8.072  0.1138  0.1740  0.0643
 1111YOPC   NC314803   3.282  13.528   5.830 -0.0407  0.2067 -0.0669
 1111YOPC   PO414804   3.681  13.383   5.676 -0.0159 -0.3801  0.0460
 1111YOPC   GL114805   3.966  13.517   6.022  0.0433  0.4812  0.0019
 1111YOPC   GL214806   3.693  13.720   6.096 -0.0231  0.1218 -0.0598
 1111YOPC   C1A14807   4.229  13.361   6.401  0.3116  0.0504 -0.2621
 1111YOPC   D2A14808   4.236  13.065   6.648  0.0752  0.2423  0.1714
 1111YOPC   C3A14809   3.820  12.913   6.806 -0.1984 -0.0912 -0.0272
 1111YOPC   C4A14810   3.562  13.076   6.932 -0.1824  0.1412 -0.0791
 1111YOPC   C1B14811   3.861  13.778   6.506  0.2265  0.1143 -0.2167
 1111YOPC   C2B14812   3.921  13.488   6.826  0.3177  0.2039 -0.4608
 1111YOPC   D3B14813   3.572  13.502   7.160 -0.1472  0.1590 -0.3415
 1111YOPC   C4B14814   3.114  13.350   7.376 -0.4567 -0.1625  0.1668
 1112YOPC   NC314815  17.007   1.679   5.709  0.1963 -0.1833  0.0936
 1112YOPC   PO414816  16.685   1.207   5.742 -0.0097  0.1005 -0.0830
 1112YOPC   GL114817  16.624   0.936   6.144  0.1907  0.0167 -0.0071
 1112YOPC   GL214818  16.592   0.522   6.076  0.0829 -0.3017  0.1197
 1112YOPC   C1A14819  16.815   1.057   6.528  0.0025  0.1419 -0.0457
 1112YOPC   D2A14820  16.630   1.121   6.976  0.1728 -0.1768 -0.0178
 1112YOPC   C3A14821  16.614   0.873   7.304 -0.2420  0.1493 -0.1435
 1112YOPC   C4A14822  17.009   0.769   7.566 -0.1006 -0.1578 -0.0678
 1112YOPC   C1B14823  16.816   0.568   6.443 -0.1563  0.2347 -0.0373
 1112YOPC   C2B14824  16.951   0.663   6.831  0.1150 -0.0054 -0.0354
 1112YOPC   D3B14825  16.876   0.458   7.203 -0.0524  0.0926  0.0390
 1112YOPC   C4B14826  16.580   0.462   7.625  0.0780  0.2536  0.2287
 1113YOPC   NC314827  17.725   9.866   5.551 -0.1952  0.1389 -0.4089
 1113YOPC   PO414828  17.490   9.684   5.849  0.1041 -0.1042  0.1087
 1113YOPC   GL114829  17.403   9.471   6.268 -0.2716 -0.2956  0.1072
 1113YOPC   GL214830  17.141   9.555   6.457  0.2460  0.2022 -0.1547
 1113YOPC   C1A14831  17.601   9.581   6.748  0.0555 -0.0627  0.1449
 1113YOPC   D2A14832  17.726   9.914   6.960  0.2749  0.0062  0.0393
 1113YOPC   C3A14833  17.549  10.021   7.364 -0.0575 -0.0387 -0.0493
 1113YOPC   C4A14834  17.177  10.037   7.729 -0.2059  0.0894  0.0298
 1113YOPC   C1B14835  17.091   9.280   6.853  0.0413 -0.2028  0.1931
 1113YOPC   C2B14836  16.890   9.415   7.185 -0.5019  0.0537 -0.0908
 1113YOPC   D3B14837  17.102   9.381   7.532  0.0932  0.2793  0.1820
 1113YOPC   C4B14838  17.281   9.603   7.817  0.2211  0.1190 -0.2011
 1114YOPC   NC314839  15.160  16.492   5.628  0.2097  0.3572 -0.1773
 1114YOPC   PO414840  15.552  16.306   5.575 -0.4389  0.1775 -0.0231
 1114YOPC   GL114841  15.603  16.209   5.998  0.0060  0.2148 -0.3257
 1114YOPC   GL214842  15.332  16.239   6.176  0.0488  0.1191  0.1405
 1114YOPC   C1A14843  16.010  16.257   6.244 -0.0742  0.0579 -0.0618
 1114YOPC   D2A14844  16.146  16.086   6.653 -0.3594 -0.1537  0.0428
 1114YOPC   C3A14845  16.032  16.365   6.999  0.0327  0.1255  0.0542
 1114YOPC   C4A14846  15.822  16.647   7.277 -0.0796 -0.1908  0.0858
 1114YOPC   C1B14847  15.084  16.233   6.495  0.1048  0.1393  0.1700
 1114YOPC   C2B14848  14.790  16.232   6.840 -0.0370  0.0630  0.2424
 1114YOPC   D3B14849  14.712  15.921   7.102  0.1897  0.0329 -0.0230
 1114YOPC   C4B14850  14.650  15.806   7.456  0.0621 -0.0494 -0.1067
 1115YOPC   NC314851   2.950  17.746   5.916  0.0701  0.2391  0.1873
 1115YOPC   PO414852   2.707  18.060   5.839 -0.1259  0.1699  0.0775
 1115YOPC   GL114853   2.695  18.073   6.297 -0.0800  0.0909  0.1334
 1115YOPC   GL214854   2.628  18.135   6.560  0.0310 -0.1838  0.1333
 1115YOPC   C1A14855   2.863  17.736   6.791  0.2037 -0.0536  0.0543
 1115YOPC   D2A14856   3.065  17.868   7.098 -0.1573 -0.0731 -0.1362
 1115YOPC   C3A14857   3.176  18.053   7.459 -0.0398 -0.0071 -0.2091
 1115YOPC   C4A14858   3.108  18.287   7.852 -0.1803  0.1181 -0.2256
 1115YOPC   C1B14859   2.360  18.352   6.836  0.2971 -0.3600 -0.0096
 1115YOPC   C2B14860   2.213  18.354   7.270  0.2661 -0.1720 -0.0342
 1115YOPC   D3B14861   2.052  18.661   7.503 -0.0698  0.0136 -0.1462
 1115YOPC   C4B14862   2.090  18.995   7.621 -0.0557  0.1893 -0.2261
 1116YOPC   NC314863   1.678  11.268   5.780 -0.0375  0.0026  0.3475
 1116YOPC   PO414864   1.692  11.741   5.836 -0.2808 -0.4580  0.1949
 1116YOPC   GL114865   2.059  11.941   6.054  0.0450  0.1180 -0.1302
 1116YOPC   GL214866   2.356  11.763   6.040  0.1000 -0.3651 -0.1520
 1116YOPC   C1A14867   2.239  12.149   6.352  0.5214 -0.0582  0.0763
 1116YOPC   D2A14868   2.121  12.145   6.779 -0.3986 -0.3471 -0.4670
 1116YOPC   C3A14869   2.157  11.910   7.068 -0.1484 -0.1170  0.2566
 1116YOPC   C4A14870   2.398  11.739   7.357 -0.0443  0.1789  0.0975
 1116YOPC   C1B14871   2.190  11.617   6.465  0.0756  0.1446 -0.3248
 1116YOPC   C2B14872   2.017  11.406   6.818 -0.1509  0.0176 -0.0639
 1116YOPC   D3B14873   1.917  11.565   7.292 -0.0352  0.1469  0.1604
 1116YOPC   C4B14874   1.742  11.411   7.588  0.0677  0.0217 -0.2462
 1117YOPC   NC314875  10.659  16.617   5.557  0.2894 -0.0013 -0.2180
 1117YOPC   PO414876  10.189  16.365   5.414 -0.5460  0.3058 -0.0169
 1117YOPC   GL114877   9.899  16.413   5.739  0.0318  0.0572  0.1567
 1117YOPC   GL214878  10.001  16.163   5.881  0.4067  0.0680  0.0475
 1117YOPC   C1A14879   9.473  16.609   5.892  0.1813 -0.3750 -0.1773
 1117YOPC   D2A14880   9.183  16.553   5.982 -0.2154 -0.0640 -0.1441
 1117YOPC   C3A14881   9.261  16.582   6.415 -0.4031  0.3012 -0.2200
 1117YOPC   C4A14882   9.320  16.983   6.553  0.3331  0.0330 -0.2587
 1117YOPC   C1B14883  10.204  16.030   6.290 -0.1633 -0.2763 -0.2394
 1117YOPC   C2B14884  10.179  15.977   6.785 -0.1823  0.1377  0.0393
 1117YOPC   D3B14885  10.215  15.593   6.807  0.6242 -0.0038  0.1871
 1117YOPC   C4B14886  10.016  15.208   6.636  0.1958  0.2655  0.1179
 1118YOPC   NC314887   9.698   9.871   5.115  0.0390 -0.0071  0.2948
 1118YOPC   PO414888   9.382  10.206   5.347  0.2234 -0.1990  0.2467
 1118YOPC   GL114889   9.234   9.885   5.756 -0.1613 -0.3657 -0.1174
 1118YOPC   GL214890   9.123   9.573   5.769 -0.1253 -0.1017 -0.1936
 1118YOPC   C1A14891   8.888  10.056   6.107 -0.2359  0.1477 -0.1976
 1118YOPC   D2A14892   8.708  10.028   6.598  0.1038 -0.0922 -0.2510
 1118YOPC   C3A14893   8.869  10.301   6.947  0.1783  0.0748  0.0729
 1118YOPC   C4A14894   8.925  10.591   7.416 -0.0802 -0.0445  0.0913
 1118YOPC   C1B14895   9.233   9.603   6.184 -0.0176  0.1191  0.1129
 1118YOPC   C2B14896   9.638   9.731   6.365  0.1613 -0.1225  0.2439
 1118YOPC   D3B14897   9.845   9.349   6.629 -0.0217 -0.3345  0.3017
 1118YOPC   C4B14898   9.914   8.943   6.381 -0.2183 -0.1301 -0.1160
 1119YOPC   NC314899  14.622  10.654   6.246 -0.1777  0.3630 -0.2286
 1119YOPC   PO414900  14.800  10.354   6.296  0.1636 -0.0947  0.1833
 1119YOPC   GL114901  14.696  10.308   6.678 -0.2302  0.1052  0.1080
 1119YOPC   GL214902  14.663  10.586   6.821  0.0988  0.0622 -0.1292
 1119YOPC   C1A14903  14.656  10.079   6.959 -0.3138 -0.0454 -0.1369
 1119YOPC   D2A14904  14.579   9.922   7.329  0.1523  0.0182  0.1285
 1119YOPC   C3A14905  14.761   9.964   7.627 -0.0289  0.1727  0.2617
 1119YOPC   C4A14906  15.034  10.007   7.926 -0.0024  0.1662  0.0080
 1119YOPC   C1B14907  14.526  10.503   7.251  0.2117 -0.2926 -0.0215
 1119YOPC   C2B14908  14.308  10.491   7.691 -0.0835  0.0082 -0.2098
 1119YOPC   D3B14909  14.392  10.653   8.096 -0.0348  0.2906 -0.0059
 1119YOPC   C4B14910  14.668  10.925   8.285  0.1500  0.1127  0.1375
 1120YOPC   NC314911  15.396   0.809   5.839 -0.1146 -0.0355 -0.2807
 1120YOPC   PO414912  14.977   0.826   5.758  0.1335  0.1693 -0.1502
 1120YOPC   GL114913  14.890   0.669   6.150  0.2120 -0.1448 -0.2119
 1120YOPC   GL214914  15.117   0.842   6.328 -0.4076  0.1484 -0.0498
 1120YOPC   C1A14915  14.967   0.252   6.406  0.0816 -0.0160  0.0431
 1120YOPC   D2A14916  14.814   0.016   6.761 -0.2476 -0.0724 -0.1338
 1120YOPC   C3A14917  14.921   0.212   7.233 -0.1069 -0.1231  0.0592
 1120YOPC   C4A14918  14.937   0.565   7.389  0.1935  0.0494  0.1543
 1120YOPC   C1B14919  15.317   0.560   6.608 -0.2482 -0.2733  0.0278
 1120YOPC   C2B14920  15.336   0.310   6.945 -0.0310  0.3433  0.1136
 1120YOPC   D3B14921  15.452   0.311   7.453  0.1724 -0.3159 -0.0291
 1120YOPC   C4B14922  15.571   0.375   7.836 -0.0365  0.2503  0.1703
 1121YOPC   NC314923   6.557  16.207   4.885  0.0889  0.0833  0.3150
 1121YOPC   PO414924   6.148  16.386   5.094 -0.1058  0.2975  0.1038
 1121YOPC   GL114925   6.139  16.452   5.679  0.1147 -0.2078  0.1252
 1121YOPC   GL214926   6.118  16.841   5.754 -0.0042 -0.1084 -0.1443
 1121YOPC   C1A14927   6.399  16.531   6.037  0.4333  0.1993  0.0468
 1121YOPC   D2A14928   6.623  16.648   6.493 -0.1628  0.0983  0.2415
 1121YOPC   C3A14929   6.773  16.630   6.910 -0.1841 -0.4189  0.0469
 1121YOPC   C4A14930   6.578  16.491   7.203  0.0906 -0.0672 -0.0135
 1121YOPC   C1B14931   6.008  16.825   6.084  0.2764  0.1337 -0.4308
 1121YOPC   C2B14932   6.207  16.868   6.454 -0.0003  0.1687  0.0818
 1121YOPC   D3B14933   6.291  16.730   6.884  0.0404  0.2307 -0.2669
 1121YOPC   C4B14934   6.126  16.361   7.163  0.0365 -0.3158  0.4298
 1122YOPC   NC314935   5.798  17.864   5.682  0.0682 -0.0987  0.0499
 1122YOPC   PO414936   6.229  17.632   5.793 -0.2452  0.0720 -0.0450
 1122YOPC   GL114937   6.262  17.875   6.241 -0.4859 -0.1820  0.1431
 1122YOPC   GL214938   6.542  18.098   6.278  0.2345  0.0227 -0.0092
 1122YOPC   C1A14939   6.393  17.783   6.695 -0.1478 -0.2338  0.3452
 1122YOPC   D2A14940   6.531  17.626   7.006 -0.1572 -0.0219  0.2560
 1122YOPC   C3A14941   6.948  17.658   7.033 -0.1236 -0.0104  0.1258
 1122YOPC   C4A14942   7.054  17.403   7.357 -0.4615 -0.3139  0.0967
 1122YOPC   C1B14943   6.824  18.118   6.621  0.3047 -0.0212 -0.1279
 1122YOPC   C2B14944   6.714  18.081   7.077 -0.0590 -0.1475  0.0933
 1122YOPC   D3B14945   6.433  18.023   7.417  0.2179  0.1994  0.2975
 1122YOPC   C4B14946   6.460  17.799   7.798  0.0382  0.0776 -0.4218
 1123YOPC   NC314947   4.949   0.564   5.839  0.0976  0.1050  0.2528
 1123YOPC   PO414948   4.662   0.949   6.082 -0.1133  0.2295 -0.1678
 1123YOPC   GL114949   4.650   0.924   6.504  0.1553 -0.1225  0.2303
 1123YOPC   GL214950   4.736   1.379   6.525  0.2154  0.1733  0.1138
 1123YOPC   C1A14951   4.721   0.674   6.975 -0.1106 -0.0627 -0.0298
 1123YOPC   D2A14952   4.731   0.488   7.344  0.3383  0.2472 -0.0829
 1123YOPC   C3A14953   5.064   0.483   7.715  0.0848 -0.0838 -0.0111
 1123YOPC   C4A14954   5.021   0.261   8.093 -0.1536 -0.0233 -0.0998
 1123YOPC   C1B14955   4.364   1.329   6.756 -0.1730 -0.1809  0.1741
 1123YOPC   C2B14956   4.313   0.999   7.138 -0.1096 -0.2201 -0.2808
 1123YOPC   D3B14957   4.609   0.922   7.447 -0.2186 -0.2660  0.0523
 1123YOPC   C4B14958   4.602   0.742   7.846 -0.2151 -0.1891  0.3078
 1124YOPC   NC314959  13.006   9.802   5.983  0.0949 -0.1160  0.1392
 1124YOPC   PO414960  12.873  10.131   6.247 -0.0166 -0.3230  0.0489
 1124YOPC   GL114961  12.530  10.077   6.523 -0.1125 -0.0645  0.1548
 1124YOPC   GL214962  12.318   9.955   6.448  0.2448  0.0699 -0.0237
 1124YOPC   C1A14963  12.308  10.096   6.957 -0.1372 -0.2220  0.1034
 1124YOPC   D2A14964  12.305  10.125   7.429  0.0233  0.0561 -0.0703
 1124YOPC   C3A14965  12.478  10.120   7.812  0.2589 -0.0152 -0.6094
 1124YOPC   C4A14966  12.664   9.855   8.046  0.4441 -0.1146 -0.0315
 1124YOPC   C1B14967  12.328   9.654   6.708  0.4405 -0.0216  0.0701
 1124YOPC   C2B14968  12.188   9.607   7.079 -0.4043 -0.0768  0.0904
 1124YOPC   D3B14969  12.223   9.261   7.286  0.1077  0.2048 -0.0050
 1124YOPC   C4B14970  12.252   9.156   7.668  0.2085  0.0295  0.0914
 1125YOPC   NC314971  15.880  13.398   5.556  0.2454  0.1261 -0.1917
 1125YOPC   PO414972  15.601  13.114   5.764 -0.0294 -0.0899 -0.0688
 1125YOPC   GL114973  15.753  13.322   6.144  0.0352 -0.2287 -0.1771
 1125YOPC   GL214974  15.674  13.027   6.318  0.0006 -0.2144  0.0758
 1125YOPC   C1A14975  15.824  13.463   6.538 -0.0928  0.1390 -0.3664
 1125YOPC   D2A14976  15.953  13.766   6.719  0.0531 -0.1923  0.0530
 1125YOPC   C3A14977  16.351  13.506   6.743 -0.1053  0.0304  0.2546
 1125YOPC   C4A14978  16.873  13.421   6.887 -0.0145 -0.1308  0.0256
 1125YOPC   C1B14979  15.573  13.030   6.775 -0.1496  0.0959  0.0337
 1125YOPC   C2B14980  15.619  13.058   7.203  0.1591  0.0074 -0.0570
 1125YOPC   D3B14981  15.431  12.978   7.537 -0.0292 -0.2682 -0.1435
 1125YOPC   C4B14982  15.207  12.708   7.749  0.1358  0.2614  0.1029
 1126YOPC   NC314983   9.785   0.065   5.475 -0.5400 -0.2646 -0.2134
 1126YOPC   PO414984  10.009   0.515   5.600  0.2142  0.0367 -0.0175
 1126YOPC   GL114985   9.644   0.429   5.766 -0.0241  0.0273 -0.4005
 1126YOPC   GL214986   9.333   0.550   5.895  0.1061  0.0475 -0.0616
 1126YOPC   C1A14987   9.619   0.253   6.238  0.2163 -0.4207 -0.1881
 1126YOPC   D2A14988   9.719   0.239   6.667 -0.2857  0.1214 -0.0077
 1126YOPC   C3A14989   9.732   0.518   7.040 -0.1693  0.2819 -0.3333
 1126YOPC   C4A14990   9.932   0.872   6.896  0.2140  0.2000 -0.0555
 1126YOPC   C1B14991   9.163   0.884   6.085 -0.1058 -0.1647  0.0641
 1126YOPC   C2B14992   8.980   0.971   6.432 -0.1069  0.4335 -0.2577
 1126YOPC   D3B14993   8.951   1.054   6.946  0.1247  0.0474  0.3229
 1126YOPC   C4B14994   9.040   1.045   7.415  0.1456  0.0714 -0.1940
 1127YOPC   NC314995   7.927  10.560   5.166  0.0376  0.5438 -0.0387
 1127YOPC   PO414996   7.696  10.666   5.502  0.1254 -0.0068 -0.0414
 1127YOPC   GL114997   7.415  10.369   5.717  0.1482  0.3140  0.2840
 1127YOPC   GL214998   7.271  10.609   5.784  0.0854  0.2991 -0.0126
 1127YOPC   C1A14999   7.424   9.986   5.881  0.4204 -0.2092 -0.0084
 1127YOPC   D2A15000   7.569   9.676   6.226 -0.2741  0.0684 -0.3817
 1127YOPC   C3A15001   7.570   9.647   6.717 -0.1805  0.1860 -0.0280
 1127YOPC   C4A15002   7.572   9.512   7.163 -0.0147  0.5188  0.0396
 1127YOPC   C1B15003   7.491  10.545   6.185 -0.3090 -0.2347 -0.0243
 1127YOPC   C2B15004   7.616  10.153   6.380  0.1026  0.2090 -0.0767
 1127YOPC   D3B15005   7.467  10.175   6.762 -0.2464  0.4584 -0.1019
 1127YOPC   C4B15006   7.360  10.038   7.113 -0.0365 -0.0916 -0.3399
 1128YOPC   NC315007   6.103  14.232   5.679 -0.2464 -0.1185 -0.3214
 1128YOPC   PO415008   5.692  13.982   5.661  0.1385  0.3669  0.1621
 1128YOPC   GL115009   5.399  13.944   5.992 -0.2340  0.2904 -0.4615
 1128YOPC   GL215010   5.302  14.307   6.037 -0.2940 -0.1656 -0.1543
 1128YOPC   C1A15011   5.456  13.906   6.470  0.2365 -0.1087 -0.0524
 1128YOPC   D2A15012   5.615  13.968   6.915 -0.1533 -0.2248 -0.2984
 1128YOPC   C3A15013   5.927  14.048   7.237 -0.0278  0.0307  0.0098
 1128YOPC   C4A15014   6.255  14.059   7.553  0.0543  0.0563 -0.0669
 1128YOPC   C1B15015   5.583  14.375   6.368  0.2568 -0.0932  0.0959
 1128YOPC   C2B15016   5.721  14.532   6.778 -0.0372 -0.0718  0.0009
 1128YOPC   D3B15017   5.573  14.410   7.208  0.0754 -0.1353  0.0748
 1128YOPC   C4B15018   5.761  14.461   7.599 -0.2098  0.0134 -0.3442
 1129YOPC   NC315019   8.915  11.389   4.946 -0.2830 -0.0565  0.0480
 1129YOPC   PO415020   8.752  11.617   5.373 -0.3774  0.1579  0.2322
 1129YOPC   GL115021   8.437  11.765   5.659  0.0249  0.1689 -0.4123
 1129YOPC   GL215022   8.442  12.109   5.779  0.2101 -0.0036  0.4060
 1129YOPC   C1A15023   8.015  11.794   5.914  0.2936 -0.1367 -0.0472
 1129YOPC   D2A15024   7.612  11.478   6.093 -0.0917 -0.0837  0.1184
 1129YOPC   C3A15025   7.566  11.395   6.586  0.3675  0.3387 -0.0446
 1129YOPC   C4A15026   7.331  11.364   7.032 -0.1559 -0.1419 -0.0371
 1129YOPC   C1B15027   8.454  12.333   6.090  0.0597  0.3250  0.1380
 1129YOPC   C2B15028   8.087  12.288   6.355  0.1625  0.1299 -0.0520
 1129YOPC   D3B15029   8.062  11.813   6.410  0.0824  0.3537  0.0628
 1129YOPC   C4B15030   7.998  11.632   6.909 -0.1582 -0.2288 -0.2133
 1130YOPC   NC315031  18.391  15.589   5.629  0.0874  0.1502 -0.5090
 1130YOPC   PO415032  18.391  15.221   5.834 -0.0908  0.4273 -0.2610
 1130YOPC   GL115033  18.365  15.288   6.375  0.0839  0.0064 -0.1266
 1130YOPC   GL215034  18.067  15.068   6.523  0.0079 -0.3625  0.0162
 1130YOPC   C1A15035  18.504  15.377   6.794  0.0192  0.1758  0.0169
 1130YOPC   D2A15036  18.821  15.505   7.116  0.0385  0.1596 -0.2777
 1130YOPC   C3A15037  18.925  15.798   7.455  0.0145 -0.0097  0.0759
 1130YOPC   C4A15038  19.200  15.830   7.686  0.0743  0.2925  0.1922
 1130YOPC   C1B15039  18.189  14.915   6.965 -0.1181 -0.1722 -0.1968
 1130YOPC   C2B15040  18.175  14.898   7.414  0.0426  0.1742  0.1552
 1130YOPC   D3B15041  17.907  14.647   7.725 -0.0196  0.0845  0.1632
 1130YOPC   C4B15042  17.453  14.565   7.554 -0.0538 -0.1929  0.1102
 1131YOPC   NC315043   6.868  18.242   5.655 -0.4959 -0.3001  0.1210
 1131YOPC   PO415044   7.321  18.152   5.622 -0.1664 -0.6609  0.4798
 1131YOPC   GL115045   7.274  18.387   6.022 -0.1433  0.0567  0.1190
 1131YOPC   GL215046   7.075  18.152   6.099 -0.0629  0.0156 -0.0977
 1131YOPC   C1A15047   7.399  18.369   6.514 -0.0787  0.0097 -0.2453
 1131YOPC   D2A15048   7.553  18.177   6.846  0.1854  0.0258 -0.1931
 1131YOPC   C3A15049   7.657  17.793   6.825 -0.3353 -0.0649 -0.0185
 1131YOPC   C4A15050   7.792  17.390   6.504 -0.2763  0.0270 -0.1818
 1131YOPC   C1B15051   7.076  17.753   6.047  0.1028 -0.2208  0.0655
 1131YOPC   C2B15052   7.265  17.330   6.114  0.2156  0.3444 -0.3483
 1131YOPC   D3B15053   7.252  17.235   6.484  0.0840 -0.0316  0.0341
 1131YOPC   C4B15054   7.307  17.411   6.835 -0.1687  0.3603 -0.3792
 1132YOPC   NC315055   4.306   8.998   5.515 -0.1435 -0.0736  0.1744
 1132YOPC   PO415056   4.642   9.184   5.358  0.3816 -0.2084 -0.2040
 1132YOPC   GL115057   4.685   9.470   5.686 -0.0512 -0.0901 -0.0270
 1132YOPC   GL215058   5.031   9.449   5.772  0.0702  0.0428  0.0279
 1132YOPC   C1A15059   4.451   9.679   6.076 -0.0805 -0.2141 -0.2050
 1132YOPC   D2A15060   4.380   9.587   6.509 -0.1540 -0.1783 -0.0834
 1132YOPC   C3A15061   4.294   9.161   6.531 -0.1132  0.1498  0.0641
 1132YOPC   C4A15062   4.148   8.865   6.702  0.1525 -0.2640 -0.2627
 1132YOPC   C1B15063   5.255   9.639   6.204 -0.1518  0.1233 -0.1631
 1132YOPC   C2B15064   5.183   9.563   6.619 -0.0839 -0.1266 -0.1800
 1132YOPC   D3B15065   5.400   9.825   6.887  0.0072 -0.2257 -0.1067
 1132YOPC   C4B15066   5.642   9.800   7.311  0.1439 -0.3356 -0.2832
 1133YOPC   NC315067   2.899   3.295   5.304 -0.0023 -0.3162 -0.1686
 1133YOPC   PO415068   3.348   3.515   5.560  0.0390  0.0197 -0.0670
 1133YOPC   GL115069   3.547   3.367   5.876  0.1450 -0.1133 -0.0005
 1133YOPC   GL215070   3.358   3.145   5.977 -0.0591  0.1742 -0.1305
 1133YOPC   C1A15071   3.899   3.552   6.209 -0.0102 -0.4123 -0.1065
 1133YOPC   D2A15072   3.956   3.683   6.683  0.0367 -0.3380  0.0388
 1133YOPC   C3A15073   4.319   3.730   6.906  0.0219 -0.1995  0.0675
 1133YOPC   C4A15074   4.619   3.829   7.281 -0.0396  0.2152 -0.1781
 1133YOPC   C1B15075   3.436   3.271   6.428  0.1824 -0.1996  0.2169
 1133YOPC   C2B15076   3.556   3.428   6.861 -0.2902 -0.1361  0.2562
 1133YOPC   D3B15077   3.908   3.336   7.020  0.0940  0.1899 -0.1074
 1133YOPC   C4B15078   4.029   3.057   7.325  0.1764  0.1553 -0.4727
 1134YOPC   NC315079  16.635  17.576   5.726  0.3586 -0.0700  0.2233
 1134YOPC   PO415080  16.953  17.978   5.567 -0.0201  0.1394  0.0150
 1134YOPC   GL115081  16.993  17.884   6.072 -0.0215 -0.2296 -0.1996
 1134YOPC   GL215082  16.671  17.739   6.167 -0.2461  0.2461 -0.1626
 1134YOPC   C1A15083  17.122  18.171   6.440 -0.0213 -0.1762 -0.0668
 1134YOPC   D2A15084  17.111  18.497   6.811  0.0394 -0.0948  0.0517
 1134YOPC   C3A15085  17.266  18.339   7.201  0.0026  0.0893  0.1430
 1134YOPC   C4A15086  17.574  18.182   7.458 -0.0283 -0.2216 -0.0826
 1134YOPC   C1B15087  16.737  17.669   6.565  0.0220  0.0696  0.1269
 1134YOPC   C2B15088  16.906  17.344   6.850  0.2239  0.5044 -0.3345
 1134YOPC   D3B15089  16.979  17.331   7.225 -0.1504  0.0744  0.1148
 1134YOPC   C4B15090  17.130  17.381   7.689  0.3257  0.2027 -0.2775
 1135YOPC   NC315091  17.879   6.608   5.740  0.2461  0.4387 -0.3232
 1135YOPC   PO415092  18.250   6.275   5.800 -0.1891  0.1249 -0.3070
 1135YOPC   GL115093  18.223   6.322   6.250  0.3004  0.0794  0.0308
 1135YOPC   GL215094  17.906   6.472   6.257 -0.0323 -0.0829 -0.1296
 1135YOPC   C1A15095  18.076   6.322   6.716  0.6317 -0.1001 -0.0012
 1135YOPC   D2A15096  18.047   6.507   7.158  0.0500 -0.0702 -0.1821
 1135YOPC   C3A15097  18.046   6.828   7.347 -0.0710  0.3502 -0.0872
 1135YOPC   C4A15098  18.111   6.898   7.679 -0.0860 -0.0960  0.1018
 1135YOPC   C1B15099  17.626   6.426   6.516 -0.1758 -0.1342  0.0642
 1135YOPC   C2B15100  17.395   6.481   6.851 -0.1359 -0.0442  0.0483
 1135YOPC   D3B15101  17.571   6.500   7.235  0.2290  0.0990 -0.0890
 1135YOPC   C4B15102  17.571   6.648   7.591 -0.1115 -0.2603  0.2910
 1136YOPC   NC315103   2.681  13.429   5.395 -0.2496 -0.0574 -0.0234
 1136YOPC   PO415104   2.819  13.389   5.810  0.0381  0.3255 -0.2659
 1136YOPC   GL115105   2.749  13.408   6.229  0.1601 -0.2729 -0.0598
 1136YOPC   GL215106   2.661  13.077   6.381 -0.1745 -0.3859  0.1295
 1136YOPC   C1A15107   3.031  13.434   6.455  0.0441  0.0005  0.0780
 1136YOPC   D2A15108   3.105  13.468   6.898  0.0517  0.1668  0.2672
 1136YOPC   C3A15109   2.799  13.670   7.051  0.0789  0.0221 -0.2805
 1136YOPC   C4A15110   2.920  13.982   7.420 -0.3151 -0.1447  0.2076
 1136YOPC   C1B15111   2.593  13.292   6.680  0.2436  0.0716 -0.0643
 1136YOPC   C2B15112   2.482  13.243   7.158  0.1043  0.0016 -0.2506
 1136YOPC   D3B15113   2.560  12.914   7.511 -0.2510 -0.1503 -0.1527
 1136YOPC   C4B15114   2.369  13.022   7.887 -0.3338 -0.3531 -0.1336
 1137YOPC   NC315115  11.052  18.400   5.721 -0.0291  0.0966  0.1800
 1137YOPC   PO415116  11.509  18.182   5.678  0.1359  0.1809 -0.1470
 1137YOPC   GL115117  11.545  17.913   5.993  0.0691  0.0560 -0.1910
 1137YOPC   GL215118  11.242  17.767   6.113 -0.1956  0.2916 -0.0587
 1137YOPC   C1A15119  11.680  17.821   6.434 -0.0777  0.0043  0.1756
 1137YOPC   D2A15120  11.966  17.929   6.795  0.3282  0.1262  0.0349
 1137YOPC   C3A15121  11.831  17.791   7.107  0.2438  0.1035  0.0715
 1137YOPC   C4A15122  11.720  17.854   7.495 -0.1788  0.3901 -0.0819
 1137YOPC   C1B15123  11.196  17.875   6.586  0.0679  0.1230 -0.0275
 1137YOPC   C2B15124  11.388  17.689   6.860  0.2090  0.0949 -0.0156
 1137YOPC   D3B15125  11.361  17.950   7.141  0.0913  0.0572  0.0381
 1137YOPC   C4B15126  11.288  18.284   7.344  0.1021  0.0151  0.0223
 1138YOPC   NC315127  12.103   4.753   5.691 -0.0556  0.1398 -0.2346
 1138YOPC   PO415128  11.762   5.097   5.685 -0.2482 -0.1316 -0.0024
 1138YOPC   GL115129  11.358   5.086   5.930  0.1261 -0.1794 -0.3099
 1138YOPC   GL215130  11.373   5.359   6.067  0.2755 -0.3533  0.0017
 1138YOPC   C1A15131  11.313   4.985   6.396  0.1904 -0.2659 -0.0556
 1138YOPC   D2A15132  11.471   4.790   6.786  0.0741  0.1105  0.1479
 1138YOPC   C3A15133  11.438   4.773   7.228 -0.1527 -0.0834 -0.1612
 1138YOPC   C4A15134  11.172   4.784   7.612 -0.3902  0.0520  0.2726
 1138YOPC   C1B15135  11.393   5.573   6.474 -0.1434  0.3227  0.2238
 1138YOPC   C2B15136  11.542   5.650   6.873  0.0266  0.0111  0.2496
 1138YOPC   D3B15137  11.936   5.830   6.934 -0.1165 -0.1648 -0.2815
 1138YOPC   C4B15138  12.232   5.685   7.145  0.3552 -0.1314  0.1688
 1139YOPC   NC315139  13.199   4.159   5.077 -0.0747 -0.2230 -0.2216
 1139YOPC   PO415140  13.176   3.979   5.596  0.0730 -0.1947 -0.2635
 1139YOPC   GL115141  13.512   4.122   5.903  0.1689  0.0521 -0.4387
 1139YOPC   GL215142  13.770   3.837   6.023 -0.4202  0.0481 -0.4033
 1139YOPC   C1A15143  13.820   4.427   6.288 -0.3345  0.1620  0.0483
 1139YOPC   D2A15144  13.828   4.399   6.674  0.3040 -0.2027  0.1657
 1139YOPC   C3A15145  13.464   4.126   6.873  0.0866  0.1495  0.1064
 1139YOPC   C4A15146  13.069   4.111   7.017 -0.0855  0.3214  0.0677
 1139YOPC   C1B15147  13.756   3.955   6.430  0.1231 -0.1352  0.0161
 1139YOPC   C2B15148  13.877   3.887   6.906  0.0553 -0.0062 -0.1067
 1139YOPC   D3B15149  13.777   4.187   7.293 -0.2843  0.3548  0.2261
 1139YOPC   C4B15150  13.310   4.283   7.490 -0.2044 -0.0663 -0.2721
 1140YOPC   NC315151   8.577   4.167   5.613  0.2552 -0.1085  0.3980
 1140YOPC   PO415152   8.431   3.878   5.858 -0.0637 -0.4586  0.0666
 1140YOPC   GL115153   8.394   3.642   6.227 -0.2491  0.1116 -0.1663
 1140YOPC   GL215154   8.657   3.731   6.401 -0.0135  0.0654 -0.0077
 1140YOPC   C1A15155   8.389   3.459   6.705 -0.2823 -0.1577 -0.1683
 1140YOPC   D2A15156   8.541   3.677   7.046  0.0655 -0.0438 -0.1065
 1140YOPC   C3A15157   8.419   3.491   7.519  0.1225 -0.2694 -0.1442
 1140YOPC   C4A15158   8.158   3.398   7.918  0.1497 -0.0359 -0.2809
 1140YOPC   C1B15159   8.871   3.950   6.677  0.0829  0.0881  0.2300
 1140YOPC   C2B15160   8.925   4.026   7.122  0.3354 -0.4997  0.0235
 1140YOPC   D3B15161   8.647   4.040   7.374  0.0270  0.0241  0.2195
 1140YOPC   C4B15162   8.416   3.911   7.779 -0.0934  0.0785 -0.5036
 1141YOPC   NC315163  18.391   9.413   5.396  0.2479  0.1752  0.0527
 1141YOPC   PO415164  18.226   9.031   5.469  0.0597 -0.1695  0.2602
 1141YOPC   GL115165  18.035   9.069   5.901  0.3376 -0.3861 -0.2263
 1141YOPC   GL215166  18.313   9.343   5.909 -0.0079 -0.1327 -0.1409
 1141YOPC   C1A15167  17.647   8.992   6.156 -0.0532  0.3983 -0.2686
 1141YOPC   D2A15168  17.496   9.095   6.641 -0.4432 -0.0779 -0.0503
 1141YOPC   C3A15169  17.815   9.118   6.945  0.3395  0.2662 -0.0671
 1141YOPC   C4A15170  18.065   9.516   7.024  0.0154 -0.0080  0.0746
 1141YOPC   C1B15171  18.524   9.591   6.296 -0.2040 -0.2162  0.3374
 1141YOPC   C2B15172  18.539   9.688   6.720  0.0156 -0.1521 -0.1977
 1141YOPC   D3B15173  18.504   9.277   6.913 -0.1006 -0.2277 -0.1371
 1141YOPC   C4B15174  18.255   8.821   7.007  0.0263 -0.4372 -0.1604
 1142YOPC   NC315175  15.237   8.212   5.480 -0.0652  0.1420  0.2763
 1142YOPC   PO415176  15.301   8.558   5.410 -0.0336 -0.1236  0.3692
 1142YOPC   GL115177  15.334   8.454   5.886 -0.1664 -0.1914 -0.2141
 1142YOPC   GL215178  15.326   8.807   6.154 -0.1390 -0.2727  0.1319
 1142YOPC   C1A15179  15.265   8.233   6.340  0.1572 -0.0601  0.3747
 1142YOPC   D2A15180  15.304   7.847   6.536  0.1653  0.0701 -0.1710
 1142YOPC   C3A15181  14.975   7.644   6.774  0.2763 -0.0224 -0.2285
 1142YOPC   C4A15182  14.632   7.392   7.089 -0.1636  0.0685 -0.1963
 1142YOPC   C1B15183  15.421   8.782   6.482  0.0025 -0.2055  0.0244
 1142YOPC   C2B15184  15.578   8.690   6.942 -0.2707  0.2434 -0.0336
 1142YOPC   D3B15185  15.535   8.744   7.361 -0.0938  0.2236 -0.2826
 1142YOPC   C4B15186  15.621   8.887   7.760  0.2458  0.6204 -0.2288
 1143YOPC   NC315187   1.543   8.507   5.236 -0.2069 -0.1214 -0.0969
 1143YOPC   PO415188   1.265   8.449   5.581 -0.2821  0.0908 -0.0683
 1143YOPC   GL115189   1.393   8.198   5.969  0.0240  0.0611  0.2604
 1143YOPC   GL215190   1.384   8.414   6.161 -0.0000 -0.5535  0.0778
 1143YOPC   C1A15191   1.380   7.892   6.129  0.1003 -0.0799 -0.0041
 1143YOPC   D2A15192   1.476   7.730   6.604  0.0215 -0.1805  0.1476
 1143YOPC   C3A15193   1.813   7.539   6.877  0.2033  0.0671 -0.2095
 1143YOPC   C4A15194   2.267   7.439   6.854  0.2976 -0.0082  0.5148
 1143YOPC   C1B15195   1.162   8.230   6.473 -0.0734  0.0419 -0.0944
 1143YOPC   C2B15196   1.214   8.078   6.837  0.0030 -0.0461  0.2294
 1143YOPC   D3B15197   1.223   7.761   7.086 -0.3506 -0.1656  0.0259
 1143YOPC   C4B15198   1.217   7.404   7.491  0.2736  0.3581 -0.1336
 1144ERGO   ROH15199   0.021  12.115   6.663  0.1191  0.1768 -0.3386
 1144ERGO    R115200   0.280  12.211   6.727  0.1265  0.0385 -0.1516
 1144ERGO    R215201   0.322  12.423   6.899  0.1102  0.0632 -0.1795
 1144ERGO    R315202   0.483  12.245   7.027 -0.1009  0.0022  0.0096
 1144ERGO    R415203   0.492  12.487   7.193  0.1691  0.1697 -0.2360
 1144ERGO    R515204   0.663  12.379   7.111  0.0519 -0.1153 -0.1205
 1144ERGO    C115205   0.742  12.358   7.484  0.0053  0.1744 -0.0914
 1144ERGO    C215206   0.865  12.362   7.851 -0.0421 -0.1520 -0.1577
 1145ERGO   ROH15207  15.803  12.493   6.374 -0.1447  0.2602  0.0297
 1145ERGO    R115208  15.816  12.471   6.656  0.0238  0.1824  0.0167
 1145ERGO    R215209  16.050  12.511   6.797  0.0897  0.2298 -0.1046
 1145ERGO    R315210  15.898  12.690   6.935  0.0984  0.1321  0.0346
 1145ERGO    R415211  16.118  12.623   7.117  0.0400 -0.0958  0.0243
 1145ERGO    R515212  15.905  12.612   7.161  0.0270 -0.0905 -0.0374
 1145ERGO    C115213  16.015  12.857   7.432  0.0194 -0.3771  0.2301
 1145ERGO    C215214  16.267  12.914   7.668 -0.1678 -0.0598  0.1138
 1146ERGO   ROH15215   3.695  18.678   6.603  0.0829  0.0642  0.1792
 1146ERGO    R115216   3.716  18.727   6.881  0.1875  0.2491  0.1391
 1146ERGO    R215217   3.833  18.956   6.983 -0.1246  0.5033 -0.0655
 1146ERGO    R315218   3.596  18.979   7.114 -0.0805  0.1786  0.0826
 1146ERGO    R415219   3.799  19.053   7.313 -0.0381  0.2900  0.0080
 1146ERGO    R515220   3.643  18.902   7.336  0.1321  0.1058  0.0173
 1146ERGO    C115221   3.557  19.130   7.628  0.0536 -0.1391  0.1898
 1146ERGO    C215222   3.674  19.236   7.868 -0.3169  0.0173 -0.0341
 1147ERGO   ROH15223  10.380  10.327   6.196  0.0013  0.1507 -0.0374
 1147ERGO    R115224  10.177  10.448   6.352  0.0843  0.1963  0.0362
 1147ERGO    R215225   9.984  10.302   6.484 -0.0511  0.2482 -0.0976
 1147ERGO    R315226  10.073  10.442   6.700  0.0451  0.0086  0.0217
 1147ERGO    R415227   9.796  10.368   6.766 -0.1141  0.4067 -0.1758
 1147ERGO    R515228   9.882  10.569   6.770  0.1999  0.2753 -0.0302
 1147ERGO    C115229   9.769  10.538   7.133 -0.0605  0.2740 -0.1093
 1147ERGO    C215230   9.791  10.659   7.407  0.2168 -0.0728 -0.0230
 1148ERGO   ROH15231   2.728  18.639   6.526 -0.0290  0.0380 -0.1079
 1148ERGO    R115232   2.744  18.768   6.777  0.0409 -0.0548 -0.0648
 1148ERGO    R215233   2.519  18.846   6.919  0.0826 -0.0509 -0.0036
 1148ERGO    R315234   2.632  18.698   7.117  0.0773 -0.1474 -0.0713
 1148ERGO    R415235   2.486  18.911   7.256  0.0928 -0.2003  0.0272
 1148ERGO    R515236   2.697  18.859   7.282  0.0907 -0.2249  0.0004
 1148ERGO    C115237   2.573  18.809   7.639  0.0938 -0.3780 -0.0184
 1148ERGO    C215238   2.482  18.984   7.971  0.3584  0.2334  0.0672
 1149ERGO   ROH15239  11.599  10.312   6.607  0.1597  0.1275  0.0689
 1149ERGO    R115240  11.401  10.369   6.801  0.0761  0.2291 -0.0437
 1149ERGO    R215241  11.374  10.222   7.034 -0.2315  0.1435 -0.1256
 1149ERGO    R315242  11.395  10.466   7.152 -0.0733  0.0708 -0.0018
 1149ERGO    R415243  11.263  10.298   7.352 -0.2315  0.0690 -0.1085
 1149ERGO    R515244  11.192  10.490   7.277 -0.0773  0.1583 -0.0270
 1149ERGO    C115245  11.218  10.572   7.648 -0.0829 -0.0426  0.0176
 1149ERGO    C215246  11.349  10.883   7.860  0.3046  0.0869  0.0225
 1150ERGO   ROH15247  16.811  18.330   5.962 -0.0454 -0.0427 -0.0101
 1150ERGO    R115248  16.646  18.353   6.191 -0.0796  0.0031 -0.0391
 1150ERGO    R215249  16.637  18.160   6.388 -0.1984 -0.0136 -0.0600
 1150ERGO    R315250  16.694  18.369   6.552 -0.1415 -0.0542 -0.0281
 1150ERGO    R415251  16.678  18.136   6.730 -0.1954 -0.0788 -0.0648
 1150ERGO    R515252  16.569  18.324   6.751 -0.1476 -0.0547 -0.0321
 1150ERGO    C115253  16.756  18.319   7.084 -0.1404 -0.1550 -0.0376
 1150ERGO    C215254  16.807  18.228   7.426 -0.3375 -0.2176 -0.0071
 1151ERGO   ROH15255  13.924  14.372   6.187 -0.2656  0.0493  0.0398
 1151ERGO    R115256  13.808  14.303   6.436 -0.1075  0.1734  0.1506
 1151ERGO    R215257  13.748  14.042   6.505 -0.4342  0.2418  0.1538
 1151ERGO    R315258  13.900  14.099   6.723 -0.1048 -0.0324  0.0046
 1151ERGO    R415259  13.697  13.912   6.821 -0.3195  0.2990  0.1962
 1151ERGO    R515260  13.743  14.108   6.904  0.0980  0.2152  0.1722
 1151ERGO    C115261  13.810  13.889   7.209  0.0564  0.0748  0.0808
 1151ERGO    C215262  13.621  13.796   7.428 -0.2157  0.0644  0.1922
 1152ERGO   ROH15263   7.744  18.495   6.192  0.0204  0.0667  0.0544
 1152ERGO    R115264   7.953  18.376   6.342  0.0787 -0.0796 -0.1393
 1152ERGO    R215265   7.935  18.330   6.614  0.3123 -0.0316 -0.1131
 1152ERGO    R315266   7.997  18.076   6.542  0.0420 -0.0913 -0.1488
 1152ERGO    R415267   8.065  18.092   6.827  0.2828 -0.1287 -0.2028
 1152ERGO    R515268   8.196  18.027   6.666  0.1012 -0.2509 -0.3042
 1152ERGO    C115269   8.200  17.714   6.884  0.0118 -0.2413 -0.2885
 1152ERGO    C215270   8.166  17.517   7.139 -0.0640 -0.0929  0.3242
 1153ERGO   ROH15271   9.916   6.070   6.594  0.1036 -0.0294  0.0402
 1153ERGO    R115272   9.755   6.293   6.660  0.0923 -0.0495  0.0852
 1153ERGO    R215273   9.494   6.267   6.749  0.0385 -0.0739 -0.0639
 1153ERGO    R315274   9.585   6.418   6.957 -0.0491 -0.2057  0.0705
 1153ERGO    R415275   9.296   6.468   6.948  0.0113  0.0999 -0.2650
 1153ERGO    R515276   9.454   6.618   6.946  0.1737 -0.0658 -0.0515
 1153ERGO    C115277   9.265   6.727   7.259 -0.0869  0.0775 -0.2559
 1153ERGO    C215278   9.026   6.816   7.456 -0.0961 -0.1874 -0.2192
 1154ERGO   ROH15279  16.545   1.544   6.623  0.0011 -0.1079  0.0373
 1154ERGO    R115280  16.482   1.575   6.897 -0.1855  0.0526 -0.0225
 1154ERGO    R215281  16.675   1.587   7.094 -0.3282 -0.0811  0.1237
 1154ERGO    R315282  16.550   1.819   7.158 -0.1400  0.0745 -0.0532
 1154ERGO    R415283  16.755   1.786   7.365 -0.4522 -0.1785  0.2340
 1154ERGO    R515284  16.541   1.819   7.397 -0.4680  0.0794 -0.0573
 1154ERGO    C115285  16.683   2.120   7.583 -0.3480 -0.0891  0.1322
 1154ERGO    C215286  16.777   2.178   7.841 -0.0955 -0.4058  0.0932
 1155ERGO   ROH15287  18.713   9.137   6.203 -0.1436 -0.0221  0.1599
 1155ERGO    R115288  18.737   9.135   6.485 -0.0403 -0.0829  0.1506
 1155ERGO    R215289  18.674   8.914   6.638  0.0740 -0.1317  0.1186
 1155ERGO    R315290  18.926   8.948   6.734  0.0985 -0.0914  0.0422
 1155ERGO    R415291  18.780   8.821   6.954  0.1876 -0.1786  0.0679
 1155ERGO    R515292  18.895   9.006   6.964  0.1506 -0.1467  0.0690
 1155ERGO    C115293  19.078   8.800   7.228  0.2765 -0.1680 -0.0333
 1155ERGO    C215294  19.034   8.600   7.503 -0.2677 -0.0567  0.0428
 1156ERGO   ROH15295  12.613  12.447   6.321 -0.0361 -0.0261 -0.0364
 1156ERGO    R115296  12.515  12.365   6.574 -0.2832  0.1287 -0.0787
 1156ERGO    R215297  12.683  12.288   6.780 -0.4977 -0.2503 -0.0429
 1156ERGO    R315298  12.547  12.478   6.918 -0.1543  0.0112 -0.0490
 1156ERGO    R415299  12.672  12.312   7.124 -0.5708 -0.3258 -0.0393
 1156ERGO    R515300  12.460  12.362   7.109 -0.4741  0.1291 -0.1098
 1156ERGO    C115301  12.537  12.504   7.455 -0.2911 -0.1241 -0.0431
 1156ERGO    C215302  12.756  12.680   7.704 -0.1480  0.3628 -0.2746
 1157ERGO   ROH15303  14.224  10.326   6.425  0.2658  0.1674  0.0484
 1157ERGO    R115304  14.254  10.251   6.696  0.2558  0.3105  0.0898
 1157ERGO    R215305  14.128  10.385   6.902 -0.1588  0.1196 -0.0274
 1157ERGO    R315306  14.035  10.138   6.965  0.3152 -0.0656 -0.0139
 1157ERGO    R415307  14.042  10.281   7.220 -0.1735  0.0503 -0.0540
 1157ERGO    R515308  14.135  10.088   7.177  0.2706  0.2201  0.0783
 1157ERGO    C115309  13.904   9.988   7.464  0.2631 -0.1639 -0.0569
 1157ERGO    C215310  13.714  10.041   7.657  0.3928  0.0144 -0.1382
 1158ERGO   ROH15311  12.324   5.655   5.998  0.0319 -0.2148  0.0623
 1158ERGO    R115312  12.530   5.609   6.187  0.1532 -0.1783 -0.0586
 1158ERGO    R215313  12.789   5.700   6.150  0.0593  0.0949 -0.0941
 1158ERGO    R315314  12.749   5.814   6.393  0.0462 -0.1383  0.0153
 1158ERGO    R415315  13.037   5.761   6.382  0.1405  0.3746 -0.2506
 1158ERGO    R515316  12.899   5.698   6.539  0.3705  0.0233 -0.1806
 1158ERGO    C115317  13.144   5.904   6.746  0.1754  0.3186 -0.2390
 1158ERGO    C215318  13.329   6.053   6.938  0.1549  0.2156  0.2528
 1159ERGO   ROH15319  14.656  13.369   6.466 -0.1983 -0.0564  0.0052
 1159ERGO    R115320  14.557  13.392   6.730 -0.2539 -0.0183 -0.0194
 1159ERGO    R215321  14.430  13.184   6.860 -0.0957 -0.0643  0.0575
 1159ERGO    R315322  14.618  13.232   7.051 -0.1628  0.1812  0.0654
 1159ERGO    R415323  14.381  13.141   7.199  0.0349 -0.4550  0.0320
 1159ERGO    R515324  14.493  13.325   7.233 -0.3477 -0.2305  0.1640
 1159ERGO    C115325  14.528  13.161   7.576  0.0480 -0.4520  0.0246
 1159ERGO    C215326  14.811  13.037   7.817  0.0315  0.0524  0.0643
 1160ERGO   ROH15327  15.378   2.276   6.270 -0.1044 -0.0790  0.1432
 1160ERGO    R115328  15.220   2.288   6.504 -0.1194 -0.1258  0.1365
 1160ERGO    R215329  15.204   2.514   6.662 -0.1875 -0.1305  0.1431
 1160ERGO    R315330  14.937   2.484   6.622 -0.1760 -0.2019  0.1252
 1160ERGO    R415331  14.958   2.617   6.882 -0.2335 -0.1760  0.1120
 1160ERGO    R515332  14.850   2.433   6.839 -0.1819 -0.2049  0.1196
 1160ERGO    C115333  14.564   2.648   6.973 -0.2495 -0.2694  0.0771
 1160ERGO    C215334  14.206   2.640   7.081  0.3377 -0.0238 -0.0446
 1161ERGO   ROH15335   6.776  17.078   6.032  0.1389 -0.0245 -0.0110
 1161ERGO    R115336   6.793  17.203   6.285 -0.1058  0.0289 -0.0170
 1161ERGO    R215337   6.591  17.186   6.473 -0.1722 -0.1738 -0.0948
 1161ERGO    R315338   6.791  17.095   6.633 -0.1315  0.0658 -0.0076
 1161ERGO    R415339   6.566  17.143   6.815 -0.2497 -0.1737 -0.1013
 1161ERGO    R515340   6.768  17.222   6.835 -0.3498  0.0544 -0.0280
 1161ERGO    C115341   6.739  17.032   7.164 -0.2566  0.0512 -0.0232
 1161ERGO    C215342   6.996  16.777   7.332  0.0970 -0.0514 -0.1434
 1162ERGO   ROH15343   6.129   7.331   5.722  0.2366  0.1026  0.1912
 1162ERGO    R115344   6.133   7.275   6.000 -0.2302  0.1371  0.2133
 1162ERGO    R215345   5.910   7.186   6.138 -0.3426 -0.3681 -0.2599
 1162ERGO    R315346   6.077   6.984   6.212 -0.0211  0.0124  0.1029
 1162ERGO    R415347   5.858   6.973   6.405 -0.4246 -0.4515 -0.3420
 1162ERGO    R515348   6.070   6.986   6.451 -0.5237  0.0391  0.1012
 1162ERGO    C115349   5.983   6.661   6.630 -0.1704 -0.1429 -0.0494
 1162ERGO    C215350   6.068   6.497   6.839 -0.0896 -0.2852  0.2460
 1163ERGO   ROH15351   0.675  17.009   6.320 -0.0200  0.2001  0.0297
 1163ERGO    R115352   0.509  17.102   6.529  0.0317  0.0888  0.1219
 1163ERGO    R215353   0.234  17.111   6.507  0.0350  0.2792  0.1225
 1163ERGO    R315354   0.243  16.964   6.736 -0.0569  0.0364 -0.0261
 1163ERGO    R415355  -0.016  17.102   6.747  0.0364  0.1976  0.1207
 1163ERGO    R515356   0.139  17.104   6.900  0.0409 -0.0630  0.1205
 1163ERGO    C115357  -0.152  16.959   7.101 -0.0490 -0.0774 -0.0198
 1163ERGO    C215358  -0.320  16.779   7.286 -0.0118 -0.0093  0.0331
 1164ERGO   ROH15359  13.817   8.683   6.533 -0.0337 -0.1132  0.1768
 1164ERGO    R115360  13.978   8.564   6.734 -0.0366 -0.1508  0.1580
 1164ERGO    R215361  14.094   8.710   6.938  0.1446 -0.1546  0.0619
 1164ERGO    R315362  13.967   8.530   7.096  0.0795 -0.0094  0.1754
 1164ERGO    R415363  14.194   8.622   7.256  0.0930  0.0351  0.1312
 1164ERGO    R515364  14.143   8.415   7.210  0.0369  0.0174  0.2686
 1164ERGO    C115365  14.133   8.401   7.591  0.0020  0.2820  0.2780
 1164ERGO    C215366  14.015   8.554   7.879  0.1577  0.0067 -0.0618
 1165ERGO   ROH15367   2.810  12.000   6.174  0.2375 -0.0011 -0.0603
 1165ERGO    R115368   2.791  12.055   6.451  0.1988 -0.1292 -0.0346
 1165ERGO    R215369   2.645  11.898   6.625  0.1287 -0.1872 -0.1284
 1165ERGO    R315370   2.880  11.887   6.761  0.1074 -0.3020 -0.1049
 1165ERGO    R415371   2.674  11.824   6.961  0.0570  0.0171 -0.0775
 1165ERGO    R515372   2.828  11.978   6.976  0.1851 -0.1146 -0.1732
 1165ERGO    C115373   2.912  11.771   7.285 -0.0047  0.0283 -0.0258
 1165ERGO    C215374   3.017  11.565   7.459 -0.0589  0.2313 -0.2146
 1166ERGO   ROH15375  11.209  18.298   6.235 -0.0041 -0.1320  0.1110
 1166ERGO    R115376  11.406  18.243   6.432  0.1261 -0.0129  0.0168
 1166ERGO    R215377  11.572  18.439   6.535  0.0271  0.1013 -0.0296
 1166ERGO    R315378  11.475  18.351   6.773  0.1944 -0.0071  0.0001
 1166ERGO    R415379  11.747  18.442   6.833  0.0916  0.3418 -0.0674
 1166ERGO    R515380  11.662  18.247   6.879  0.3512  0.2374 -0.0331
 1166ERGO    C115381  11.757  18.361   7.230  0.2861  0.3800 -0.0616
 1166ERGO    C215382  11.950  18.394   7.437 -0.3311  0.0435  0.4303
 1167ERGO   ROH15383   8.160   9.625   5.848  0.0922  0.1471 -0.0720
 1167ERGO    R115384   8.156   9.648   6.130  0.2164  0.1126 -0.0682
 1167ERGO    R215385   8.257   9.868   6.263  0.0363  0.2125 -0.1025
 1167ERGO    R315386   8.010   9.873   6.376  0.0883 -0.0795  0.0353
 1167ERGO    R415387   8.189   9.976   6.584  0.0633  0.3758 -0.1497
 1167ERGO    R515388   8.048   9.811   6.604  0.3247  0.1642  0.0700
 1167ERGO    C115389   7.917  10.043   6.878  0.1278  0.1966 -0.0477
 1167ERGO    C215390   7.834  10.368   7.161  0.1061  0.0546 -0.1447
 1168ERGO   ROH15391   4.897   9.876   6.007 -0.3219  0.0448 -0.0723
 1168ERGO    R115392   4.817   9.975   6.260 -0.1426  0.0030  0.0021
 1168ERGO    R215393   4.805   9.814   6.486 -0.0321 -0.0458 -0.0279
 1168ERGO    R315394   4.966  10.006   6.591  0.0726 -0.1023 -0.0823
 1168ERGO    R415395   4.847   9.873   6.824  0.0902 -0.0515 -0.0415
 1168ERGO    R515396   4.845  10.087   6.782  0.1583 -0.0506 -0.0482
 1168ERGO    C115397   5.023  10.087   7.119  0.2597 -0.1079 -0.1006
 1168ERGO    C215398   5.025   9.949   7.298 -0.1633  0.0051 -0.0626
 1169ERGO   ROH15399  11.566   9.045   6.489 -0.3207 -0.0031  0.0639
 1169ERGO    R115400  11.537   8.988   6.765 -0.0755 -0.0394  0.0846
 1169ERGO    R215401  11.668   8.778   6.888  0.0772 -0.0269 -0.0448
 1169ERGO    R315402  11.756   8.973   7.055  0.1762 -0.0232 -0.1019
 1169ERGO    R415403  11.717   8.740   7.228 -0.0978  0.0964 -0.0056
 1169ERGO    R515404  11.632   8.939   7.257  0.0628  0.1825 -0.1363
 1169ERGO    C115405  11.827   8.901   7.583 -0.1068  0.1716 -0.0363
 1169ERGO    C215406  12.062   8.732   7.804 -0.0209 -0.1752  0.1025
 1170ERGO   ROH15407  17.787   5.071   5.942 -0.0959 -0.2465 -0.0447
 1170ERGO    R115408  17.567   5.077   6.120 -0.0205 -0.0464  0.0444
 1170ERGO    R215409  17.470   4.851   6.245 -0.2349  0.0238  0.0123
 1170ERGO    R315410  17.508   4.997   6.470  0.0275 -0.0868  0.0429
 1170ERGO    R415411  17.368   4.756   6.561 -0.1267  0.0041  0.0414
 1170ERGO    R515412  17.309   4.962   6.598  0.0738  0.0428  0.1506
 1170ERGO    C115413  17.345   4.838   6.957  0.1826 -0.1112  0.0870
 1170ERGO    C215414  17.411   4.916   7.297  0.1584 -0.0313  0.0624
 1171ERGO   ROH15415   9.603  12.200   6.279 -0.2841  0.0456  0.2013
 1171ERGO    R115416   9.677  12.258   6.546 -0.1589  0.0987  0.1554
 1171ERGO    R215417   9.748  12.062   6.726 -0.0710  0.1370  0.1589
 1171ERGO    R315418   9.972  12.213   6.754 -0.0594  0.1455  0.0280
 1171ERGO    R415419   9.900  12.132   7.028  0.2241 -0.0472  0.0573
 1171ERGO    R515420   9.935  12.336   6.956  0.1257  0.0084  0.1526
 1171ERGO    C115421  10.200  12.315   7.230  0.4068 -0.1465 -0.1247
 1171ERGO    C215422  10.485  12.191   7.495 -0.2068 -0.2020 -0.0690
 1172ERGO   ROH15423   4.927   3.158   6.092 -0.0280 -0.0265 -0.0113
 1172ERGO    R115424   4.969   3.338   6.306 -0.0679  0.0821 -0.0946
 1172ERGO    R215425   4.772   3.399   6.489 -0.0160 -0.0482  0.0024
 1172ERGO    R315426   4.960   3.323   6.670  0.1676  0.1896 -0.0817
 1172ERGO    R415427   4.775   3.494   6.821  0.0528  0.0191 -0.0167
 1172ERGO    R515428   4.992   3.517   6.807  0.0266  0.2555 -0.1361
 1172ERGO    C115429   4.953   3.478   7.185  0.2652  0.2815 -0.1067
 1172ERGO    C215430   4.974   3.608   7.509 -0.2985  0.1620  0.2617
 1173ERGO   ROH15431   1.984  15.337   6.219  0.0867 -0.2092  0.1035
 1173ERGO    R115432   2.152  15.367   6.445  0.1094 -0.1908  0.0841
 1173ERGO    R215433   2.349  15.560   6.459  0.1619 -0.2396  0.0168
 1173ERGO    R315434   2.222  15.626   6.690  0.1954 -0.1405  0.0074
 1173ERGO    R415435   2.492  15.737   6.720  0.2539 -0.2739 -0.0098
 1173ERGO    R515436   2.390  15.604   6.860  0.1853 -0.2021  0.0103
 1173ERGO    C115437   2.455  15.902   7.088  0.3390 -0.2008 -0.0341
 1173ERGO    C215438   2.654  16.073   7.383  0.3210 -0.2494  0.4183
 1174ERGO   ROH15439  13.028  15.703   6.024  0.1842 -0.1759  0.0521
 1174ERGO    R115440  12.899  15.703   6.276  0.1289 -0.0246  0.0243
 1174ERGO    R215441  12.963  15.524   6.476 -0.1085 -0.0882  0.0444
 1174ERGO    R315442  12.996  15.750   6.623  0.1067 -0.1164  0.0438
 1174ERGO    R415443  12.866  15.561   6.806 -0.2570  0.0641 -0.0143
 1174ERGO    R515444  12.798  15.763   6.758  0.0376  0.1561 -0.0731
 1174ERGO    C115445  12.841  15.795   7.136 -0.1416  0.1264 -0.0492
 1174ERGO    C215446  12.724  16.004   7.461 -0.1210  0.0928  0.0830
 1175ERGO   ROH15447   2.947   7.775   5.633  0.2191 -0.0349  0.0546
 1175ERGO    R115448   2.895   7.605   5.854  0.2120  0.0185  0.0947
 1175ERGO    R215449   3.070   7.579   6.067  0.2182  0.0503  0.0957
 1175ERGO    R315450   2.850   7.644   6.213  0.2287  0.1035  0.0872
 1175ERGO    R415451   3.016   7.487   6.395  0.1526  0.0116  0.0740
 1175ERGO    R515452   2.807   7.450   6.346  0.1450  0.0965  0.0486
 1175ERGO    C115453   2.779   7.494   6.724  0.1242  0.0391  0.0534
 1175ERGO    C215454   2.704   7.544   7.176 -0.0692  0.3378 -0.0341
 1176ERGO   ROH15455  10.378   5.170   6.094 -0.0376  0.0003 -0.0473
 1176ERGO    R115456  10.403   5.215   6.373  0.0005 -0.0988 -0.0340
 1176ERGO    R215457  10.235   5.097   6.558 -0.0609 -0.0595 -0.0622
 1176ERGO    R315458  10.469   5.013   6.669 -0.1034 -0.2289 -0.0992
 1176ERGO    R415459  10.270   4.983   6.882 -0.0945 -0.1205 -0.0799
 1176ERGO    R515460  10.459   5.091   6.895 -0.0215 -0.2491 -0.0899
 1176ERGO    C115461  10.509   4.837   7.175 -0.1539 -0.3150 -0.1251
 1176ERGO    C215462  10.669   4.751   7.584 -0.0743  0.0003 -0.0754
 1177ERGO   ROH15463  11.964  16.513   5.930  0.1039 -0.2862 -0.1865
 1177ERGO    R115464  12.028  16.490   6.205  0.2037 -0.0836 -0.1910
 1177ERGO    R215465  11.916  16.298   6.368  0.0534  0.2066  0.0567
 1177ERGO    R315466  12.175  16.237   6.421  0.0118 -0.0402 -0.0066
 1177ERGO    R415467  12.027  16.144   6.657  0.0041  0.3204  0.1371
 1177ERGO    R515468  12.199  16.279   6.656  0.1577  0.1306 -0.0491
 1177ERGO    C115469  12.335  15.998   6.875 -0.0636  0.1551  0.1245
 1177ERGO    C215470  12.346  15.896   7.118 -0.0270 -0.0325  0.0102
 1178ERGO   ROH15471  11.154  15.724   6.039  0.0683  0.0508  0.0206
 1178ERGO    R115472  11.244  15.786   6.300  0.2044 -0.0573  0.0007
 1178ERGO    R215473  11.082  15.761   6.523  0.1997  0.2013  0.0313
 1178ERGO    R315474  11.287  15.607   6.614 -0.0088 -0.0971  0.0074
 1178ERGO    R415475  11.152  15.703   6.856 -0.0195 -0.1601  0.0197
 1178ERGO    R515476  11.365  15.721   6.810  0.0220 -0.3479  0.1426
 1178ERGO    C115477  11.385  15.525   7.136 -0.3429 -0.6504 -0.0094
 1178ERGO    C215478  11.357  15.308   7.366  0.0673 -0.0003  0.0338
 1179ERGO   ROH15479   4.073   0.687   6.738  0.1138  0.0998 -0.1943
 1179ERGO    R115480   3.883   0.794   6.918  0.0751 -0.0088 -0.1708
 1179ERGO    R215481   3.780   0.648   7.129  0.2258 -0.0498 -0.1278
 1179ERGO    R315482   3.866   0.861   7.275  0.1020  0.0359 -0.1770
 1179ERGO    R415483   3.670   0.728   7.447  0.2279 -0.0863 -0.1175
 1179ERGO    R515484   3.670   0.938   7.389  0.0642 -0.0902 -0.1504
 1179ERGO    C115485   3.686   0.974   7.769  0.1128 -0.0271 -0.1576
 1179ERGO    C215486   3.656   0.966   8.182  0.1437 -0.5165 -0.0881
 1180ERGO   ROH15487   0.233  18.254   6.346 -0.1005  0.1546  0.1108
 1180ERGO    R115488   0.348  18.142   6.579 -0.0429  0.1216  0.0679
 1180ERGO    R215489   0.313  18.254   6.830 -0.0575  0.0375  0.1093
 1180ERGO    R315490   0.227  18.004   6.894  0.0267 -0.0103  0.0352
 1180ERGO    R415491   0.198  18.158   7.142 -0.3061 -0.0291 -0.0005
 1180ERGO    R515492   0.305  17.970   7.117 -0.1741  0.0381  0.1095
 1180ERGO    C115493   0.050  17.868   7.383 -0.3719 -0.1127 -0.1340
 1180ERGO    C215494  -0.128  17.653   7.559  0.1397  0.0809  0.2702
 1181ERGO   ROH15495  13.678  13.575   6.440 -0.1494  0.2616 -0.0012
 1181ERGO    R115496  13.501  13.500   6.648 -0.1390  0.1468 -0.0326
 1181ERGO    R215497  13.588  13.438   6.902 -0.1294  0.0436 -0.0589
 1181ERGO    R315498  13.408  13.629   6.975 -0.1520 -0.0098  0.0254
 1181ERGO    R415499  13.409  13.438   7.198 -0.0899 -0.0762 -0.0348
 1181ERGO    R515500  13.235  13.507   7.087 -0.1158 -0.0718  0.0117
 1181ERGO    C115501  13.136  13.616   7.439 -0.0881 -0.1960  0.0584
 1181ERGO    C215502  13.218  13.634   7.749 -0.3211  0.0964 -0.3872
 1182ERGO   ROH15503   3.429  16.311   6.630 -0.0222  0.2169  0.1288
 1182ERGO    R115504   3.585  16.226   6.850 -0.1156  0.1687  0.1767
 1182ERGO    R215505   3.474  16.145   7.089 -0.2382 -0.2385 -0.0108
 1182ERGO    R315506   3.623  15.921   7.046  0.0835 -0.0094 -0.1300
 1182ERGO    R415507   3.691  16.005   7.319 -0.3701 -0.2931  0.0829
 1182ERGO    R515508   3.831  15.967   7.155 -0.1065  0.0934  0.2031
 1182ERGO    C115509   3.958  15.714   7.412 -0.1448 -0.1097  0.0256
 1182ERGO    C215510   4.173  15.616   7.725 -0.1129  0.1878 -0.1544
 1183ERGO   ROH15511  12.769  10.974   6.645  0.0807  0.1826  0.0104
 1183ERGO    R115512  12.801  11.038   6.919  0.2674  0.1274  0.0045
 1183ERGO    R215513  12.594  11.017   7.101  0.3177  0.3290  0.0958
 1183ERGO    R315514  12.773  10.863   7.236  0.2182  0.1254 -0.0023
 1183ERGO    R415515  12.596  10.969   7.444  0.3236  0.1424  0.0699
 1183ERGO    R515516  12.813  10.982   7.440  0.3293 -0.0162  0.0566
 1183ERGO    C115517  12.764  10.797   7.770  0.2336 -0.1574 -0.0373
 1183ERGO    C215518  12.615  10.700   8.075 -0.1119  0.2774 -0.2777
 1184ERGO   ROH15519  15.917   3.541   6.259  0.0231  0.2732 -0.0162
 1184ERGO    R115520  15.796   3.637   6.497  0.0170  0.0695  0.0658
 1184ERGO    R215521  15.848   3.526   6.744  0.2400  0.0436  0.0144
 1184ERGO    R315522  15.909   3.783   6.810 -0.0061  0.0914  0.0629
 1184ERGO    R415523  15.785   3.672   7.051  0.1074 -0.0731  0.0422
 1184ERGO    R515524  15.726   3.854   6.947 -0.0706 -0.1100  0.0807
 1184ERGO    C115525  15.805   3.997   7.292 -0.2010 -0.0963  0.1039
 1184ERGO    C215526  15.986   4.020   7.562  0.0794 -0.1946  0.1456
 1185ERGO   ROH15527  11.857  11.674   8.025 -0.1618 -0.3845 -0.0919
 1185ERGO    R115528  11.906  11.451   8.192  0.1386 -0.2301  0.0347
 1185ERGO    R215529  12.078  11.462   8.409 -0.0620  0.1971  0.1896
 1185ERGO    R315530  11.861  11.369   8.544 -0.0100 -0.1787  0.0268
 1185ERGO    R415531  12.085  11.337   8.731 -0.1193  0.3647  0.2566
 1185ERGO    R515532  11.945  11.182   8.669  0.2505  0.0465  0.1938
 1185ERGO    C115533  11.887  11.177   9.046 -0.1037  0.1096  0.1428
 1185ERGO    C215534  11.986  11.176   9.321  0.0378  0.0937  0.2958
 1186ERGO   ROH15535   3.313   5.864   5.624  0.1432 -0.3384  0.0944
 1186ERGO    R115536   3.222   5.989   5.861 -0.0989 -0.2792 -0.0246
 1186ERGO    R215537   3.258   5.878   6.112 -0.1829 -0.1297  0.0617
 1186ERGO    R315538   3.373   6.118   6.166 -0.3824 -0.0221  0.0099
 1186ERGO    R415539   3.315   6.001   6.429 -0.1154 -0.0934  0.0341
 1186ERGO    R515540   3.254   6.199   6.358 -0.3462 -0.1490  0.0825
 1186ERGO    C115541   3.456   6.298   6.666 -0.2633  0.0287 -0.0305
 1186ERGO    C215542   3.396   6.219   6.971  0.0751 -0.0205  0.0571
 1187ERGO   ROH15543  10.931  13.308   6.051 -0.2045  0.0525  0.1295
 1187ERGO    R115544  11.058  13.228   6.291 -0.1759  0.0531  0.1146
 1187ERGO    R215545  11.306  13.324   6.367 -0.1744  0.0668  0.0935
 1187ERGO    R315546  11.175  13.391   6.595 -0.1568  0.0512  0.1083
 1187ERGO    R415547  11.448  13.333   6.682 -0.1338  0.1113  0.0740
 1187ERGO    R515548  11.266  13.245   6.761 -0.1047  0.0782  0.1032
 1187ERGO    C115549  11.407  13.402   7.079 -0.0937  0.1225  0.0765
 1187ERGO    C215550  11.445  13.514   7.440  0.0556  0.0522  0.2298
 1188ERGO   ROH15551  15.312  15.774   6.250 -0.0776  0.0030 -0.1438
 1188ERGO    R115552  15.195  15.584   6.423 -0.0348  0.0832 -0.0248
 1188ERGO    R215553  15.242  15.313   6.400 -0.1984  0.0508 -0.0374
 1188ERGO    R315554  15.314  15.335   6.661  0.0361  0.0469 -0.0997
 1188ERGO    R415555  15.141  15.098   6.651 -0.3388  0.3092  0.1307
 1188ERGO    R515556  15.117  15.271   6.782  0.0283  0.3999  0.0805
 1188ERGO    C115557  15.150  14.994   7.043 -0.2006  0.4560  0.1699
 1188ERGO    C215558  15.089  14.999   7.446 -0.0171  0.2546  0.3210
 1189ERGO   ROH15559   6.126  18.480   6.185 -0.0773  0.1612  0.0292
 1189ERGO    R115560   6.005  18.432   6.436 -0.0255  0.2069  0.0639
 1189ERGO    R215561   6.094  18.236   6.610 -0.0688  0.1501  0.0283
 1189ERGO    R315562   6.107  18.443   6.785  0.0885  0.1368  0.0322
 1189ERGO    R415563   6.125  18.203   6.953 -0.3572  0.1167  0.0530
 1189ERGO    R515564   5.984  18.368   6.976 -0.1510  0.3092 -0.0527
 1189ERGO    C115565   6.155  18.379   7.317 -0.3775  0.0848  0.0711
 1189ERGO    C215566   6.270  18.504   7.535 -0.2475  0.4075  0.1259
 1190ERGO   ROH15567  12.905  14.370   6.592  0.3178 -0.0186 -0.1359
 1190ERGO    R115568  12.970  14.425   6.862  0.1436 -0.0300 -0.0903
 1190ERGO    R215569  12.818  14.592   7.021  0.0241 -0.0569 -0.1707
 1190ERGO    R315570  12.812  14.377   7.187 -0.0549 -0.0710 -0.1923
 1190ERGO    R415571  12.816  14.608   7.366 -0.0800 -0.0940 -0.1693
 1190ERGO    R515572  12.953  14.439   7.370 -0.1050 -0.1098 -0.1431
 1190ERGO    C115573  12.810  14.415   7.723 -0.2147 -0.1287 -0.1889
 1190ERGO    C215574  12.898  14.375   8.022 -0.1595  0.1982  0.1882
 1191ERGO   ROH15575   6.632  16.272   5.413  0.2625 -0.0728 -0.0837
 1191ERGO    R115576   6.574  16.240   5.688  0.2037  0.0331 -0.0836
 1191ERGO    R215577   6.423  16.030   5.785  0.1356  0.1019 -0.0415
 1191ERGO    R315578   6.639  15.991   5.945  0.0962  0.1030  0.0126
 1191ERGO    R415579   6.408  15.947   6.120  0.0518  0.1776 -0.0259
 1191ERGO    R515580   6.574  16.084   6.156  0.0659  0.1600 -0.0210
 1191ERGO    C115581   6.601  15.862   6.465 -0.0340  0.2229  0.0340
 1191ERGO    C215582   6.431  15.721   6.765  0.0639 -0.1674 -0.1997
 1192ERGO   ROH15583  13.514  11.621   6.219  0.2962 -0.0013  0.0198
 1192ERGO    R115584  13.637  11.694   6.463  0.1732  0.0468  0.0679
 1192ERGO    R215585  13.501  11.826   6.665  0.0851  0.1340 -0.0487
 1192ERGO    R315586  13.591  11.618   6.816 -0.0405  0.1619  0.0672
 1192ERGO    R415587  13.551  11.837   7.006  0.2124  0.3391 -0.0724
 1192ERGO    R515588  13.733  11.721   6.979  0.1059  0.1609 -0.0554
 1192ERGO    C115589  13.665  11.650   7.347  0.1686  0.4848  0.0226
 1192ERGO    C215590  13.591  11.609   7.608 -0.0836  0.1905  0.0250
 1193ERGO   ROH15591   2.426   1.497   6.599 -0.1685  0.0943 -0.0251
 1193ERGO    R115592   2.422   1.545   6.878 -0.2092  0.0084 -0.0113
 1193ERGO    R215593   2.539   1.767   6.993 -0.0294 -0.1416  0.0947
 1193ERGO    R315594   2.292   1.801   7.101 -0.0313  0.0645  0.0321
 1193ERGO    R415595   2.477   1.891   7.310  0.0305 -0.5254  0.2619
 1193ERGO    R515596   2.319   1.742   7.332 -0.2108 -0.3329 -0.0356
 1193ERGO    C115597   2.210   1.994   7.596  0.0636 -0.5555  0.3004
 1193ERGO    C215598   2.108   2.047   7.826  0.2288 -0.1824  0.0579
 1194ERGO   ROH15599  12.812  13.847   6.315 -0.0449 -0.1180 -0.0287
 1194ERGO    R115600  12.722  13.824   6.582 -0.0912 -0.0277 -0.0356
 1194ERGO    R215601  12.864  13.688   6.776 -0.2049 -0.1073 -0.0030
 1194ERGO    R315602  12.842  13.923   6.911 -0.0574 -0.0753 -0.0341
 1194ERGO    R415603  12.822  13.717   7.118 -0.2595 -0.0365 -0.0160
 1194ERGO    R515604  12.681  13.878   7.082 -0.1289  0.0662 -0.0650
 1194ERGO    C115605  12.777  13.954   7.444 -0.1528  0.0347 -0.0529
 1194ERGO    C215606  12.699  13.845   7.719 -0.3559 -0.1257 -0.2343
 1195ERGO   ROH15607   7.296  11.216   5.479  0.1896 -0.3331  0.0903
 1195ERGO    R115608   7.375  11.197   5.751  0.1635 -0.2475  0.1049
 1195ERGO    R215609   7.206  11.262   5.960  0.1442 -0.1711  0.0716
 1195ERGO    R315610   7.269  11.011   6.045  0.1260 -0.1471  0.1535
 1195ERGO    R415611   7.231  11.166   6.291  0.2699 -0.0396  0.1008
 1195ERGO    R515612   7.405  11.046   6.238  0.2169 -0.0982  0.0770
 1195ERGO    C115613   7.304  10.875   6.563  0.3259  0.0594  0.1948
 1195ERGO    C215614   7.465  10.744   6.833  0.0381 -0.0297  0.0250
 1196ERGO   ROH15615   3.353  11.264   5.993  0.0078 -0.1312  0.0839
 1196ERGO    R115616   3.315  11.336   6.264  0.0454 -0.0520  0.0680
 1196ERGO    R215617   3.331  11.154   6.471 -0.0086 -0.0072  0.1107
 1196ERGO    R315618   3.512  11.331   6.569  0.0574 -0.0457  0.0607
 1196ERGO    R415619   3.497  11.120   6.772  0.0232 -0.0148  0.0927
 1196ERGO    R515620   3.471  11.334   6.805  0.0901 -0.0013  0.0669
 1196ERGO    C115621   3.763  11.266   7.040  0.1037 -0.0556  0.0352
 1196ERGO    C215622   3.998  11.065   7.205 -0.1045  0.0042  0.0265
 1197ERGO   ROH15623  16.430  16.397   6.358 -0.3574  0.0754 -0.1210
 1197ERGO    R115624  16.416  16.636   6.509 -0.2504  0.0206 -0.0227
 1197ERGO    R215625  16.252  16.663   6.730 -0.2094 -0.0099  0.0114
 1197ERGO    R315626  16.484  16.737   6.852 -0.1649 -0.1417  0.0085
 1197ERGO    R415627  16.273  16.849   7.021 -0.0969 -0.1200  0.0750
 1197ERGO    R515628  16.441  16.957   6.934 -0.0674 -0.1541  0.0924
 1197ERGO    C115629  16.503  17.026   7.304  0.0103 -0.3075  0.1092
 1197ERGO    C215630  16.737  17.048   7.639  0.4321  0.1641  0.1693
 1198ERGO   ROH15631  15.189  16.730   6.493 -0.1307  0.0173 -0.1173
 1198ERGO    R115632  15.201  16.800   6.767 -0.0602 -0.0407 -0.1059
 1198ERGO    R215633  15.109  16.634   6.967 -0.0272 -0.0726 -0.1212
 1198ERGO    R315634  15.360  16.668   7.066 -0.0016 -0.1156 -0.1685
 1198ERGO    R415635  15.189  16.646   7.303  0.0039  0.1374 -0.1346
 1198ERGO    R515636  15.329  16.807   7.259  0.0765  0.0426 -0.2660
 1198ERGO    C115637  15.471  16.686   7.592  0.0459  0.2194 -0.1868
 1198ERGO    C215638  15.470  16.567   7.855 -0.0946  0.0656  0.2452
 1199ERGO   ROH15639  13.274   8.661   6.503 -0.0338 -0.0826 -0.0247
 1199ERGO    R115640  13.111   8.703   6.730 -0.0194 -0.0203 -0.0278
 1199ERGO    R215641  13.129   8.548   6.958 -0.0212  0.0321 -0.0018
 1199ERGO    R315642  13.161   8.789   7.080 -0.0027  0.0540 -0.0458
 1199ERGO    R415643  13.076   8.608   7.294  0.0055  0.0772 -0.0043
 1199ERGO    R515644  12.984   8.799   7.241  0.0030  0.0789 -0.0313
 1199ERGO    C115645  13.076   8.870   7.605  0.0385  0.1241 -0.0471
 1199ERGO    C215646  13.140   8.957   8.017  0.1612 -0.2076  0.0685
 1200ERGO   ROH15647  18.273  13.663   6.530 -0.1183 -0.0388 -0.0059
 1200ERGO    R115648  18.504  13.545   6.644  0.0212  0.1518 -0.0836
 1200ERGO    R215649  18.694  13.691   6.781 -0.1777  0.2789  0.0667
 1200ERGO    R315650  18.645  13.509   6.978  0.0233  0.0417 -0.0967
 1200ERGO    R415651  18.894  13.642   7.059 -0.2141  0.3622  0.1077
 1200ERGO    R515652  18.862  13.428   7.038  0.1269  0.3269 -0.0775
 1200ERGO    C115653  18.964  13.444   7.405 -0.0465  0.1880 -0.0218
 1200ERGO    C215654  19.111  13.356   7.702  0.3240 -0.0144  0.0714
 1201ERGO   ROH15655  15.363   4.162   6.030 -0.0641 -0.0400 -0.0806
 1201ERGO    R115656  15.226   4.175   6.278 -0.0042 -0.0308 -0.0466
 1201ERGO    R215657  15.238   4.395   6.444  0.0587 -0.0323 -0.0413
 1201ERGO    R315658  14.967   4.383   6.426  0.0546 -0.0051  0.0169
 1201ERGO    R415659  15.019   4.570   6.645  0.1126  0.0086 -0.0192
 1201ERGO    R515660  14.892   4.394   6.653  0.0983  0.0273  0.0259
 1201ERGO    C115661  14.637   4.661   6.745  0.1399  0.0580  0.0482
 1201ERGO    C215662  14.421   5.002   6.982 -0.0123 -0.1697 -0.1128
 1202ERGO   ROH15663  10.465   0.347   6.128  0.1134  0.1216 -0.1126
 1202ERGO    R115664  10.584   0.223   6.353  0.0790  0.0628 -0.1259
 1202ERGO    R215665  10.810   0.323   6.477  0.1127 -0.0163 -0.1157
 1202ERGO    R315666  10.653   0.313   6.699  0.1087  0.0086 -0.1184
 1202ERGO    R415667  10.924   0.360   6.801  0.1117 -0.0518 -0.1118
 1202ERGO    R515668  10.788   0.201   6.862  0.0798 -0.0233 -0.1199
 1202ERGO    C115669  10.844   0.372   7.198  0.1072 -0.0491 -0.1121
 1202ERGO    C215670  10.811   0.622   7.528 -0.1992 -0.1367 -0.1887
 1203ERGO   ROH15671   5.546  16.727   6.030  0.0345 -0.2598 -0.0452
 1203ERGO    R115672   5.523  16.676   6.307 -0.0968  0.0010 -0.0064
 1203ERGO    R215673   5.741  16.612   6.465 -0.2126 -0.1017  0.0996
 1203ERGO    R315674   5.654  16.821   6.614 -0.0234  0.1209 -0.0907
 1203ERGO    R415675   5.798  16.648   6.804 -0.4074  0.0015  0.1239
 1203ERGO    R515676   5.593  16.723   6.824 -0.3288  0.3186 -0.0721
 1203ERGO    C115677   5.749  16.867   7.141 -0.3433  0.2707 -0.0406
 1203ERGO    C215678   5.924  16.882   7.306 -0.5397 -0.0147  0.2330
 1204ERGO   ROH15679  16.068   1.736   7.236  0.0975 -0.2041  0.3460
 1204ERGO    R115680  16.037   1.870   7.484  0.1141 -0.0821  0.2814
 1204ERGO    R215681  16.173   1.794   7.712  0.2387  0.1230  0.2706
 1204ERGO    R315682  16.251   2.054   7.713  0.0946  0.1702  0.1035
 1204ERGO    R415683  16.219   1.986   7.996  0.4968  0.2105  0.1736
 1204ERGO    R515684  16.127   2.153   7.892  0.2628  0.1385  0.2465
 1204ERGO    C115685  16.320   2.342   8.162  0.5120  0.3057 -0.0397
 1204ERGO    C215686  16.466   2.493   8.432 -0.4185 -0.1422 -0.0599
 1205ERGO   ROH15687  17.446   5.917   6.293 -0.1863 -0.1493  0.0812
 1205ERGO    R115688  17.444   5.953   6.574 -0.1381 -0.1984  0.0883
 1205ERGO    R215689  17.582   5.788   6.747 -0.0173 -0.1617  0.0276
 1205ERGO    R315690  17.689   6.022   6.834 -0.1096 -0.1247  0.0424
 1205ERGO    R415691  17.697   5.846   7.068  0.0772 -0.1814 -0.0025
 1205ERGO    R515692  17.609   6.045   7.058 -0.0350 -0.2248  0.0808
 1205ERGO    C115693  17.864   6.099   7.336  0.0457 -0.1581 -0.0061
 1205ERGO    C215694  18.028   6.278   7.602  0.0241 -0.2421  0.1044
 1206ERGO   ROH15695   6.897   9.341   5.119 -0.3971 -0.1661 -0.2344
 1206ERGO    R115696   6.881   9.308   5.400 -0.0928 -0.2558 -0.2263
 1206ERGO    R215697   6.650   9.357   5.543  0.1414 -0.0337  0.0730
 1206ERGO    R315698   6.689   9.103   5.632 -0.0558 -0.1172 -0.0669
 1206ERGO    R415699   6.490   9.216   5.816  0.1848  0.0285  0.1323
 1206ERGO    R515700   6.679   9.121   5.870  0.1376 -0.1968 -0.0440
 1206ERGO    C115701   6.434   8.896   6.057  0.0250 -0.0138  0.0355
 1206ERGO    C215702   6.366   8.860   6.342 -0.0418 -0.0381 -0.0752
 1207ERGO   ROH15703   6.734  10.304   5.708  0.0297 -0.2908  0.0411
 1207ERGO    R115704   6.945  10.180   5.852  0.0637 -0.1517  0.1143
 1207ERGO    R215705   7.024  10.266   6.103 -0.0785 -0.0979  0.1477
 1207ERGO    R315706   6.981  10.006   6.169  0.0656 -0.1271  0.1254
 1207ERGO    R415707   7.081  10.129   6.415 -0.3254 -0.0238  0.2269
 1207ERGO    R515708   7.160   9.952   6.318 -0.0628  0.0364  0.3385
 1207ERGO    C115709   7.074   9.806   6.659 -0.3339 -0.0081  0.2521
 1207ERGO    C215710   7.014   9.763   6.958  0.0686  0.1790 -0.0509
 1208ERGO   ROH15711   1.252   4.721   6.235  0.0460  0.0053 -0.0294
 1208ERGO    R115712   1.389   4.854   6.444  0.0856  0.0134 -0.0601
 1208ERGO    R215713   1.268   5.044   6.604  0.1462  0.0985 -0.1136
 1208ERGO    R315714   1.354   4.883   6.805  0.0836  0.1205 -0.0690
 1208ERGO    R415715   1.422   5.156   6.892 -0.0018  0.1331 -0.0471
 1208ERGO    R515716   1.558   4.986   6.879  0.0330  0.1568  0.0197
 1208ERGO    C115717   1.592   5.070   7.250 -0.1466  0.1738  0.0335
 1208ERGO    C215718   1.549   5.164   7.586  0.2493  0.1706  0.2907
 1209ERGO   ROH15719  15.779  12.048   6.489  0.1837 -0.1321 -0.1450
 1209ERGO    R115720  15.830  11.987   6.761  0.0724 -0.1184 -0.1209
 1209ERGO    R215721  16.068  12.052   6.885  0.0591 -0.2036 -0.0559
 1209ERGO    R315722  15.904  12.174   7.064  0.0560 -0.1112 -0.1204
 1209ERGO    R415723  16.170  12.177   7.191  0.0067 -0.3063  0.0046
 1209ERGO    R515724  15.985  12.100   7.278 -0.0907 -0.1920 -0.0889
 1209ERGO    C115725  16.075  12.366   7.537 -0.0265 -0.2794 -0.0206
 1209ERGO    C215726  16.324  12.436   7.880 -0.1779  0.2125  0.0762
 1210ERGO   ROH15727  17.691  17.037   6.268 -0.1677 -0.0933 -0.0031
 1210ERGO    R115728  17.524  17.025   6.496 -0.1140 -0.1534  0.0332
 1210ERGO    R215729  17.574  16.856   6.708 -0.0027 -0.1300  0.0254
 1210ERGO    R315730  17.559  17.086   6.853 -0.0605 -0.1330  0.0248
 1210ERGO    R415731  17.517  16.872   7.049 -0.0806 -0.1404  0.0131
 1210ERGO    R515732  17.387  17.043   7.014 -0.0923 -0.1539 -0.0140
 1210ERGO    C115733  17.469  17.096   7.383 -0.1802 -0.1492  0.0055
 1210ERGO    C215734  17.554  16.981   7.688  0.1032 -0.1059  0.1095
 1211ERGO   ROH15735  14.084  18.229   9.728 -0.3209 -0.1347  0.0379
 1211ERGO    R115736  14.033  18.357   9.481 -0.3671 -0.2846 -0.0297
 1211ERGO    R215737  14.235  18.442   9.313 -0.3913  0.0326  0.1084
 1211ERGO    R315738  14.102  18.292   9.130  0.0107 -0.2480  0.0306
 1211ERGO    R415739  14.249  18.491   8.971 -0.5385  0.2961  0.1374
 1211ERGO    R515740  14.034  18.450   8.962 -0.4489 -0.3102  0.1325
 1211ERGO    C115741  14.132  18.380   8.600 -0.2469  0.1865  0.0812
 1211ERGO    C215742  13.984  18.437   8.231  0.1820 -0.1412 -0.0307
 1212ERGO   ROH15743   5.243  18.618   6.685 -0.0924  0.1523  0.0057
 1212ERGO    R115744   5.070  18.479   6.861 -0.0186  0.0628  0.0081
 1212ERGO    R215745   5.162  18.339   7.081  0.0536  0.1371  0.0245
 1212ERGO    R315746   4.983  18.495   7.213 -0.0480  0.0407  0.0021
 1212ERGO    R415747   5.045  18.279   7.401 -0.0112  0.0315 -0.0186
 1212ERGO    R515748   4.847  18.340   7.335 -0.0189 -0.0381 -0.0636
 1212ERGO    C115749   4.808  18.390   7.711 -0.1444 -0.1207 -0.0648
 1212ERGO    C215750   4.787  18.579   7.897 -0.0976 -0.0105  0.0590
 1213ERGO   ROH15751  18.140  17.923   6.386 -0.2014 -0.2310  0.0587
 1213ERGO    R115752  18.186  17.849   6.655 -0.2826 -0.1576  0.0958
 1213ERGO    R215753  18.435  17.869   6.775 -0.2450 -0.3840  0.0892
 1213ERGO    R315754  18.299  18.015   6.959 -0.0887 -0.1336  0.0075
 1213ERGO    R415755  18.527  17.906   7.106 -0.3545 -0.4850  0.1291
 1213ERGO    R515756  18.317  17.889   7.161 -0.4010 -0.1277  0.0316
 1213ERGO    C115757  18.452  18.064   7.472 -0.2717 -0.3086  0.0757
 1213ERGO    C215758  18.496  18.256   7.679  0.0040  0.2453  0.2184
 1214ERGO   ROH15759  17.516  18.428   6.338 -0.0456 -0.6370 -0.4274
 1214ERGO    R115760  17.629  18.366   6.590  0.2352 -0.1394 -0.4184
 1214ERGO    R215761  17.511  18.189   6.767  0.2488  0.4467  0.2189
 1214ERGO    R315762  17.755  18.068   6.757  0.0829  0.1078  0.1612
 1214ERGO    R415763  17.629  17.961   6.999  0.0763  0.4577  0.3181
 1214ERGO    R515764  17.825  18.056   6.986  0.2008  0.1846  0.1297
 1214ERGO    C115765  17.926  17.715   7.125 -0.1801  0.1455  0.3217
 1214ERGO    C215766  17.937  17.376   7.176  0.1064  0.1422 -0.0691
 1215ERGO   ROH15767   1.561   1.711   6.220 -0.0675 -0.0651 -0.0062
 1215ERGO    R115768   1.397   1.612   6.429  0.1231 -0.3134  0.0292
 1215ERGO    R215769   1.481   1.414   6.603  0.5823  0.0204  0.1997
 1215ERGO    R315770   1.413   1.597   6.793  0.0809  0.0078  0.0492
 1215ERGO    R415771   1.443   1.345   6.940  0.6069  0.1503  0.2305
 1215ERGO    R515772   1.270   1.478   6.942  0.2861 -0.2346  0.0674
 1215ERGO    C115773   1.357   1.477   7.314  0.1506  0.2141  0.1072
 1215ERGO    C215774   1.304   1.452   7.641  0.1865  0.4705 -0.0924
 1216ERGO   ROH15775   2.926   8.852   5.770  0.0254 -0.0573 -0.1325
 1216ERGO    R115776   2.808   8.733   5.998  0.0186 -0.1175 -0.1677
 1216ERGO    R215777   2.944   8.555   6.160  0.0777 -0.0084 -0.0994
 1216ERGO    R315778   2.870   8.728   6.357 -0.1185 -0.0415 -0.1418
 1216ERGO    R415779   2.807   8.462   6.464  0.3204 -0.1072 -0.0186
 1216ERGO    R515780   2.671   8.631   6.449  0.0536 -0.3144 -0.0396
 1216ERGO    C115781   2.659   8.569   6.825  0.2776 -0.1959 -0.0113
 1216ERGO    C215782   2.530   8.349   7.189 -0.1172  0.1486 -0.3585
 1217ERGO   ROH15783   4.387   6.080   5.597  0.1083 -0.1029 -0.0038
 1217ERGO    R115784   4.485   6.142   5.856  0.0381  0.0260 -0.0079
 1217ERGO    R215785   4.333   6.274   6.044 -0.1044 -0.1073 -0.0282
 1217ERGO    R315786   4.396   6.060   6.199  0.1109 -0.0283 -0.0016
 1217ERGO    R415787   4.307   6.266   6.389 -0.1522 -0.1128 -0.0313
 1217ERGO    R515788   4.496   6.155   6.395 -0.0277  0.0978  0.0087
 1217ERGO    C115789   4.351   6.059   6.734  0.0223 -0.0418 -0.0082
 1217ERGO    C215790   4.286   6.120   7.105 -0.0539 -0.1508  0.0067
 1218ERGO   ROH15791   9.787   3.304   6.220  0.0144  0.2813  0.1339
 1218ERGO    R115792   9.718   3.375   6.485 -0.1442  0.0548  0.1561
 1218ERGO    R215793   9.498   3.270   6.615 -0.0325 -0.3159  0.0566
 1218ERGO    R315794   9.682   3.203   6.804  0.0199 -0.1583  0.0621
 1218ERGO    R415795   9.438   3.260   6.955  0.0102 -0.2104  0.0675
 1218ERGO    R515796   9.634   3.349   6.988 -0.0258 -0.1076  0.0108
 1218ERGO    C115797   9.576   3.192   7.331  0.0844 -0.0010  0.0790
 1218ERGO    C215798   9.637   2.974   7.583  0.0744  0.4044 -0.2026
 1219ERGO   ROH15799   1.257   9.429   6.121  0.1290  0.1439  0.1993
 1219ERGO    R115800   1.205   9.415   6.398  0.0456 -0.0945  0.1743
 1219ERGO    R215801   1.108   9.186   6.520  0.2567 -0.2875 -0.0059
 1219ERGO    R315802   1.326   9.219   6.680  0.1679 -0.1445  0.0875
 1219ERGO    R415803   1.152   9.034   6.827  0.2647 -0.3219 -0.0245
 1219ERGO    R515804   1.236   9.220   6.903  0.0806 -0.2701  0.0527
 1219ERGO    C115805   1.382   8.975   7.156  0.1860 -0.2076  0.0525
 1219ERGO    C215806   1.669   8.862   7.370  0.1835 -0.1626  0.1391
 1220ERGO   ROH15807   1.731  17.737   6.501 -0.3212 -0.1634 -0.3821
 1220ERGO    R115808   1.628  17.574   6.708 -0.1607 -0.0255 -0.1881
 1220ERGO    R215809   1.532  17.678   6.946 -0.0877  0.1473 -0.2238
 1220ERGO    R315810   1.310  17.537   6.881 -0.0639  0.0081 -0.0058
 1220ERGO    R415811   1.314  17.539   7.174  0.2175 -0.0113 -0.0225
 1220ERGO    R515812   1.299  17.363   7.046  0.2020 -0.0062 -0.0104
 1220ERGO    C115813   0.977  17.324   7.246  0.4176 -0.2341  0.2995
 1220ERGO    C215814   0.837  17.144   7.434 -0.2641 -0.0019 -0.1336
 1221ERGO   ROH15815   8.583   2.719   6.020  0.0956 -0.0679  0.0473
 1221ERGO    R115816   8.453   2.656   6.264  0.0152  0.0078  0.0258
 1221ERGO    R215817   8.429   2.397   6.356 -0.1042  0.0221  0.0519
 1221ERGO    R315818   8.545   2.500   6.580 -0.1129  0.0078  0.0616
 1221ERGO    R415819   8.438   2.240   6.664 -0.1192  0.0166  0.0487
 1221ERGO    R515820   8.400   2.433   6.758 -0.1168  0.0082  0.0527
 1221ERGO    C115821   8.553   2.244   7.053 -0.1360  0.0000  0.0559
 1221ERGO    C215822   8.799   2.111   7.342 -0.0372 -0.4017  0.1743
 1222ERGO   ROH15823  12.735   2.536   5.905  0.1420 -0.0013  0.0237
 1222ERGO    R115824  12.567   2.549   6.132  0.1369  0.0015  0.0199
 1222ERGO    R215825  12.665   2.549   6.391  0.1332  0.0357  0.0225
 1222ERGO    R315826  12.518   2.777   6.412  0.1089  0.0222 -0.0024
 1222ERGO    R415827  12.557   2.689   6.688  0.0022 -0.0130 -0.0015
 1222ERGO    R515828  12.367   2.735   6.592  0.0388 -0.0126 -0.0703
 1222ERGO    C115829  12.356   2.985   6.880 -0.0970 -0.0540 -0.0387
 1222ERGO    C215830  12.128   3.321   6.937 -0.0987  0.2215  0.2258
 1223ERGO   ROH15831   5.285  12.904   6.069  0.0999 -0.0068 -0.0784
 1223ERGO    R115832   5.264  12.724   6.287  0.1107 -0.0502 -0.1130
 1223ERGO    R215833   5.403  12.760   6.523  0.0580 -0.0534 -0.0848
 1223ERGO    R315834   5.155  12.742   6.634  0.0453 -0.1426 -0.1272
 1223ERGO    R415835   5.340  12.724   6.861  0.0206  0.1899 -0.0641
 1223ERGO    R515836   5.182  12.583   6.811  0.1321  0.0241  0.0173
 1223ERGO    C115837   5.072  12.685   7.161 -0.0132  0.2480 -0.0919
 1223ERGO    C215838   4.948  12.622   7.446  0.0843  0.2090  0.0382
 1224ERGO   ROH15839   5.061   4.868   6.308 -0.1383 -0.3006  0.0591
 1224ERGO    R115840   5.188   4.798   6.551 -0.1282 -0.0910  0.1132
 1224ERGO    R215841   5.457   4.842   6.597 -0.1434 -0.0227  0.0738
 1224ERGO    R315842   5.366   4.973   6.817 -0.1459  0.1381 -0.0193
 1224ERGO    R415843   5.614   4.843   6.905 -0.2234  0.0404  0.1165
 1224ERGO    R515844   5.418   4.827   6.999 -0.2724  0.1888  0.0699
 1224ERGO    C115845   5.620   4.968   7.290 -0.2723  0.2281  0.0540
 1224ERGO    C215846   5.581   5.092   7.544  0.0985  0.2463  0.0839
 1225ERGO   ROH15847   0.064   4.748   6.294  0.2430 -0.1325  0.2519
 1225ERGO    R115848  -0.119   4.872   6.471  0.1946 -0.1013  0.1806
 1225ERGO    R215849  -0.275   4.729   6.648  0.0967 -0.0746  0.1157
 1225ERGO    R315850  -0.163   4.896   6.832  0.0530 -0.0985  0.1639
 1225ERGO    R415851  -0.422   4.819   6.948 -0.0401 -0.0085  0.0293
 1225ERGO    R515852  -0.349   5.022   6.917  0.0443 -0.0324  0.0538
 1225ERGO    C115853  -0.403   5.028   7.294 -0.1607  0.0076  0.0244
 1225ERGO    C215854  -0.500   5.072   7.611 -0.0298  0.0403  0.0182
 1226ERGO   ROH15855   7.439   4.114   5.981  0.1652 -0.0189 -0.0010
 1226ERGO    R115856   7.521   3.989   6.221  0.0647 -0.0921 -0.0041
 1226ERGO    R215857   7.698   4.107   6.399  0.2170 -0.2676 -0.0336
 1226ERGO    R315858   7.498   4.061   6.577  0.1878 -0.0440 -0.0060
 1226ERGO    R415859   7.745   4.019   6.729  0.1604 -0.2359 -0.0172
 1226ERGO    R515860   7.579   3.879   6.711  0.0309 -0.0877  0.0291
 1226ERGO    C115861   7.586   3.924   7.090  0.1002 -0.0076  0.0185
 1226ERGO    C215862   7.629   4.020   7.400 -0.0430 -0.0938  0.1674
 1227ERGO   ROH15863   5.111   3.845   6.309 -0.0511 -0.1375  0.0071
 1227ERGO    R115864   4.852   3.904   6.405 -0.0596 -0.0911 -0.0441
 1227ERGO    R215865   4.789   3.909   6.674 -0.1520 -0.2486 -0.0603
 1227ERGO    R315866   4.699   4.159   6.616 -0.0226 -0.1684  0.0764
 1227ERGO    R415867   4.598   4.105   6.885 -0.1374 -0.3048  0.0053
 1227ERGO    R515868   4.481   4.168   6.713 -0.0513 -0.1373  0.0073
 1227ERGO    C115869   4.403   4.454   6.953 -0.0073 -0.2622  0.1718
 1227ERGO    C215870   4.476   4.769   7.082  0.0996 -0.0523  0.1397
 1228ERGO   ROH15871   5.221  17.491   6.180 -0.2088 -0.1801 -0.1135
 1228ERGO    R115872   5.228  17.440   6.459 -0.1263 -0.2519 -0.1281
 1228ERGO    R215873   5.383  17.240   6.570  0.1513 -0.0819 -0.1951
 1228ERGO    R315874   5.480  17.443   6.721 -0.1112  0.0092 -0.1432
 1228ERGO    R415875   5.514  17.204   6.887 -0.0318  0.0507 -0.1026
 1228ERGO    R515876   5.413  17.388   6.944 -0.2174 -0.0246 -0.1836
 1228ERGO    C115877   5.683  17.374   7.214 -0.3848  0.2137  0.0001
 1228ERGO    C215878   5.804  17.351   7.482  0.0628  0.0535  0.1317
 1229ERGO   ROH15879   2.899   4.952   6.034  0.0581  0.1652  0.0894
 1229ERGO    R115880   2.912   5.049   6.300 -0.1093  0.1168  0.1161
 1229ERGO    R215881   2.700   5.027   6.476 -0.1453 -0.1154  0.0489
 1229ERGO    R315882   2.886   4.908   6.634 -0.0822  0.0157  0.0754
 1229ERGO    R415883   2.717   5.060   6.820 -0.0810  0.0659  0.0300
 1229ERGO    R515884   2.934   5.071   6.803 -0.0891  0.1142 -0.0186
 1229ERGO    C115885   2.902   4.966   7.168  0.0158  0.2945  0.0439
 1229ERGO    C215886   2.937   4.813   7.436  0.0217 -0.0661  0.1636
 1230ERGO   ROH15887  10.341  16.678   5.936  0.1080 -0.0558  0.0983
 1230ERGO    R115888  10.446  16.517   6.143 -0.0318 -0.1355  0.1075
 1230ERGO    R215889  10.581  16.622   6.360  0.1792 -0.2484  0.0287
 1230ERGO    R315890  10.397  16.482   6.502  0.0442  0.0292  0.1363
 1230ERGO    R415891  10.629  16.503   6.680  0.2179 -0.3600 -0.0178
 1230ERGO    R515892  10.526  16.319   6.622 -0.1234 -0.1966  0.0264
 1230ERGO    C115893  10.484  16.301   7.001  0.1137 -0.1641  0.0562
 1230ERGO    C215894  10.458  16.047   7.204  0.4257  0.1204 -0.2079
 1231ERGO   ROH15895  10.888  17.482   6.375  0.3610  0.1476  0.0289
 1231ERGO    R115896  10.779  17.510   6.634  0.2423  0.0855 -0.0142
 1231ERGO    R215897  10.914  17.431   6.862  0.1322  0.0192  0.0271
 1231ERGO    R315898  10.865  17.687   6.941  0.1096  0.0009  0.0738
 1231ERGO    R415899  10.964  17.552   7.182 -0.0050 -0.0731  0.0847
 1231ERGO    R515900  10.778  17.665   7.163  0.0072 -0.0577  0.0305
 1231ERGO    C115901  10.947  17.862   7.442 -0.1061 -0.1441  0.1620
 1231ERGO    C215902  11.002  17.960   7.839 -0.2593 -0.2394  0.2467
 1232ERGO   ROH15903   8.590  15.002   5.994  0.0343 -0.0009  0.2210
 1232ERGO    R115904   8.339  15.042   6.117 -0.0224 -0.1437  0.1522
 1232ERGO    R215905   8.108  14.920   6.025  0.0326 -0.0950 -0.0514
 1232ERGO    R315906   8.090  14.834   6.283 -0.0667 -0.3253 -0.1324
 1232ERGO    R415907   7.814  14.827   6.181 -0.0888  0.1352 -0.1370
 1232ERGO    R515908   7.884  14.928   6.362  0.0549 -0.1288 -0.0360
 1232ERGO    C115909   7.626  14.692   6.514 -0.2527  0.0531 -0.2630
 1232ERGO    C215910   7.236  14.633   6.682  0.1889 -0.0274 -0.0029
 1233ERGO   ROH15911   8.783   8.633   5.800 -0.0005  0.3187  0.2136
 1233ERGO    R115912   8.672   8.715   6.047 -0.0287  0.1642  0.2535
 1233ERGO    R215913   8.436   8.611   6.145 -0.0412  0.1044  0.1598
 1233ERGO    R315914   8.588   8.558   6.364 -0.0690 -0.0359  0.1461
 1233ERGO    R415915   8.325   8.631   6.472 -0.0530  0.0072  0.1621
 1233ERGO    R515916   8.517   8.720   6.526 -0.0251 -0.0775  0.2087
 1233ERGO    C115917   8.403   8.593   6.868 -0.0859 -0.1812  0.1507
 1233ERGO    C215918   8.413   8.555   7.030  0.1061  0.1917 -0.2183
 1234ERGO   ROH15919   8.894  12.944   6.085 -0.1135  0.0437 -0.2522
 1234ERGO    R115920   8.798  12.737   6.252 -0.1548  0.0271 -0.2959
 1234ERGO    R215921   8.818  12.746   6.528  0.0746 -0.1475 -0.3016
 1234ERGO    R315922   8.550  12.704   6.516  0.0261  0.0879 -0.1166
 1234ERGO    R415923   8.613  12.701   6.802  0.2490 -0.1506 -0.1699
 1234ERGO    R515924   8.507  12.546   6.691  0.0300  0.0117 -0.1865
 1234ERGO    C115925   8.242  12.634   6.951  0.3051  0.0686  0.0804
 1234ERGO    C215926   7.983  12.545   7.192  0.0063  0.2280  0.0415
 1235ERGO   ROH15927   5.062   5.378   5.745 -0.1798 -0.1647  0.0741
 1235ERGO    R115928   5.068   5.276   6.009  0.1215 -0.2341  0.0455
 1235ERGO    R215929   5.303   5.250   6.153  0.2362  0.2678 -0.0140
 1235ERGO    R315930   5.168   5.397   6.337 -0.0773 -0.0875  0.0500
 1235ERGO    R415931   5.372   5.256   6.492  0.0859  0.1434  0.0184
 1235ERGO    R515932   5.157   5.257   6.530  0.0741 -0.2375 -0.0579
 1235ERGO    C115933   5.284   5.397   6.861 -0.2959 -0.2626  0.0974
 1235ERGO    C215934   5.497   5.442   7.150  0.4097 -0.0058  0.2645
 1236ERGO   ROH15935  11.068   3.862   6.042  0.0236  0.0607 -0.0283
 1236ERGO    R115936  11.195   3.914   6.290  0.1041 -0.0649 -0.0422
 1236ERGO    R215937  11.053   3.948   6.525  0.1640  0.0642 -0.0246
 1236ERGO    R315938  11.217   3.751   6.615 -0.0112 -0.0954 -0.0494
 1236ERGO    R415939  11.103   3.868   6.857  0.1361  0.0123 -0.0325
 1236ERGO    R515940  11.314   3.840   6.814  0.1043 -0.1905 -0.0626
 1236ERGO    C115941  11.285   3.636   7.135 -0.0445 -0.1678 -0.0604
 1236ERGO    C215942  11.373   3.633   7.515  0.0262 -0.1333  0.1057
 1237ERGO   ROH15943  14.412  12.184   6.685 -0.2319 -0.0516  0.2864
 1237ERGO    R115944  14.503  12.005   6.883 -0.0449 -0.0608  0.1946
 1237ERGO    R215945  14.768  11.927   6.904  0.0003  0.0348  0.0212
 1237ERGO    R315946  14.739  12.014   7.160  0.1164 -0.0296  0.0564
 1237ERGO    R415947  14.950  11.811   7.174  0.2317  0.0835 -0.1112
 1237ERGO    R515948  14.768  11.817   7.293  0.3056 -0.0366  0.0046
 1237ERGO    C115949  15.029  11.824   7.571  0.4754  0.0513 -0.1552
 1237ERGO    C215950  15.203  11.676   7.819 -0.1737 -0.1826  0.0117
 1238ERGO   ROH15951   3.420   9.495   5.639  0.1583 -0.3016  0.0814
 1238ERGO    R115952   3.442   9.638   5.882  0.3277 -0.2738  0.0503
 1238ERGO    R215953   3.244   9.635   6.075  0.2649  0.1048 -0.0053
 1238ERGO    R315954   3.447   9.556   6.237  0.0922 -0.1945  0.0743
 1238ERGO    R415955   3.213   9.570   6.413  0.0183  0.0578 -0.0345
 1238ERGO    R515956   3.405   9.668   6.444  0.1331 -0.1898  0.0820
 1238ERGO    C115957   3.386   9.458   6.762 -0.2874 -0.2505  0.0234
 1238ERGO    C215958   3.370   9.285   7.015 -0.4449  0.0849  0.2047
 1239ERGO   ROH15959   9.755  15.606   5.678  0.0037 -0.0759  0.1678
 1239ERGO    R115960   9.854  15.633   5.942  0.0755 -0.2033  0.1554
 1239ERGO    R215961   9.742  15.807   6.126  0.3329 -0.0395  0.1655
 1239ERGO    R315962   9.727  15.583   6.279  0.0434 -0.0188  0.1715
 1239ERGO    R415963   9.722  15.804   6.471  0.1019 -0.0045  0.1533
 1239ERGO    R515964   9.857  15.634   6.473 -0.0418 -0.1186  0.2553
 1239ERGO    C115965   9.695  15.593   6.815 -0.3045  0.0355  0.1518
 1239ERGO    C215966   9.509  15.644   6.993  0.3922  0.0037  0.0576
 1240ERGO   ROH15967   2.082   5.870   5.858  0.0203 -0.1110  0.1174
 1240ERGO    R115968   1.994   5.896   6.126  0.0859  0.2169  0.1096
 1240ERGO    R215969   2.028   5.696   6.313 -0.3952  0.2090  0.1863
 1240ERGO    R315970   2.148   5.894   6.455  0.0930 -0.0160  0.1091
 1240ERGO    R415971   2.113   5.674   6.647 -0.5160  0.1326  0.2138
 1240ERGO    R515972   2.047   5.880   6.672  0.0005  0.3385  0.1021
 1240ERGO    C115973   2.276   5.847   6.975 -0.1279 -0.1230  0.1575
 1240ERGO    C215974   2.336   5.627   7.303 -0.0478 -0.1703 -0.1497
 1241ERGO   ROH15975   4.215   7.030   7.146 -0.0786 -0.2443  0.0820
 1241ERGO    R115976   4.130   7.295   7.195  0.0382 -0.2215  0.1611
 1241ERGO    R215977   3.869   7.378   7.153  0.1234 -0.0466 -0.0112
 1241ERGO    R315978   3.888   7.460   7.412 -0.0468 -0.2007  0.0535
 1241ERGO    R415979   3.708   7.654   7.284 -0.0301 -0.1691  0.0640
 1241ERGO    R515980   3.889   7.699   7.398 -0.1032 -0.1879  0.1980
 1241ERGO    C115981   3.632   7.892   7.603 -0.2792 -0.3851  0.1684
 1241ERGO    C215982   3.309   8.122   7.593  0.0460 -0.1450 -0.0723
 1242ERGO   ROH15983  10.731   3.040   6.158  0.0110  0.0471 -0.0677
 1242ERGO    R115984  10.714   2.882   6.393  0.0734  0.2055  0.0436
 1242ERGO    R215985  10.707   2.993   6.646 -0.2039  0.3936 -0.0451
 1242ERGO    R315986  10.481   2.844   6.670 -0.0373  0.1316 -0.0581
 1242ERGO    R415987  10.583   2.870   6.944 -0.0862  0.2616 -0.0486
 1242ERGO    R515988  10.533   2.684   6.841  0.1356  0.1963 -0.0464
 1242ERGO    C115989  10.298   2.659   7.140  0.1386 -0.0611 -0.0628
 1242ERGO    C215990  10.125   2.757   7.449 -0.1507  0.3347 -0.1025
 1243ERGO   ROH15991   3.504   2.505   6.234  0.0060 -0.1046 -0.2106
 1243ERGO    R115992   3.453   2.699   6.433 -0.0213  0.0603 -0.3750
 1243ERGO    R215993   3.215   2.838   6.448 -0.2642 -0.3556 -0.1734
 1243ERGO    R315994   3.214   2.744   6.704  0.3285 -0.0456 -0.0399
 1243ERGO    R415995   3.066   2.998   6.716 -0.5355 -0.5061 -0.2307
 1243ERGO    R515996   3.237   2.941   6.839 -0.1906  0.2300 -0.3227
 1243ERGO    C115997   2.978   3.003   7.112 -0.1370 -0.3026 -0.1388
 1243ERGO    C215998   2.892   3.106   7.371  0.0804  0.1332  0.7294
 1244ERGO   ROH15999  12.144   8.280   6.479 -0.3598  0.1934 -0.0746
 1244ERGO    R116000  12.023   8.322   6.732 -0.3553 -0.1763 -0.0027
 1244ERGO    R216001  12.026   8.131   6.932  0.1454 -0.2728 -0.0733
 1244ERGO    R316002  12.134   8.333   7.078 -0.2251 -0.0865 -0.0494
 1244ERGO    R416003  12.076   8.124   7.274  0.1655 -0.2053 -0.0766
 1244ERGO    R516004  12.012   8.331   7.284 -0.2153 -0.3291 -0.0522
 1244ERGO    C116005  12.207   8.309   7.610 -0.1706  0.0089 -0.0560
 1244ERGO    C216006  12.141   8.212   7.868  0.1650  0.0375  0.0211
 1245ERGO   ROH16007   6.330  10.841   5.582 -0.0657 -0.1607 -0.0092
 1245ERGO    R116008   6.286  10.953   5.839  0.0469 -0.0533 -0.0355
 1245ERGO    R216009   6.133  10.828   6.031 -0.0735  0.1414  0.0007
 1245ERGO    R316010   6.356  10.860   6.183 -0.0368 -0.0374 -0.0146
 1245ERGO    R416011   6.154  10.756   6.369  0.0077 -0.2390 -0.0821
 1245ERGO    R516012   6.273  10.936   6.395  0.0184 -0.2726  0.0929
 1245ERGO    C116013   6.376  10.743   6.707  0.0893 -0.6285 -0.1447
 1245ERGO    C216014   6.426  10.614   6.942 -0.2530  0.1172 -0.0185
 1246ERGO   ROH16015   9.171  14.946   5.916  0.2006 -0.0492  0.1317
 1246ERGO    R116016   8.993  15.000   6.129  0.0754 -0.2776  0.0880
 1246ERGO    R216017   9.032  14.903   6.384  0.3100  0.0176  0.1671
 1246ERGO    R316018   9.011  15.165   6.453 -0.2895  0.0400 -0.0446
 1246ERGO    R416019   8.963  15.017   6.703  0.2893  0.1138  0.1290
 1246ERGO    R516020   8.833  15.169   6.614 -0.1769 -0.2750  0.0986
 1246ERGO    C116021   8.902  15.330   6.953 -0.2854  0.1909 -0.0919
 1246ERGO    C216022   9.099  15.460   7.267  0.1162  0.1600 -0.0036
 1247ERGO   ROH16023   7.617   3.536   6.008  0.1208 -0.0459  0.1063
 1247ERGO    R116024   7.499   3.566   6.264  0.0117 -0.1254  0.0676
 1247ERGO    R216025   7.392   3.354   6.404 -0.0306 -0.1774 -0.0297
 1247ERGO    R316026   7.561   3.440   6.600 -0.1134 -0.2131  0.0564
 1247ERGO    R416027   7.360   3.280   6.740 -0.1679 -0.2246 -0.0538
 1247ERGO    R516028   7.417   3.485   6.786 -0.1843 -0.2394  0.0025
 1247ERGO    C116029   7.498   3.318   7.119 -0.3257 -0.2856  0.0129
 1247ERGO    C216030   7.469   3.101   7.394  0.1928 -0.2318 -0.1104
 1248ERGO   ROH16031   6.665   1.133   6.352  0.0591  0.2331 -0.0428
 1248ERGO    R116032   6.559   1.295   6.559  0.2051  0.1842  0.0728
 1248ERGO    R216033   6.332   1.226   6.700  0.1007  0.3208 -0.0225
 1248ERGO    R316034   6.494   1.260   6.915  0.1064 -0.0391  0.0343
 1248ERGO    R416035   6.227   1.333   7.011  0.1827  0.2728  0.0208
 1248ERGO    R516036   6.408   1.454   7.025  0.3520  0.0159  0.1358
 1248ERGO    C116037   6.319   1.426   7.395  0.2356 -0.0931  0.0994
 1248ERGO    C216038   6.479   1.394   7.683 -0.2182  0.0955 -0.2035
 1249ERGO   ROH16039  13.679   5.736   5.394 -0.0664  0.0729  0.0233
 1249ERGO    R116040  13.613   5.503   5.540 -0.2504  0.1477  0.0593
 1249ERGO    R216041  13.797   5.304   5.593 -0.4869 -0.1280 -0.1775
 1249ERGO    R316042  13.721   5.346   5.851 -0.1397 -0.0627 -0.0798
 1249ERGO    R416043  13.767   5.056   5.832 -0.6961 -0.1705 -0.2438
 1249ERGO    R516044  13.586   5.155   5.905 -0.4513  0.1577 -0.0163
 1249ERGO    C116045  13.679   4.952   6.214 -0.4919 -0.1339 -0.1907
 1249ERGO    C216046  13.606   4.801   6.514 -0.3312 -0.2701 -0.4630
 1250ERGO   ROH16047  14.043  16.044   6.086 -0.2829 -0.1146 -0.1220
 1250ERGO    R116048  14.001  16.111   6.358  0.0255 -0.0410 -0.0879
 1250ERGO    R216049  13.751  16.106   6.476  0.1277  0.1588  0.1569
 1250ERGO    R316050  13.874  15.943   6.655  0.1851  0.0949  0.0582
 1250ERGO    R416051  13.649  16.057   6.803  0.2240  0.0180  0.1656
 1250ERGO    R516052  13.858  16.059   6.863  0.2364  0.0056  0.1088
 1250ERGO    C116053  13.706  15.875   7.161  0.3341 -0.1239  0.0780
 1250ERGO    C216054  13.786  15.909   7.475 -0.3485 -0.0489  0.0796
 1251ERGO   ROH16055  10.213  14.411   6.203  0.0053  0.0381 -0.0707
 1251ERGO    R116056  10.277  14.542   6.446  0.0686  0.0753 -0.1087
 1251ERGO    R216057  10.326  14.406   6.681 -0.0593  0.1219 -0.0611
 1251ERGO    R316058  10.558  14.548   6.677  0.0446 -0.0422 -0.0731
 1251ERGO    R416059  10.525  14.465   6.957 -0.2208  0.3096  0.0180
 1251ERGO    R516060  10.556  14.669   6.884 -0.0275  0.2106 -0.2110
 1251ERGO    C116061  10.858  14.634   7.115 -0.2173  0.2649  0.0528
 1251ERGO    C216062  11.006  14.824   7.345 -0.2203 -0.0141  0.1027
 1252ERGO   ROH16063  12.763   9.659   6.410 -0.0676  0.3556  0.1127
 1252ERGO    R116064  12.850   9.645   6.679  0.0268  0.3174  0.0810
 1252ERGO    R216065  12.789   9.839   6.866 -0.0510  0.2089  0.1742
 1252ERGO    R316066  12.694   9.627   7.007  0.1394  0.0884  0.1228
 1252ERGO    R416067  12.668   9.855   7.190 -0.3011  0.0651  0.0906
 1252ERGO    R516068  12.770   9.666   7.231 -0.0713  0.2065  0.1724
 1252ERGO    C116069  12.510   9.665   7.511 -0.2680 -0.1319 -0.0062
 1252ERGO    C216070  12.164   9.665   7.596  0.0191 -0.0379 -0.1508
 1253ERGO   ROH16071   9.988   2.124   6.243  0.0202 -0.2895  0.0896
 1253ERGO    R116072   9.957   2.249   6.495 -0.0107 -0.1236  0.0051
 1253ERGO    R216073   9.880   2.110   6.721 -0.1274  0.0416  0.0685
 1253ERGO    R316074  10.107   2.218   6.825 -0.1197  0.0248  0.0696
 1253ERGO    R416075   9.943   2.148   7.059 -0.0360 -0.1540  0.0748
 1253ERGO    R516076  10.031   2.343   7.015 -0.0903 -0.1084  0.1698
 1253ERGO    C116077  10.193   2.271   7.353  0.0243 -0.2836  0.0794
 1253ERGO    C216078  10.377   2.402   7.642 -0.0784  0.0925  0.0936
 1254ERGO   ROH16079   7.390   6.716   6.053 -0.0566  0.0128  0.1137
 1254ERGO    R116080   7.516   6.761   6.303 -0.0005 -0.0790  0.1015
 1254ERGO    R216081   7.433   6.958   6.477  0.1281 -0.0548  0.1279
 1254ERGO    R316082   7.419   6.752   6.653  0.0423 -0.0614  0.1155
 1254ERGO    R416083   7.400   6.994   6.819  0.1012 -0.0521  0.1258
 1254ERGO    R516084   7.541   6.829   6.845  0.0499 -0.1036  0.1333
 1254ERGO    C116085   7.367   6.821   7.184  0.0049 -0.0567  0.1128
 1254ERGO    C216086   7.194   6.824   7.541 -0.2702  0.1151 -0.2650
 1255ERGO   ROH16087   5.359  16.242   6.099 -0.1089  0.2376 -0.0229
 1255ERGO    R116088   5.358  16.177   6.374  0.0473  0.0887 -0.0560
 1255ERGO    R216089   5.589  16.164   6.525  0.1106  0.2585 -0.1365
 1255ERGO    R316090   5.455  16.339   6.685 -0.0321  0.0315 -0.0008
 1255ERGO    R416091   5.671  16.235   6.854  0.0620  0.0892 -0.0865
 1255ERGO    R516092   5.459  16.237   6.902  0.0609 -0.1248 -0.0748
 1255ERGO    C116093   5.594  16.440   7.194 -0.1003 -0.2226  0.0701
 1255ERGO    C216094   5.773  16.365   7.491 -0.0552 -0.2519  0.1751
 1256ERGO   ROH16095  15.747   9.451   5.949  0.1805 -0.1616 -0.1889
 1256ERGO    R116096  15.669   9.343   6.199  0.1074  0.1441 -0.0782
 1256ERGO    R216097  15.755   9.096   6.288 -0.1764  0.1205  0.1024
 1256ERGO    R316098  15.836   9.238   6.505  0.0476  0.1961 -0.0228
 1256ERGO    R416099  15.861   8.958   6.586 -0.4734  0.1912  0.2471
 1256ERGO    R516100  15.752   9.114   6.692 -0.2211  0.5083  0.0879
 1256ERGO    C116101  15.999   9.012   6.964 -0.4359  0.3033  0.2137
 1256ERGO    C216102  15.997   8.997   7.366  0.1803  0.1241 -0.1501
 1257ERGO   ROH16103   8.658  16.213   5.652  0.3838  0.0693  0.1370
 1257ERGO    R116104   8.755  16.376   5.862  0.1098  0.1654  0.1931
 1257ERGO    R216105   8.670  16.636   5.900 -0.1197  0.1060  0.1121
 1257ERGO    R316106   8.613  16.548   6.150 -0.2287  0.0843  0.0796
 1257ERGO    R416107   8.643  16.838   6.179 -0.1072  0.0676  0.1404
 1257ERGO    R516108   8.747  16.685   6.294 -0.2069 -0.0010  0.1415
 1257ERGO    C116109   8.573  16.872   6.577 -0.2024  0.0250  0.1264
 1257ERGO    C216110   8.540  16.826   6.968 -0.0990  0.3796 -0.3356
 1258ERGO   ROH16111  12.531  18.069   5.950  0.0905  0.2172  0.1561
 1258ERGO    R116112  12.533  17.858   6.138 -0.0331  0.0929  0.0211
 1258ERGO    R216113  12.640  17.885   6.391  0.1359 -0.1821 -0.0146
 1258ERGO    R316114  12.395  17.798   6.469  0.0807  0.0331  0.0574
 1258ERGO    R416115  12.566  17.756   6.703  0.1499 -0.2680 -0.0468
 1258ERGO    R516116  12.440  17.607   6.607 -0.0529 -0.0867 -0.0645
 1258ERGO    C116117  12.293  17.600   6.958  0.1064 -0.1160  0.0020
 1258ERGO    C216118  12.305  17.539   7.183 -0.1654  0.0720 -0.0611
 1259ERGO   ROH16119   1.553   2.576   6.086 -0.0553 -0.0379  0.1409
 1259ERGO    R116120   1.498   2.612   6.361 -0.2160 -0.2811  0.1432
 1259ERGO    R216121   1.476   2.400   6.537  0.4441 -0.4174  0.0847
 1259ERGO    R316122   1.665   2.538   6.676 -0.0032  0.1758  0.1450
 1259ERGO    R416123   1.492   2.421   6.882  0.3901 -0.5459  0.0962
 1259ERGO    R516124   1.546   2.632   6.861 -0.3303 -0.3236  0.2047
 1259ERGO    C116125   1.678   2.563   7.213 -0.0612 -0.0638  0.1595
 1259ERGO    C216126   1.611   2.718   7.553  0.1490  0.1842  0.2951
 1260ERGO   ROH16127   9.270   5.431   6.263 -0.1809  0.0236 -0.0795
 1260ERGO    R116128   9.338   5.329   6.518 -0.1740 -0.0308 -0.1034
 1260ERGO    R216129   9.300   5.472   6.750 -0.1024 -0.0545 -0.0804
 1260ERGO    R316130   9.163   5.250   6.827 -0.1514 -0.0271 -0.0881
 1260ERGO    R416131   9.187   5.412   7.072  0.1184 -0.1503 -0.0190
 1260ERGO    R516132   9.246   5.203   7.047  0.0009 -0.1729 -0.1706
 1260ERGO    C116133   8.993   5.169   7.331  0.2010 -0.1805  0.0095
 1260ERGO    C216134   8.829   5.292   7.597  0.0118  0.0115 -0.2269
 1261ERGO   ROH16135  17.198  10.641   6.284 -0.3678  0.0116  0.0042
 1261ERGO    R116136  17.157  10.482   6.514  0.0319 -0.1141 -0.0007
 1261ERGO    R216137  17.361  10.413   6.686  0.2397  0.2947 -0.0590
 1261ERGO    R316138  17.196  10.521   6.873  0.0501 -0.0679 -0.0101
 1261ERGO    R416139  17.386  10.359   7.027  0.3394  0.2225 -0.0783
 1261ERGO    R516140  17.169  10.347   7.036  0.3633 -0.1709 -0.0705
 1261ERGO    C116141  17.246  10.429   7.401  0.2197 -0.1598 -0.0436
 1261ERGO    C216142  17.505  10.388   7.652  0.3362  0.1990 -0.0127
 1262ERGO   ROH16143  13.134  16.735   6.217 -0.1238  0.0340  0.0545
 1262ERGO    R116144  13.009  16.796   6.464 -0.1215  0.0759  0.0454
 1262ERGO    R216145  13.031  16.634   6.686 -0.3297 -0.0194  0.0001
 1262ERGO    R316146  13.117  16.863   6.805 -0.1329 -0.1380  0.0921
 1262ERGO    R416147  13.025  16.695   7.027 -0.3747 -0.1081  0.0153
 1262ERGO    R516148  12.962  16.899   6.984 -0.1537 -0.0303  0.0523
 1262ERGO    C116149  13.101  16.945   7.336 -0.2162 -0.2709  0.1105
 1262ERGO    C216150  13.171  16.787   7.612 -0.0306 -0.1289 -0.1130
 1263ERGO   ROH16151  17.983  14.555   6.436 -0.0325  0.0577  0.0549
 1263ERGO    R116152  18.007  14.583   6.717 -0.0256  0.0190  0.0585
 1263ERGO    R216153  17.795  14.543   6.890  0.0071 -0.1253  0.0690
 1263ERGO    R316154  17.967  14.369   7.008  0.1095 -0.0574  0.0213
 1263ERGO    R416155  17.758  14.415   7.209  0.2168 -0.0445  0.1269
 1263ERGO    R516156  17.973  14.438   7.238  0.2277  0.0065 -0.0017
 1263ERGO    C116157  17.898  14.177   7.506  0.4349  0.0665  0.1159
 1263ERGO    C216158  17.674  14.192   7.771  0.0069 -0.1891 -0.0644
 1264ERGO   ROH16159   9.402  15.354   5.899  0.0114 -0.0658 -0.0759
 1264ERGO    R116160   9.358  15.308   6.175 -0.0628 -0.1500 -0.1000
 1264ERGO    R216161   9.421  15.069   6.298  0.1843 -0.0910 -0.0917
 1264ERGO    R316162   9.562  15.230   6.466 -0.0959  0.0785 -0.0156
 1264ERGO    R416163   9.472  15.008   6.634  0.0618 -0.0041 -0.0579
 1264ERGO    R516164   9.442  15.220   6.673 -0.2002 -0.0410 -0.0865
 1264ERGO    C116165   9.634  15.124   6.988 -0.2726  0.2056  0.0331
 1264ERGO    C216166   9.886  15.057   7.286  0.3569  0.3366 -0.2422
 1265ERGO   ROH16167   3.492   3.822   6.000  0.2917 -0.1530 -0.1364
 1265ERGO    R116168   3.379   3.829   6.260  0.1933 -0.0670 -0.1808
 1265ERGO    R216169   3.532   3.811   6.489  0.1083  0.0215 -0.1153
 1265ERGO    R316170   3.405   4.043   6.554  0.0719  0.0382 -0.2453
 1265ERGO    R416171   3.453   3.911   6.811 -0.2182  0.0280 -0.1940
 1265ERGO    R516172   3.262   3.984   6.736 -0.1307  0.0560 -0.3958
 1265ERGO    C116173   3.289   4.187   7.058 -0.4425  0.0476 -0.3619
 1265ERGO    C216174   3.309   4.440   7.308 -0.3062 -0.0311 -0.2547
 1266ERGO   ROH16175  16.265  14.906   6.556  0.0438  0.0898 -0.1139
 1266ERGO    R116176  16.329  15.021   6.807  0.0370  0.1609 -0.1435
 1266ERGO    R216177  16.190  15.236   6.912 -0.0623  0.1019 -0.1391
 1266ERGO    R316178  16.160  15.071   7.125  0.0791  0.1088 -0.1145
 1266ERGO    R416179  16.141  15.342   7.237  0.0895  0.1017 -0.1162
 1266ERGO    R516180  16.275  15.183   7.303  0.1493  0.1327 -0.1794
 1266ERGO    C116181  16.084  15.248   7.627  0.3104  0.1082 -0.0798
 1266ERGO    C216182  15.928  15.413   7.851 -0.0658 -0.1786  0.0151
 1267ERGO   ROH16183  13.250   0.658   6.506  0.0947 -0.0809 -0.0207
 1267ERGO    R116184  13.233   0.588   6.780 -0.0299 -0.0128 -0.0116
 1267ERGO    R216185  13.434   0.451   6.912 -0.1509 -0.0924  0.0771
 1267ERGO    R316186  13.421   0.661   7.084 -0.0874 -0.0529  0.0366
 1267ERGO    R416187  13.583   0.461   7.224  0.1359  0.0378 -0.0586
 1267ERGO    R516188  13.404   0.560   7.300  0.1527 -0.0179  0.0813
 1267ERGO    C116189  13.657   0.664   7.567  0.3627  0.1506 -0.1755
 1267ERGO    C216190  13.754   0.550   7.865 -0.0610  0.1253 -0.3205
 1268ERGO   ROH16191   2.341  16.737   6.568  0.2945  0.0219  0.0918
 1268ERGO    R116192   2.222  16.895   6.770  0.0919 -0.1355  0.1005
 1268ERGO    R216193   2.115  16.787   7.001  0.3106 -0.2812  0.1406
 1268ERGO    R316194   2.283  16.962   7.123  0.0738 -0.0028  0.0777
 1268ERGO    R416195   2.164  16.808   7.342  0.4142 -0.1975  0.1211
 1268ERGO    R516196   2.168  17.025   7.323  0.0502 -0.1904  0.1208
 1268ERGO    C116197   2.350  16.985   7.656  0.2522  0.1129  0.0507
 1268ERGO    C216198   2.480  16.836   7.952  0.3023 -0.0018  0.0913
 1269ERGO   ROH16199  11.140   9.199   6.531 -0.0491 -0.3192 -0.1017
 1269ERGO    R116200  11.149   9.299   6.796 -0.1322 -0.2092 -0.1405
 1269ERGO    R216201  11.028   9.169   7.008 -0.1036 -0.1781 -0.1085
 1269ERGO    R316202  11.276   9.185   7.117 -0.1268 -0.0223 -0.0746
 1269ERGO    R416203  11.098   9.147   7.346 -0.1435 -0.0760 -0.0927
 1269ERGO    R516204  11.244   9.306   7.321 -0.2244  0.0010 -0.1013
 1269ERGO    C116205  11.372   9.150   7.645 -0.1887  0.1298 -0.0517
 1269ERGO    C216206  11.260   8.853   7.932 -0.0268  0.0334 -0.1986
 1270ERGO   ROH16207   9.117   3.497   6.358  0.0422 -0.0745  0.0662
 1270ERGO    R116208   8.955   3.393   6.565  0.1145 -0.2787  0.0224
 1270ERGO    R216209   9.049   3.211   6.750  0.3358 -0.0615  0.1292
 1270ERGO    R316210   8.957   3.394   6.929 -0.0607 -0.1483  0.0244
 1270ERGO    R416211   8.985   3.146   7.083  0.4042 -0.0290  0.1488
 1270ERGO    R516212   8.806   3.271   7.068  0.1537 -0.3841  0.0551
 1270ERGO    C116213   8.861   3.281   7.445  0.0718 -0.0915  0.0619
 1270ERGO    C216214   9.146   3.227   7.650 -0.0383  0.1921  0.0454
 1271ERGO   ROH16215  13.700  10.049   6.547 -0.1311  0.0742  0.1647
 1271ERGO    R116216  13.623   9.891   6.769 -0.0878  0.1511  0.2354
 1271ERGO    R216217  13.760   9.663   6.844 -0.2740 -0.0201  0.0744
 1271ERGO    R316218  13.771   9.789   7.085  0.1277 -0.0428  0.0749
 1271ERGO    R416219  13.756   9.503   7.151 -0.2269 -0.0272  0.0713
 1271ERGO    R516220  13.625   9.661   7.225  0.0665  0.1621  0.2010
 1271ERGO    C116221  13.764   9.528   7.555  0.1778 -0.0527  0.0700
 1271ERGO    C216222  13.985   9.432   7.852 -0.1998  0.0155  0.1080
 1272ERGO   ROH16223   0.147   6.658   6.392 -0.1281 -0.1098 -0.0118
 1272ERGO    R116224   0.168   6.730   6.665 -0.0436 -0.0943 -0.0231
 1272ERGO    R216225   0.409   6.733   6.801 -0.0103 -0.1296 -0.0886
 1272ERGO    R316226   0.337   6.988   6.859  0.0537 -0.1115 -0.0831
 1272ERGO    R416227   0.508   6.906   7.083  0.1907 -0.0958 -0.1769
 1272ERGO    R516228   0.306   6.989   7.096  0.2052 -0.0715 -0.0609
 1272ERGO    C116229   0.497   7.247   7.301  0.3678 -0.0591 -0.2232
 1272ERGO    C216230   0.608   7.292   7.632 -0.1986  0.1967  0.0778
 1273ERGO   ROH16231   5.562   0.591   6.222  0.0729 -0.1666 -0.1432
 1273ERGO    R116232   5.571   0.477   6.481  0.1514 -0.2050 -0.1617
 1273ERGO    R216233   5.792   0.499   6.645  0.1060  0.0037 -0.1169
 1273ERGO    R316234   5.611   0.598   6.822 -0.0361 -0.2194 -0.1355
 1273ERGO    R416235   5.837   0.514   6.987  0.0182  0.0124 -0.1061
 1273ERGO    R516236   5.629   0.454   7.013  0.0825 -0.2195 -0.1519
 1273ERGO    C116237   5.693   0.615   7.352 -0.1663 -0.1920 -0.1173
 1273ERGO    C216238   5.609   0.779   7.693  0.1012 -0.0975  0.0235
 1274ERGO   ROH16239  15.599  17.195   6.348 -0.3803  0.1816  0.1029
 1274ERGO    R116240  15.703  17.439   6.447 -0.0404  0.0731  0.0260
 1274ERGO    R216241  15.592  17.571   6.664  0.0781  0.3449 -0.0773
 1274ERGO    R316242  15.846  17.557   6.760  0.0275  0.0005  0.0235
 1274ERGO    R416243  15.683  17.638   6.990  0.0478  0.3097 -0.0612
 1274ERGO    R516244  15.860  17.740   6.915  0.2323  0.0310 -0.0255
 1274ERGO    C116245  15.974  17.665   7.271 -0.0173 -0.0339  0.0428
 1274ERGO    C216246  16.235  17.452   7.388 -0.0397  0.0574  0.4003
 1275ERGO   ROH16247   3.830   4.167   6.016  0.0470  0.1735  0.1002
 1275ERGO    R116248   3.787   4.108   6.289  0.0185  0.0056  0.0601
 1275ERGO    R216249   3.994   4.087   6.472 -0.0054 -0.0572  0.0781
 1275ERGO    R316250   3.849   4.272   6.608 -0.0633 -0.1669  0.1668
 1275ERGO    R416251   4.025   4.153   6.809  0.2248  0.0297  0.0420
 1275ERGO    R516252   3.809   4.170   6.821  0.2131 -0.1704  0.2228
 1275ERGO    C116253   3.907   4.364   7.135  0.3044 -0.0227  0.1042
 1275ERGO    C216254   4.091   4.499   7.340  0.3920  0.1272  0.1462
 1276ERGO   ROH16255   5.428   7.997   6.022 -0.1746 -0.1815  0.0566
 1276ERGO    R116256   5.385   8.094   6.285 -0.3578 -0.1254  0.0066
 1276ERGO    R216257   5.243   7.953   6.475 -0.1117 -0.2900  0.0679
 1276ERGO    R316258   5.468   7.989   6.623 -0.1744  0.1891  0.0649
 1276ERGO    R416259   5.252   7.965   6.820 -0.1130 -0.5334  0.0786
 1276ERGO    R516260   5.398   8.127   6.806 -0.5275 -0.1256  0.1823
 1276ERGO    C116261   5.469   8.005   7.160 -0.1727 -0.2253  0.0819
 1276ERGO    C216262   5.449   8.124   7.489 -0.1720 -0.0602  0.0516
 1277ERGO   ROH16263  11.964  11.338   6.343  0.0360 -0.1040 -0.0702
 1277ERGO    R116264  11.938  11.474   6.589 -0.2382  0.0478 -0.1789
 1277ERGO    R216265  11.699  11.484   6.729 -0.2684 -0.3152 -0.1925
 1277ERGO    R316266  11.852  11.387   6.932 -0.0672  0.1476 -0.1097
 1277ERGO    R416267  11.606  11.479   7.062 -0.3383 -0.3893 -0.2133
 1277ERGO    R516268  11.810  11.536   7.115 -0.4768  0.1381 -0.1873
 1277ERGO    C116269  11.696  11.385   7.446 -0.1902  0.0021 -0.1478
 1277ERGO    C216270  11.678  11.226   7.777 -0.2641  0.1149 -0.3912
 1278ERGO   ROH16271   1.965  10.199   6.051 -0.0743 -0.2393 -0.0035
 1278ERGO    R116272   2.026  10.038   6.276 -0.0373 -0.0924  0.0932
 1278ERGO    R216273   2.276  10.034   6.392  0.0336 -0.1479 -0.0516
 1278ERGO    R316274   2.138  10.094   6.618  0.2017  0.1244 -0.0179
 1278ERGO    R416275   2.404  10.014   6.713  0.1743 -0.0483 -0.1008
 1278ERGO    R516276   2.212   9.932   6.778  0.1359  0.1655  0.0511
 1278ERGO    C116277   2.348  10.059   7.112  0.4140  0.2654 -0.0979
 1278ERGO    C216278   2.425  10.208   7.346  0.3239  0.0759  0.0351
 1279ERGO   ROH16279  13.164   3.804   6.097  0.1335 -0.0247 -0.0697
 1279ERGO    R116280  13.155   3.679   6.351 -0.0613  0.0935 -0.0165
 1279ERGO    R216281  13.384   3.603   6.488 -0.1741 -0.1371  0.0459
 1279ERGO    R316282  13.275   3.753   6.686 -0.0139  0.0871 -0.0312
 1279ERGO    R416283  13.504   3.621   6.811 -0.1930 -0.1556  0.0542
 1279ERGO    R516284  13.298   3.619   6.883 -0.2107  0.1348  0.0290
 1279ERGO    C116285  13.471   3.772   7.186 -0.0536  0.0441 -0.0131
 1279ERGO    C216286  13.810   3.693   7.355 -0.4829 -0.1102  0.0004
 1280ERGO   ROH16287   5.981  13.883   6.073 -0.1175  0.1780  0.1191
 1280ERGO    R116288   6.145  14.018   6.261 -0.1409  0.2946  0.0564
 1280ERGO    R216289   6.044  14.125   6.496 -0.0964  0.0422  0.1918
 1280ERGO    R316290   6.238  13.973   6.610  0.1997  0.2345 -0.0385
 1280ERGO    R416291   6.176  14.177   6.811 -0.1049 -0.0904  0.2181
 1280ERGO    R516292   6.373  14.129   6.731 -0.0350  0.3359  0.1029
 1280ERGO    C116293   6.435  14.065   7.102  0.1681  0.0129  0.0172
 1280ERGO    C216294   6.659  14.213   7.349 -0.2565  0.2413 -0.0812
 1281ERGO   ROH16295  11.869   9.988   6.732  0.0832 -0.1964  0.0140
 1281ERGO    R116296  11.754   9.946   6.987  0.0320 -0.0280  0.0197
 1281ERGO    R216297  11.901   9.956   7.221  0.0157 -0.0289  0.0316
 1281ERGO    R316298  11.713  10.139   7.293  0.1203  0.1152 -0.0578
 1281ERGO    R416299  11.810  10.029   7.547 -0.1015  0.0197 -0.0119
 1281ERGO    R516300  11.603  10.040   7.481 -0.0591  0.1884 -0.1228
 1281ERGO    C116301  11.581  10.242   7.804 -0.0718  0.1833 -0.1213
 1281ERGO    C216302  11.556  10.474   8.044 -0.1516  0.1594  0.0448
 1282ERGO   ROH16303   5.173   1.380   6.140 -0.1592  0.0020 -0.0330
 1282ERGO    R116304   5.304   1.394   6.391  0.0085 -0.1028 -0.1120
 1282ERGO    R216305   5.242   1.586   6.580  0.2858 -0.0434 -0.0733
 1282ERGO    R316306   5.207   1.369   6.740  0.1997 -0.0136 -0.0523
 1282ERGO    R416307   5.300   1.581   6.921  0.4375 -0.0847 -0.0991
 1282ERGO    R516308   5.386   1.382   6.898  0.2793 -0.1465 -0.1347
 1282ERGO    C116309   5.300   1.374   7.270  0.4450 -0.0808 -0.0944
 1282ERGO    C216310   5.385   1.430   7.612  0.0421  0.1899  0.2215
 1283ERGO   ROH16311   9.875  13.298   6.196  0.1120  0.2687  0.0096
 1283ERGO    R116312   9.747  13.227   6.438  0.0662  0.2307 -0.0265
 1283ERGO    R216313   9.886  13.142   6.661  0.0158  0.1221 -0.0420
 1283ERGO    R316314   9.749  13.343   6.784  0.0609  0.1203  0.0131
 1283ERGO    R416315   9.791  13.141   6.994  0.1230  0.0915 -0.0107
 1283ERGO    R516316   9.600  13.230   6.934  0.1019  0.1061  0.0514
 1283ERGO    C116317   9.607  13.329   7.302  0.2277  0.0718  0.0591
 1283ERGO    C216318   9.487  13.303   7.644  0.0710 -0.0314 -0.1746
 1284ERGO   ROH16319  12.160   2.708   6.037  0.0382  0.0010 -0.0387
 1284ERGO    R116320  12.028   2.840   6.250  0.0381 -0.0314 -0.0199
 1284ERGO    R216321  11.769   2.778   6.326  0.0536 -0.0685 -0.0075
 1284ERGO    R316322  11.884   2.745   6.570  0.0729 -0.0719 -0.0157
 1284ERGO    R416323  11.628   2.876   6.625  0.0485 -0.1309  0.0120
 1284ERGO    R516324  11.824   2.943   6.691  0.0384 -0.0969  0.0097
 1284ERGO    C116325  11.652   2.903   7.029  0.0637 -0.1704  0.0157
 1284ERGO    C216326  11.393   2.736   7.388 -0.2836 -0.2426 -0.0461
 1285ERGO   ROH16327  13.928  11.225   6.370 -0.1895  0.1694  0.1617
 1285ERGO    R116328  13.887  11.303   6.639 -0.0944  0.1238  0.1904
 1285ERGO    R216329  13.707  11.176   6.805 -0.0184  0.0785  0.2420
 1285ERGO    R316330  13.924  11.151   6.967  0.0485  0.0759  0.1521
 1285ERGO    R416331  13.696  11.172   7.151  0.1149 -0.0503  0.2455
 1285ERGO    R516332  13.876  11.295   7.153  0.0821 -0.0053  0.2223
 1285ERGO    C116333  13.893  11.146   7.504  0.2552 -0.1276  0.1632
 1285ERGO    C216334  13.671  11.136   7.745 -0.0636  0.3441 -0.1337
 1286ERGO   ROH16335   0.045   1.321   6.273 -0.4130  0.2958 -0.0462
 1286ERGO    R116336  -0.024   1.202   6.520 -0.2185  0.0716 -0.0983
 1286ERGO    R216337  -0.079   1.351   6.746 -0.0645 -0.1366  0.0649
 1286ERGO    R316338  -0.310   1.208   6.745 -0.0541 -0.1592  0.1277
 1286ERGO    R416339  -0.264   1.274   7.028 -0.1135  0.0958  0.1004
 1286ERGO    R516340  -0.298   1.075   6.945 -0.0774  0.0091  0.2549
 1286ERGO    C116341  -0.589   1.095   7.191 -0.1321  0.2100  0.1801
 1286ERGO    C216342  -0.774   1.240   7.514 -0.0280 -0.1650  0.2174
 1287ERGO   ROH16343  13.464   1.645   5.850  0.0611 -0.0457  0.1938
 1287ERGO    R116344  13.444   1.502   6.094  0.0069 -0.0023  0.2158
 1287ERGO    R216345  13.641   1.510   6.288 -0.0011 -0.0254  0.2287
 1287ERGO    R316346  13.433   1.583   6.448  0.0076  0.0583  0.2014
 1287ERGO    R416347  13.645   1.503   6.634 -0.0273  0.0445  0.2302
 1287ERGO    R516348  13.441   1.427   6.630 -0.0437  0.0954  0.2332
 1287ERGO    C116349  13.454   1.567   6.985 -0.0344  0.1638  0.2054
 1287ERGO    C216350  13.517   1.598   7.263 -0.8486 -0.1918  0.0026
 1288ERGO   ROH16351   6.171   2.630   5.874  0.0125  0.1138 -0.0575
 1288ERGO    R116352   6.012   2.647   6.108  0.0583  0.1732 -0.0315
 1288ERGO    R216353   6.121   2.669   6.361  0.1068  0.2372 -0.0617
 1288ERGO    R316354   5.961   2.888   6.376  0.1084  0.2411 -0.0813
 1288ERGO    R416355   6.040   2.833   6.653 -0.0561  0.1386 -0.0490
 1288ERGO    R516356   5.836   2.856   6.578 -0.0138  0.1748 -0.1630
 1288ERGO    C116357   5.842   3.135   6.838 -0.1494  0.0848 -0.0601
 1288ERGO    C216358   5.998   3.322   7.116 -0.2010  0.0600 -0.1645
 1289ERGO   ROH16359  10.472   1.311   6.119 -0.1652 -0.0621  0.0062
 1289ERGO    R116360  10.484   1.218   6.386 -0.1442 -0.2234 -0.0509
 1289ERGO    R216361  10.543   1.383   6.599  0.0976 -0.3979  0.0169
 1289ERGO    R316362  10.310   1.285   6.698  0.0450 -0.2343  0.0604
 1289ERGO    R416363  10.453   1.389   6.932  0.1145 -0.2159  0.0201
 1289ERGO    R516364  10.371   1.188   6.908  0.0035 -0.1868  0.0990
 1289ERGO    C116365  10.181   1.299   7.220  0.0750  0.0436  0.0629
 1289ERGO    C216366   9.956   1.085   7.539  0.0420 -0.0277 -0.2248
 1290ERGO   ROH16367   7.420   1.019   6.130 -0.1491 -0.0739 -0.0108
 1290ERGO    R116368   7.599   1.049   6.347 -0.2804  0.0330  0.0859
 1290ERGO    R216369   7.516   1.053   6.610 -0.4114 -0.1337  0.0521
 1290ERGO    R316370   7.700   0.854   6.637 -0.2297  0.0345  0.0682
 1290ERGO    R416371   7.714   1.002   6.889 -0.3408  0.0806  0.0419
 1290ERGO    R516372   7.880   0.955   6.757 -0.3105  0.2111  0.0385
 1290ERGO    C116373   8.001   0.786   7.076 -0.1292  0.3632  0.0510
 1290ERGO    C216374   8.128   0.654   7.369 -0.1596  0.0340 -0.2437
 1291ERGO   ROH16375  13.448  13.013   6.302  0.0789 -0.2402  0.1151
 1291ERGO    R116376  13.362  12.957   6.566 -0.0116 -0.2694  0.0795
 1291ERGO    R216377  13.522  12.825   6.749 -0.0011 -0.1157  0.1777
 1291ERGO    R316378  13.470  13.044   6.902 -0.2523 -0.1355  0.1254
 1291ERGO    R416379  13.521  12.829   7.095  0.0321 -0.0344  0.1775
 1291ERGO    R516380  13.346  12.958   7.088 -0.1318 -0.2455  0.1607
 1291ERGO    C116381  13.470  13.037   7.440 -0.1844 -0.0056  0.1281
 1291ERGO    C216382  13.604  13.327   7.650 -0.0373 -0.0755  0.2119
 1292ERGO   ROH16383  10.635  12.732   6.147  0.3323  0.1802 -0.3379
 1292ERGO    R116384  10.775  12.880   6.343  0.0028  0.2220 -0.1258
 1292ERGO    R216385  10.651  13.067   6.506 -0.3487 -0.0216 -0.1012
 1292ERGO    R316386  10.763  12.919   6.704 -0.3388 -0.0222 -0.1076
 1292ERGO    R416387  10.685  13.170   6.834 -0.1482  0.0546 -0.1446
 1292ERGO    R516388  10.882  13.078   6.837 -0.1957 -0.0477 -0.2058
 1292ERGO    C116389  10.809  13.091   7.211 -0.0221  0.0984 -0.1759
 1292ERGO    C216390  11.022  13.275   7.346  0.0577 -0.1782  0.2841
 1293ERGO   ROH16391  11.207   7.422   6.230  0.0894  0.1448 -0.0205
 1293ERGO    R116392  11.223   7.477   6.508  0.1036  0.1890 -0.0310
 1293ERGO    R216393  11.127   7.712   6.618 -0.1423  0.0836 -0.0286
 1293ERGO    R316394  10.988   7.541   6.778  0.1044 -0.0644  0.0346
 1293ERGO    R416395  10.975   7.799   6.917  0.0320 -0.0984  0.1168
 1293ERGO    R516396  11.043   7.610   7.001  0.2374 -0.0822  0.0136
 1293ERGO    C116397  10.757   7.690   7.240  0.3649 -0.3434  0.2606
 1293ERGO    C216398  10.544   7.662   7.400  0.0019  0.0163 -0.0987
 1294ERGO   ROH16399  11.344  13.015   5.997  0.1796  0.1929  0.1043
 1294ERGO    R116400  11.245  12.839   6.195 -0.0626  0.2144  0.0047
 1294ERGO    R216401  11.390  12.772   6.420 -0.1386 -0.1353 -0.0480
 1294ERGO    R316402  11.167  12.857   6.550 -0.0067  0.1135  0.0227
 1294ERGO    R416403  11.321  12.712   6.753 -0.0554  0.0304  0.0008
 1294ERGO    R516404  11.112  12.677   6.698 -0.1134  0.2076  0.0999
 1294ERGO    C116405  11.071  12.757   7.069  0.1166  0.3605  0.0956
 1294ERGO    C216406  11.266  12.772   7.317 -0.5458 -0.1153  0.1004
 1295ERGO   ROH16407  12.804   7.073   6.452  0.0401  0.3188 -0.0905
 1295ERGO    R116408  12.734   6.914   6.676 -0.1567  0.2117 -0.2259
 1295ERGO    R216409  12.876   6.919   6.913 -0.1499 -0.1623 -0.2179
 1295ERGO    R316410  12.632   6.972   7.021 -0.0897  0.0445 -0.1764
 1295ERGO    R416411  12.759   6.787   7.210 -0.1901 -0.0154 -0.1666
 1295ERGO    R516412  12.563   6.764   7.116 -0.2291  0.1139 -0.1213
 1295ERGO    C116413  12.462   6.760   7.484 -0.1570  0.2641 -0.0978
 1295ERGO    C216414  12.440   6.733   7.834  0.1719 -0.2110 -0.1582
 1296ERGO   ROH16415  11.575   4.238   6.192  0.1956  0.0321  0.0277
 1296ERGO    R116416  11.591   4.348   6.452  0.0650  0.1466 -0.0124
 1296ERGO    R216417  11.393   4.312   6.641  0.0301  0.1258 -0.0591
 1296ERGO    R316418  11.598   4.220   6.793  0.0298  0.2920  0.0448
 1296ERGO    R416419  11.381   4.272   6.984 -0.1327  0.0838 -0.0684
 1296ERGO    R516420  11.584   4.349   6.995 -0.2008  0.2658  0.0526
 1296ERGO    C116421  11.567   4.162   7.327 -0.2276  0.2154  0.0237
 1296ERGO    C216422  11.438   4.078   7.689 -0.0126 -0.0455 -0.0306
 1297ERGO   ROH16423   8.180  15.387   7.498  0.1645 -0.1006  0.1822
 1297ERGO    R116424   8.010  15.191   7.386 -0.0256  0.0236  0.2493
 1297ERGO    R216425   8.106  14.975   7.243 -0.2539  0.0922 -0.0101
 1297ERGO    R316426   7.959  14.832   7.422 -0.0850  0.0110  0.0675
 1297ERGO    R416427   8.119  14.631   7.281 -0.2853  0.0616 -0.2548
 1297ERGO    R516428   7.903  14.631   7.306 -0.2641  0.0987 -0.0078
 1297ERGO    C116429   7.989  14.298   7.471 -0.1451 -0.0325 -0.3244
 1297ERGO    C216430   7.963  13.843   7.596 -0.0073  0.3512  0.1891
 1298ERGO   ROH16431   1.842  13.512   6.430 -0.0836  0.1079  0.0071
 1298ERGO    R116432   1.658  13.519   6.645 -0.0842  0.0479  0.0084
 1298ERGO    R216433   1.653  13.325   6.842 -0.0437  0.0260 -0.0113
 1298ERGO    R316434   1.677  13.539   7.008 -0.0865  0.0144  0.0101
 1298ERGO    R416435   1.620  13.312   7.186  0.4917 -0.1149  0.0447
 1298ERGO    R516436   1.511  13.501   7.177  0.2149 -0.2591  0.2563
 1298ERGO    C116437   1.623  13.506   7.542  0.7633 -0.2077  0.0975
 1298ERGO    C216438   1.538  13.390   7.871  0.2991 -0.0875  0.3424
 1299ERGO   ROH16439   7.374  12.219   5.648  0.1420 -0.0265 -0.1264
 1299ERGO    R116440   7.368  12.190   5.930  0.0196  0.0083 -0.1244
 1299ERGO    R216441   7.512  11.996   6.063 -0.0892 -0.0188 -0.0413
 1299ERGO    R316442   7.608  12.208   6.203 -0.0849 -0.0290 -0.0297
 1299ERGO    R416443   7.622  11.983   6.390 -0.0596 -0.0446 -0.0527
 1299ERGO    R516444   7.525  12.175   6.425 -0.0631 -0.0525 -0.0260
 1299ERGO    C116445   7.776  12.174   6.712 -0.0384 -0.0693 -0.0485
 1299ERGO    C216446   8.094  12.159   6.917 -0.1719  0.1010 -0.0846
 1300ERGO   ROH16447  13.594  18.205   6.271 -0.0655 -0.0838  0.1567
 1300ERGO    R116448  13.494  18.180   6.535 -0.2229 -0.0520  0.1043
 1300ERGO    R216449  13.628  18.279   6.754 -0.0954 -0.4546  0.2333
 1300ERGO    R316450  13.392  18.405   6.802  0.1318 -0.0008  0.1976
 1300ERGO    R416451  13.490  18.325   7.068 -0.1759 -0.3882  0.1859
 1300ERGO    R516452  13.294  18.280   6.983 -0.2249  0.0763  0.0546
 1300ERGO    C116453  13.188  18.470   7.296 -0.0092  0.0764  0.1248
 1300ERGO    C216454  13.004  18.429   7.595  0.3337  0.1534 -0.2013
 1301ERGO   ROH16455   8.687  13.865   6.012  0.0203  0.0152 -0.1015
 1301ERGO    R116456   8.777  13.712   6.232  0.0802  0.0727 -0.0866
 1301ERGO    R216457   8.860  13.828   6.469 -0.1150  0.1226 -0.0444
 1301ERGO    R316458   8.675  13.661   6.578 -0.0006 -0.0636 -0.1293
 1301ERGO    R416459   8.827  13.762   6.807 -0.0645 -0.0746 -0.0762
 1301ERGO    R516460   8.790  13.553   6.758  0.0790 -0.0785 -0.1860
 1301ERGO    C116461   8.634  13.567   7.106  0.0722 -0.3642 -0.1744
 1301ERGO    C216462   8.455  13.628   7.423 -0.2027 -0.1973 -0.1486
 1302ERGO   ROH16463  12.933  10.511   6.682 -0.2405 -0.0541  0.0481
 1302ERGO    R116464  12.843  10.514   6.951 -0.0941 -0.1033  0.0993
 1302ERGO    R216465  12.813  10.284   7.100 -0.0730 -0.1375  0.0529
 1302ERGO    R316466  12.974  10.416   7.275  0.0579 -0.2271  0.0011
 1302ERGO    R416467  12.797  10.255   7.444 -0.0363 -0.0589  0.0615
 1302ERGO    R516468  12.831  10.470   7.459  0.1307 -0.0818  0.0157
 1302ERGO    C116469  12.939  10.361   7.809  0.1080 -0.0972  0.0178
 1302ERGO    C216470  12.974  10.282   8.149  0.0463  0.0405 -0.1043
 1303ERGO   ROH16471   1.430   3.075   6.208  0.2986  0.0585  0.0036
 1303ERGO    R116472   1.238   3.074   6.416  0.0434  0.1391 -0.2273
 1303ERGO    R216473   1.300   3.006   6.677 -0.3530 -0.1378 -0.1964
 1303ERGO    R316474   1.189   3.248   6.732 -0.1184 -0.0376 -0.1527
 1303ERGO    R416475   1.318   3.167   6.982 -0.0498 -0.1266 -0.2171
 1303ERGO    R516476   1.110   3.228   6.957 -0.0136  0.0478 -0.1079
 1303ERGO    C116477   1.224   3.488   7.211  0.3469 -0.0260 -0.1882
 1303ERGO    C216478   1.309   3.661   7.549 -0.0150  0.0364  0.0308
 1304ERGO   ROH16479   8.350   6.275   6.562 -0.1053  0.1060 -0.0613
 1304ERGO    R116480   8.221   6.024   6.577 -0.1019  0.1098  0.0231
 1304ERGO    R216481   8.271   5.820   6.397 -0.1790  0.0906  0.0294
 1304ERGO    R316482   8.322   5.677   6.622 -0.0890  0.1125  0.0245
 1304ERGO    R416483   8.307   5.477   6.409  0.1605  0.1204 -0.0123
 1304ERGO    R516484   8.194   5.476   6.596  0.1129 -0.0149 -0.0351
 1304ERGO    C116485   8.376   5.142   6.628  0.4427  0.1583 -0.0412
 1304ERGO    C216486   8.401   4.747   6.750 -0.0682 -0.4130  0.0446
 1305ERGO   ROH16487   7.193   4.257   6.343  0.1937  0.1096 -0.0521
 1305ERGO    R116488   6.996   4.374   6.509  0.0767 -0.0662 -0.0646
 1305ERGO    R216489   7.041   4.431   6.776 -0.0020 -0.0532 -0.0535
 1305ERGO    R316490   6.961   4.680   6.702 -0.1975 -0.1106 -0.0401
 1305ERGO    R416491   6.901   4.664   6.989  0.2041 -0.0243  0.0528
 1305ERGO    R516492   6.762   4.719   6.830 -0.0382 -0.1371  0.2215
 1305ERGO    C116493   6.744   5.034   7.045  0.1406 -0.0614  0.1273
 1305ERGO    C216494   6.542   5.260   7.277 -0.1783  0.0856  0.2109
 1306ERGO   ROH16495  11.726  13.902   7.318  0.2201  0.0073  0.0945
 1306ERGO    R116496  11.487  14.042   7.376  0.2343  0.0978 -0.0601
 1306ERGO    R216497  11.365  14.032   7.624  0.0396  0.0971 -0.1544
 1306ERGO    R316498  11.382  14.303   7.606  0.1690  0.0941 -0.0849
 1306ERGO    R416499  11.134  14.254   7.754  0.0912  0.1697 -0.1853
 1306ERGO    R516500  11.156  14.375   7.575  0.2114  0.2032 -0.1500
 1306ERGO    C116501  11.016  14.637   7.814  0.2428  0.2091 -0.1380
 1306ERGO    C216502  10.666  14.802   7.835  0.0231 -0.2282  0.0459
 1307ERGO   ROH16503  12.551   4.670   5.984 -0.2233  0.1597 -0.0258
 1307ERGO    R116504  12.470   4.586   6.243 -0.3118  0.2202 -0.0336
 1307ERGO    R216505  12.651   4.514   6.439 -0.3879 -0.1143 -0.0834
 1307ERGO    R316506  12.518   4.701   6.585 -0.0715  0.0620 -0.0115
 1307ERGO    R416507  12.573   4.486   6.774 -0.1838  0.0192 -0.0223
 1307ERGO    R516508  12.379   4.574   6.732 -0.1160  0.2387  0.1035
 1307ERGO    C116509  12.403   4.645   7.106  0.2319  0.2624  0.0808
 1307ERGO    C216510  12.376   4.643   7.440  0.0809  0.1447 -0.2884
 1308ERGO   ROH16511  10.694   3.519   6.179  0.1312 -0.5701 -0.0403
 1308ERGO    R116512  10.729   3.405   6.435 -0.0226 -0.3152  0.0997
 1308ERGO    R216513  10.820   3.550   6.652 -0.0008 -0.1337 -0.0269
 1308ERGO    R316514  10.593   3.456   6.769 -0.0989  0.1361  0.0058
 1308ERGO    R416515  10.787   3.480   6.989  0.0613 -0.3685 -0.0677
 1308ERGO    R516516  10.672   3.302   6.936 -0.2610 -0.1400 -0.1652
 1308ERGO    C116517  10.555   3.352   7.295  0.0053 -0.2519 -0.0609
 1308ERGO    C216518  10.499   3.308   7.666  0.2441 -0.2941 -0.1572
 1309ERGO   ROH16519  14.951   9.857   6.384 -0.0669 -0.1827 -0.0794
 1309ERGO    R116520  14.842   9.748   6.621 -0.1274 -0.2451 -0.1348
 1309ERGO    R216521  14.942   9.519   6.739 -0.0467 -0.1843 -0.0755
 1309ERGO    R316522  14.960   9.678   6.958 -0.2618 -0.1638 -0.0710
 1309ERGO    R416523  14.987   9.405   7.062 -0.1451 -0.1366 -0.0450
 1309ERGO    R516524  14.846   9.556   7.130 -0.2740 -0.2245 -0.1256
 1309ERGO    C116525  15.031   9.489   7.456 -0.4044 -0.0895 -0.0230
 1309ERGO    C216526  15.119   9.162   7.615  0.0698  0.0887  0.0610
 1310ERGO   ROH16527   9.615   1.662   6.212  0.0043 -0.2049  0.0389
 1310ERGO    R116528   9.641   1.801   6.457  0.1664 -0.2819  0.0654
 1310ERGO    R216529   9.422   1.890   6.602  0.2706  0.1714 -0.0540
 1310ERGO    R316530   9.539   1.749   6.803 -0.1416 -0.1008  0.0092
 1310ERGO    R416531   9.357   1.933   6.939  0.3769  0.5396 -0.0750
 1310ERGO    R516532   9.570   1.908   6.979  0.3329 -0.0814 -0.0668
 1310ERGO    C116533   9.429   1.825   7.323  0.0519  0.4985 -0.0280
 1310ERGO    C216534   9.263   1.891   7.623  0.0224 -0.0886 -0.0572
 1311ERGO   ROH16535  16.106  10.517   6.480  0.1265 -0.1027  0.1673
 1311ERGO    R116536  16.207  10.523   6.744  0.0941  0.0137  0.1770
 1311ERGO    R216537  16.114  10.699   6.935 -0.0661 -0.0332  0.1417
 1311ERGO    R316538  16.074  10.472   7.079  0.0985 -0.0456  0.1699
 1311ERGO    R416539  15.972  10.688   7.250 -0.4356 -0.1320 -0.0217
 1311ERGO    R516540  16.120  10.537   7.305 -0.2706  0.1048  0.2082
 1311ERGO    C116541  15.853  10.469   7.569 -0.4963 -0.2012 -0.0903
 1311ERGO    C216542  15.879  10.406   7.823  0.1635  0.1023  0.0187
 1312ERGO   ROH16543  14.442  11.066   6.445 -0.1011  0.2815  0.0898
 1312ERGO    R116544  14.352  11.095   6.712 -0.0126  0.1293  0.1392
 1312ERGO    R216545  14.237  10.888   6.854  0.0253  0.0430  0.0641
 1312ERGO    R316546  14.431  10.946   7.035  0.0944 -0.0641  0.0223
 1312ERGO    R416547  14.187  10.920   7.195  0.0876  0.3111  0.0484
 1312ERGO    R516548  14.324  11.090   7.194  0.2720  0.1503 -0.0592
 1312ERGO    C116549  14.340  10.994   7.563  0.1887  0.3666  0.0001
 1312ERGO    C216550  14.359  11.068   7.822 -0.0258  0.2541  0.2769
 1313ERGO   ROH16551  10.252  14.708   8.812 -0.1317 -0.0066  0.0469
 1313ERGO    R116552  10.336  14.578   8.575 -0.1191 -0.0125  0.0548
 1313ERGO    R216553  10.559  14.659   8.432 -0.1591  0.0365  0.0185
 1313ERGO    R316554  10.633  14.399   8.463 -0.0773  0.0629  0.0460
 1313ERGO    R416555  10.787  14.492   8.233 -0.0497  0.1041  0.0862
 1313ERGO    R516556  10.659  14.317   8.240  0.0102  0.0618  0.0580
 1313ERGO    C116557  10.990  14.151   8.147  0.0908  0.1682  0.1514
 1313ERGO    C216558  11.102  13.795   7.992  0.0296  0.1685  0.2701
 1314ERGO   ROH16559  17.111   3.706   5.974  0.1034 -0.0011  0.0571
 1314ERGO    R116560  17.060   3.686   6.251 -0.0565  0.0095  0.0293
 1314ERGO    R216561  16.874   3.510   6.356 -0.0673 -0.0350 -0.0666
 1314ERGO    R316562  17.084   3.427   6.506 -0.1324  0.0403  0.0687
 1314ERGO    R416563  16.847   3.332   6.651 -0.1934 -0.1417 -0.1413
 1314ERGO    R516564  17.009   3.452   6.732 -0.3226 -0.0716  0.0217
 1314ERGO    C116565  17.029   3.150   6.963 -0.3278 -0.1332 -0.0578
 1314ERGO    C216566  17.137   3.109   7.258 -0.0224 -0.5596  0.0158
 1315ERGO   ROH16567   0.732   0.678   6.610 -0.3750  0.1410 -0.0844
 1315ERGO    R116568   0.838   0.734   6.867 -0.2453  0.0913 -0.1261
 1315ERGO    R216569   0.687   0.848   7.068 -0.1308  0.0987 -0.0422
 1315ERGO    R316570   0.769   0.630   7.209 -0.1082  0.0658 -0.1062
 1315ERGO    R416571   0.603   0.782   7.397 -0.0859  0.0152 -0.0475
 1315ERGO    R516572   0.807   0.714   7.430 -0.0810  0.0111 -0.0909
 1315ERGO    C116573   0.631   0.539   7.720 -0.0385 -0.0643 -0.1107
 1315ERGO    C216574   0.282   0.585   8.026 -0.2145 -0.0584 -0.1042
 1316ERGO   ROH16575   9.745   8.470   6.220 -0.0919  0.1619 -0.0168
 1316ERGO    R116576   9.618   8.452   6.472 -0.0054  0.0287  0.0175
 1316ERGO    R216577   9.701   8.598   6.691 -0.0021 -0.0023  0.0335
 1316ERGO    R316578   9.441   8.678   6.696 -0.0378 -0.1182  0.1430
 1316ERGO    R416579   9.568   8.825   6.915  0.1060  0.3020 -0.2032
 1316ERGO    R516580   9.390   8.701   6.929  0.1712  0.2324  0.1642
 1316ERGO    C116581   9.247   9.033   7.050  0.1353  0.3703 -0.2382
 1316ERGO    C216582   9.237   9.316   7.199  0.1892 -0.1058 -0.0899
 1317ERGO   ROH16583  11.452  16.855   6.045 -0.1481 -0.0799  0.1243
 1317ERGO    R116584  11.670  16.811   6.220 -0.1078 -0.1595  0.0548
 1317ERGO    R216585  11.677  16.911   6.477  0.1226  0.0559 -0.0311
 1317ERGO    R316586  11.722  16.651   6.543 -0.1209  0.0609  0.1674
 1317ERGO    R416587  11.801  16.803   6.781  0.1439  0.1828  0.0057
 1317ERGO    R516588  11.922  16.657   6.674 -0.0554 -0.0369  0.0725
 1317ERGO    C116589  11.915  16.496   7.020 -0.0723  0.2612  0.2136
 1317ERGO    C216590  11.896  16.185   7.297 -0.2321 -0.0611  0.0464
 1318ERGO   ROH16591   5.194  15.416   6.046  0.1943 -0.0689 -0.0174
 1318ERGO    R116592   5.110  15.300   6.290  0.0796  0.0077 -0.0201
 1318ERGO    R216593   5.275  15.284   6.511  0.0084 -0.0126  0.0284
 1318ERGO    R316594   5.068  15.410   6.634  0.0195  0.0864 -0.0516
 1318ERGO    R416595   5.237  15.314   6.854 -0.1292 -0.0381  0.0163
 1318ERGO    R516596   5.024  15.277   6.828 -0.1421  0.0819 -0.0875
 1318ERGO    C116597   5.020  15.450   7.168 -0.1988  0.0401 -0.0658
 1318ERGO    C216598   5.123  15.574   7.477 -0.2367 -0.2506  0.0357
 1319ERGO   ROH16599  12.477   1.461   5.978  0.2802 -0.0502  0.0386
 1319ERGO    R116600  12.404   1.473   6.252  0.2498  0.1046  0.0249
 1319ERGO    R216601  12.447   1.264   6.427 -0.1662  0.0286  0.0518
 1319ERGO    R316602  12.575   1.454   6.572  0.1632 -0.1886  0.0552
 1319ERGO    R416603  12.483   1.259   6.770 -0.2451  0.0115  0.0598
 1319ERGO    R516604  12.445   1.474   6.772  0.1570  0.0845  0.0238
 1319ERGO    C116605  12.624   1.435   7.107  0.0181 -0.2024  0.0677
 1319ERGO    C216606  12.705   1.132   7.373  0.0649 -0.4247 -0.0932
 1320ERGO   ROH16607   6.445  14.486   7.801 -0.2193 -0.2376 -0.1661
 1320ERGO    R116608   6.451  14.746   7.690 -0.2446 -0.1685 -0.0087
 1320ERGO    R216609   6.592  14.808   7.461 -0.1426  0.0148  0.0964
 1320ERGO    R316610   6.352  14.903   7.377 -0.1320 -0.0170  0.0314
 1320ERGO    R416611   6.545  15.014   7.187 -0.1210 -0.1169 -0.0073
 1320ERGO    R516612   6.398  15.126   7.303 -0.1231 -0.0567 -0.0749
 1320ERGO    C116613   6.292  15.224   6.950 -0.0985 -0.2236 -0.1287
 1320ERGO    C216614   6.160  15.134   6.679 -0.1178 -0.0834  0.0756
 1321ERGO   ROH16615  15.495  13.864   6.458  0.2152  0.0070 -0.0503
 1321ERGO    R116616  15.351  13.740   6.668  0.4232 -0.3984 -0.1333
 1321ERGO    R216617  15.469  13.567   6.848  0.8769  0.0913  0.0893
 1321ERGO    R316618  15.363  13.737   7.032  0.0814 -0.1403 -0.1183
 1321ERGO    R416619  15.499  13.529   7.190  0.6950  0.4564  0.1486
 1321ERGO    R516620  15.291  13.593   7.209  0.4309 -0.2769 -0.0931
 1321ERGO    C116621  15.416  13.666   7.562 -0.1578  0.4516 -0.0117
 1321ERGO    C216622  15.466  13.477   7.845 -0.0517 -0.0096 -0.1338
 1322ERGO   ROH16623   5.228   0.922   6.247 -0.1237 -0.0399 -0.0771
 1322ERGO    R116624   5.291   0.817   6.503 -0.0704  0.0325 -0.0607
 1322ERGO    R216625   5.358   0.978   6.717  0.0094  0.0910 -0.1306
 1322ERGO    R316626   5.157   0.843   6.840  0.0235  0.1579 -0.0320
 1322ERGO    R416627   5.312   0.959   7.059  0.1399  0.1503 -0.1090
 1322ERGO    R516628   5.258   0.750   7.036  0.0782  0.1598 -0.0586
 1322ERGO    C116629   5.097   0.822   7.373  0.2290  0.2476 -0.0038
 1322ERGO    C216630   5.161   0.995   7.668 -0.2016  0.2798 -0.2111
 1323ERGO   ROH16631  11.546   0.866   5.946 -0.0570  0.0865  0.0678
 1323ERGO    R116632  11.493   0.706   6.174 -0.0984  0.0865  0.0584
 1323ERGO    R216633  11.693   0.587   6.322 -0.1298  0.0040  0.0363
 1323ERGO    R316634  11.573   0.716   6.528 -0.0716  0.0304  0.0540
 1323ERGO    R416635  11.799   0.578   6.651 -0.1484 -0.1065  0.0395
 1323ERGO    R516636  11.591   0.566   6.713 -0.1567 -0.0104  0.0287
 1323ERGO    C116637  11.748   0.695   7.036 -0.1044 -0.1461  0.0580
 1323ERGO    C216638  11.755   0.664   7.326  0.0405 -0.0674 -0.1860
 1324ERGO   ROH16639   7.488  14.432   6.107 -0.2495 -0.1316 -0.0616
 1324ERGO    R116640   7.325  14.655   6.169 -0.1726 -0.0208 -0.2448
 1324ERGO    R216641   7.136  14.755   5.993 -0.3057 -0.2475 -0.2414
 1324ERGO    R316642   6.968  14.719   6.204 -0.1376  0.0652 -0.0492
 1324ERGO    R416643   6.806  14.858   6.003 -0.2845 -0.1937 -0.1009
 1324ERGO    R516644   6.837  14.919   6.210 -0.1054  0.0877 -0.2112
 1324ERGO    C116645   6.457  14.884   6.208 -0.1144  0.1311  0.1612
 1324ERGO    C216646   6.208  15.009   6.184 -0.0531  0.0616 -0.2314
 1325ERGO   ROH16647  14.394   3.157   6.108 -0.0510  0.1748 -0.1035
 1325ERGO    R116648  14.432   3.246   6.373 -0.0032  0.1501 -0.1020
 1325ERGO    R216649  14.276   3.159   6.584 -0.0813  0.2657 -0.1107
 1325ERGO    R316650  14.516   3.094   6.694 -0.1339  0.0918 -0.0949
 1325ERGO    R416651  14.334   3.116   6.922 -0.1439  0.1740 -0.1113
 1325ERGO    R516652  14.524   3.220   6.898 -0.0736  0.0543 -0.0743
 1325ERGO    C116653  14.593   3.031   7.222 -0.2298 -0.0428 -0.0968
 1325ERGO    C216654  14.654   3.096   7.648  0.0549  0.2769  0.1232
 1326ERGO   ROH16655  18.599  12.083   7.938  0.1032 -0.0436  0.1391
 1326ERGO    R116656  18.783  11.886   7.853  0.0781 -0.0463  0.0903
 1326ERGO    R216657  18.705  11.635   7.768  0.0501 -0.0353  0.0825
 1326ERGO    R316658  18.850  11.699   7.547  0.0151 -0.0239  0.0629
 1326ERGO    R416659  18.787  11.414   7.515 -0.0967  0.0080 -0.0042
 1326ERGO    R516660  18.985  11.505   7.507 -0.0658 -0.0617 -0.0296
 1326ERGO    C116661  18.971  11.346   7.161 -0.2152  0.0439 -0.0730
 1326ERGO    C216662  19.100  11.115   6.926  0.2770  0.1582  0.1158
 1327ERGO   ROH16663  15.334   9.673   6.144  0.0070 -0.0281  0.0462
 1327ERGO    R116664  15.418   9.800   6.383 -0.0484 -0.0761  0.0908
 1327ERGO    R216665  15.321  10.047   6.462 -0.0509 -0.0843  0.1067
 1327ERGO    R316666  15.260   9.913   6.691 -0.1227 -0.1177  0.0689
 1327ERGO    R416667  15.197  10.193   6.749 -0.0179 -0.1049  0.1320
 1327ERGO    R516668  15.326  10.062   6.866 -0.0781 -0.1853  0.1115
 1327ERGO    C116669  15.068  10.154   7.131 -0.0661 -0.1481  0.1113
 1327ERGO    C216670  14.991  10.409   7.377 -0.2301 -0.0152 -0.0272
 1328ERGO   ROH16671  18.107   3.956   6.196 -0.0661  0.1217  0.0695
 1328ERGO    R116672  18.025   3.805   6.421  0.1431  0.0668  0.1103
 1328ERGO    R216673  18.141   3.834   6.670  0.0880  0.3140  0.1071
 1328ERGO    R316674  17.884   3.874   6.750  0.0198 -0.0410  0.0817
 1328ERGO    R416675  18.036   3.843   6.999  0.0723  0.2985  0.1026
 1328ERGO    R516676  17.858   3.730   6.940  0.2377 -0.0024  0.1457
 1328ERGO    C116677  17.734   3.885   7.266 -0.0010 -0.0438  0.0761
 1328ERGO    C216678  17.592   3.935   7.587  0.2448  0.0598  0.0519
 1329ERGO   ROH16679   4.078   5.712   5.731  0.3098  0.0587  0.0466
 1329ERGO    R116680   4.047   5.595   5.987 -0.0371  0.0865  0.0220
 1329ERGO    R216681   4.263   5.529   6.148 -0.2293 -0.3966  0.0957
 1329ERGO    R316682   4.132   5.683   6.329  0.0266 -0.1359  0.0657
 1329ERGO    R416683   4.311   5.517   6.489 -0.1823 -0.3489  0.0909
 1329ERGO    R516684   4.096   5.539   6.516 -0.1525 -0.0232  0.1236
 1329ERGO    C116685   4.217   5.654   6.859  0.0853 -0.0763  0.0598
 1329ERGO    C216686   4.230   5.621   7.185 -0.1290  0.1207 -0.2555
 1330ERGO   ROH16687   7.788  13.199   5.870  0.0905 -0.2305  0.0606
 1330ERGO    R116688   7.775  13.354   6.106  0.1308 -0.0885 -0.0267
 1330ERGO    R216689   7.563  13.337   6.283  0.0142  0.2280 -0.1176
 1330ERGO    R316690   7.761  13.289   6.464 -0.1229  0.1101  0.0004
 1330ERGO    R416691   7.569  13.460   6.606  0.0099  0.4115 -0.1879
 1330ERGO    R516692   7.783  13.496   6.584  0.0590  0.1532 -0.1123
 1330ERGO    C116693   7.757  13.486   6.964 -0.1214  0.4077 -0.1180
 1330ERGO    C216694   7.858  13.617   7.183 -0.1533 -0.0253  0.2407
 1331ERGO   ROH16695  18.093  15.557   6.692  0.1234  0.1872  0.0800
 1331ERGO    R116696  17.987  15.442   6.928 -0.0362  0.0902 -0.0369
 1331ERGO    R216697  18.121  15.449   7.170 -0.1193 -0.1608  0.0197
 1331ERGO    R316698  17.888  15.559   7.258 -0.0825 -0.0738  0.0084
 1331ERGO    R416699  18.036  15.493   7.502 -0.0681 -0.0196  0.0142
 1331ERGO    R516700  17.833  15.433   7.454 -0.0883  0.0105  0.0615
 1331ERGO    C116701  17.769  15.623   7.778 -0.0039  0.1441  0.0005
 1331ERGO    C216702  17.648  15.864   7.925 -0.2780  0.0239 -0.0055
 1332ERGO   ROH16703  13.420   7.740   6.510 -0.1417 -0.1006  0.1206
 1332ERGO    R116704  13.388   7.658   6.779 -0.0150 -0.0650  0.1472
 1332ERGO    R216705  13.602   7.622   6.950  0.0636 -0.0088  0.0611
 1332ERGO    R316706  13.463   7.794   7.108  0.1065 -0.0051  0.0953
 1332ERGO    R416707  13.601   7.615   7.295 -0.0167 -0.1398  0.0593
 1332ERGO    R516708  13.387   7.659   7.291  0.0036 -0.0406  0.0274
 1332ERGO    C116709  13.470   7.774   7.645 -0.0231 -0.2126  0.0905
 1332ERGO    C216710  13.510   7.567   7.965 -0.1866 -0.0391  0.0938
 1333ERGO   ROH16711   0.456   8.401   6.168  0.1110 -0.0435  0.2184
 1333ERGO    R116712   0.621   8.227   6.319  0.0600 -0.2440  0.0453
 1333ERGO    R216713   0.685   8.274   6.583  0.4708 -0.2663 -0.0485
 1333ERGO    R316714   0.587   8.023   6.618  0.1554 -0.1235  0.1420
 1333ERGO    R416715   0.735   8.079   6.865  0.7153 -0.3109 -0.1198
 1333ERGO    R516716   0.760   7.906   6.734  0.2181 -0.3696 -0.1724
 1333ERGO    C116717   0.671   7.731   7.061  0.5616 -0.2026  0.0176
 1333ERGO    C216718   0.844   7.715   7.372  0.3125 -0.0369 -0.0163
 1334ERGO   ROH16719  14.620   1.560   6.309  0.1156 -0.2288  0.1382
 1334ERGO    R116720  14.536   1.526   6.577  0.0300 -0.0593  0.1313
 1334ERGO    R216721  14.707   1.445   6.778 -0.0261  0.1229  0.2416
 1334ERGO    R316722  14.619   1.671   6.900 -0.1217  0.1857  0.0662
 1334ERGO    R416723  14.687   1.489   7.120 -0.0016  0.3838  0.2140
 1334ERGO    R516724  14.497   1.592   7.090 -0.0634  0.2719  0.1491
 1334ERGO    C116725  14.592   1.727   7.434 -0.0772  0.5948  0.0333
 1334ERGO    C216726  14.586   1.877   7.760 -0.0183  0.0833  0.1156
 1335ERGO   ROH16727  14.124   8.313   6.361  0.0500  0.3653  0.1847
 1335ERGO    R116728  14.338   8.270   6.541  0.0466  0.2581  0.1651
 1335ERGO    R216729  14.477   8.477   6.659  0.1798  0.1917  0.1359
 1335ERGO    R316730  14.411   8.348   6.889  0.1271  0.2461  0.1499
 1335ERGO    R416731  14.590   8.566   6.973  0.2852  0.1221  0.1178
 1335ERGO    R516732  14.612   8.354   7.020  0.1466  0.1118  0.1212
 1335ERGO    C116733  14.593   8.498   7.372  0.2969  0.1325  0.1205
 1335ERGO    C216734  14.643   8.490   7.635 -0.1112  0.0739  0.2022
 1336ERGO   ROH16735  16.164   6.305   6.369 -0.1986 -0.2727 -0.1635
 1336ERGO    R116736  16.027   6.216   6.600  0.0048 -0.3154 -0.0562
 1336ERGO    R216737  16.158   6.137   6.830  0.2021 -0.0474 -0.0677
 1336ERGO    R316738  15.997   6.323   6.947  0.0380 -0.1692 -0.0991
 1336ERGO    R416739  16.176   6.234   7.162  0.2309  0.1569 -0.1284
 1336ERGO    R516740  15.958   6.238   7.167  0.2310 -0.0921 -0.0368
 1336ERGO    C116741  16.035   6.465   7.464  0.0937  0.1615 -0.1932
 1336ERGO    C216742  15.972   6.431   7.831  0.0289 -0.0177 -0.0912
 1337ERGO   ROH16743   0.855  10.484   6.226  0.2441 -0.2302 -0.1751
 1337ERGO    R116744   0.971  10.325   6.430  0.2525 -0.0900 -0.0684
 1337ERGO    R216745   1.100  10.435   6.648  0.1452  0.0649 -0.0760
 1337ERGO    R316746   0.925  10.282   6.789  0.1657  0.0560 -0.0619
 1337ERGO    R416747   1.164  10.295   6.958  0.0681  0.3068  0.0511
 1337ERGO    R516748   1.062  10.114   6.892  0.2091  0.2045  0.1205
 1337ERGO    C116749   1.037  10.070   7.270  0.0425  0.4394  0.1384
 1337ERGO    C216750   0.968   9.878   7.599 -0.1485 -0.0058 -0.0995
 1338ERGO   ROH16751   0.416  10.337   6.323 -0.0600 -0.3542  0.0933
 1338ERGO    R116752   0.446  10.422   6.592 -0.0485 -0.2666  0.0660
 1338ERGO    R216753   0.265  10.591   6.715  0.0284 -0.1091 -0.0208
 1338ERGO    R316754   0.255  10.393   6.900 -0.1125 -0.0378  0.0475
 1338ERGO    R416755   0.157  10.629   7.041  0.1646  0.0958  0.0012
 1338ERGO    R516756   0.318  10.498   7.105  0.0508 -0.0389 -0.0068
 1338ERGO    C116757   0.085  10.465   7.405  0.1117  0.2820  0.0781
 1338ERGO    C216758  -0.168  10.408   7.582 -0.1660  0.2516  0.0460
 1339ERGO   ROH16759  14.445   0.474   6.193  0.1227  0.1220  0.1171
 1339ERGO    R116760  14.504   0.406   6.462  0.0228  0.0257  0.1177
 1339ERGO    R216761  14.675   0.557   6.620  0.1730 -0.1663  0.1639
 1339ERGO    R316762  14.462   0.561   6.788  0.1473  0.0379  0.1242
 1339ERGO    R416763  14.692   0.538   6.964  0.0619 -0.2396  0.1638
 1339ERGO    R516764  14.518   0.409   6.962 -0.0679 -0.0423  0.1111
 1339ERGO    C116765  14.501   0.531   7.322 -0.0270 -0.0905  0.1266
 1339ERGO    C216766  14.570   0.332   7.671  0.2566  0.3170  0.2085
 1340ERGO   ROH16767   6.584  14.078   9.388  0.0967 -0.1885  0.0963
 1340ERGO    R116768   6.748  14.153   9.170  0.0280 -0.1202  0.0673
 1340ERGO    R216769   7.009  14.067   9.144  0.0407 -0.0636 -0.0115
 1340ERGO    R316770   6.923  13.983   8.900 -0.0042 -0.0423 -0.0026
 1340ERGO    R416771   7.155  14.153   8.843 -0.1544  0.1486 -0.0481
 1340ERGO    R516772   6.956  14.172   8.757 -0.2067  0.0315  0.0470
 1340ERGO    C116773   7.160  14.124   8.438 -0.3102  0.2923 -0.0610
 1340ERGO    C216774   7.295  14.191   8.192  0.1503  0.2477 -0.0467
 1341ERGO   ROH16775   8.726  11.822   6.101 -0.1626  0.1805 -0.0668
 1341ERGO    R116776   8.536  11.672   6.246 -0.0865  0.0351 -0.1137
 1341ERGO    R216777   8.599  11.435   6.374  0.0715  0.1001 -0.0623
 1341ERGO    R316778   8.493  11.561   6.590 -0.1078  0.0409 -0.1152
 1341ERGO    R416779   8.549  11.289   6.683  0.0948  0.1040 -0.0576
 1341ERGO    R516780   8.358  11.394   6.697  0.0008 -0.0576 -0.1351
 1341ERGO    C116781   8.420  11.322   7.066 -0.0601  0.0507 -0.1046
 1341ERGO    C216782   8.400  11.369   7.392 -0.1062 -0.2492 -0.3191
 1342ERGO   ROH16783   4.457   8.167   5.844  0.0103 -0.0474 -0.0343
 1342ERGO    R116784   4.369   8.267   6.093 -0.0095 -0.1773  0.0129
 1342ERGO    R216785   4.302   8.102   6.305  0.0421 -0.2889 -0.0497
 1342ERGO    R316786   4.483   8.255   6.439  0.0081 -0.2951  0.0013
 1342ERGO    R416787   4.308   8.146   6.647  0.0306 -0.3818 -0.0383
 1342ERGO    R516788   4.356   8.356   6.615 -0.0085 -0.3692  0.0260
 1342ERGO    C116789   4.481   8.313   6.973 -0.0080 -0.4416  0.0162
 1342ERGO    C216790   4.473   8.311   7.320  0.0640 -0.1121 -0.3270
 1343ERGO   ROH16791   4.127  17.188   6.541  0.1377  0.0885  0.0537
 1343ERGO    R116792   4.115  17.035   6.778  0.2954  0.0151  0.0169
 1343ERGO    R216793   4.315  17.037   6.967  0.2154  0.3228  0.1079
 1343ERGO    R316794   4.112  17.100   7.136  0.0233 -0.0564  0.0293
 1343ERGO    R416795   4.295  16.937   7.298  0.2228  0.2130  0.0750
 1343ERGO    R516796   4.081  16.903   7.269  0.2899 -0.1409 -0.0320
 1343ERGO    C116797   4.092  16.939   7.649  0.0467 -0.2072 -0.0179
 1343ERGO    C216798   4.018  17.046   7.981  0.3538 -0.1550  0.2571
 1344ERGO   ROH16799   4.228  12.528   5.741  0.1724  0.2608 -0.0698
 1344ERGO    R116800   4.315  12.536   6.011  0.0916  0.0821 -0.0369
 1344ERGO    R216801   4.146  12.598   6.220  0.0606  0.0818 -0.0614
 1344ERGO    R316802   4.235  12.361   6.320 -0.1102 -0.0188 -0.1439
 1344ERGO    R416803   4.151  12.514   6.555 -0.0510 -0.0605 -0.0948
 1344ERGO    R516804   4.345  12.420   6.524 -0.1057 -0.1747 -0.1000
 1344ERGO    C116805   4.237  12.242   6.844 -0.2762 -0.2378 -0.1918
 1344ERGO    C216806   4.377  12.015   7.236 -0.1222  0.0883 -0.2179
 1345ERGO   ROH16807   3.755  12.027   7.766  0.0917 -0.1925  0.1741
 1345ERGO    R116808   3.988  12.147   7.659  0.0988 -0.2684  0.1016
 1345ERGO    R216809   4.070  12.402   7.730  0.0195 -0.1586 -0.1781
 1345ERGO    R316810   4.303  12.276   7.789  0.0270 -0.0400  0.0517
 1345ERGO    R416811   4.372  12.560   7.787 -0.0506 -0.0267 -0.1718
 1345ERGO    R516812   4.471  12.402   7.675  0.0481 -0.1003  0.0210
 1345ERGO    C116813   4.766  12.534   7.877 -0.0845  0.1616  0.0476
 1345ERGO    C216814   5.009  12.729   7.906  0.0319 -0.2870 -0.1832
 1346W        W16815   8.725   6.633   9.387 -0.1839  0.0518 -0.1034
 1347W        W16816  14.588  12.290  12.042  0.2099 -0.1810 -0.0958
 1348W        W16817  15.707  17.343   3.648  0.1352 -0.2857 -0.4216
 1349W        W16818  10.179   3.433  14.824 -0.1464  0.0180  0.1176
 1350W        W16819   2.359  12.861  14.102  0.2810  0.1031 -0.3243
 1351W        W16820   3.919  16.458   3.126  0.4927  0.2795 -0.0963
 1352W        W16821   7.720  15.714   2.875  0.4044  0.0400 -0.2167
 1353W        W16822   2.273   1.765  15.567  0.1593 -0.1187 -0.2791
 1354W        W16823   9.785  14.684   5.367 -0.3057 -0.0937  0.1105
 1355W        W16824  17.385   4.073   1.790  0.1651 -0.0352 -0.0027
 1356W        W16825  16.685  11.269   0.724 -0.0903 -0.2873  0.2515
 1357W        W16826   5.212   4.966  12.631 -0.2586 -0.3248 -0.1525
 1358W        W16827   9.802   8.829  15.556 -0.2909  0.1363  0.0745
 1359W        W16828  18.412   5.487   0.336 -0.2146  0.2273 -0.1575
 1360W        W16829   2.911   7.746   5.056 -0.0536 -0.2357  0.0670
 1361W        W16830   5.919  10.748  13.909 -0.2482 -0.3463 -0.0126
 1362W        W16831  11.600   6.554   3.624  0.0332  0.0066 -0.0605
 1363W        W16832  13.723  13.222  13.946  0.2925 -0.2564  0.2927
 1364W        W16833  14.837  16.332   1.296  0.0685  0.2575  0.3442
 1365W        W16834  16.863  11.592   3.006  0.2605 -0.0694  0.3095
 1366W        W16835  12.199  18.249  10.569  0.2077  0.1828 -0.0865
 1367W        W16836  16.137  13.288   3.407 -0.1834  0.0033  0.4767
 1368W        W16837  14.044   7.542   4.125  0.3392  0.3056 -0.2154
 1369W        W16838  16.535   6.237   1.002  0.1345 -0.3165 -0.3872
 1370W        W16839   5.693   8.882   2.252  0.0154 -0.2083  0.0877
 1371W        W16840   1.011  13.897  12.841  0.1436 -0.1074 -0.1749
 1372W        W16841  17.320  16.218   0.832  0.0054  0.2349 -0.1745
 1373W        W16842   3.740  18.430   0.755  0.1016 -0.1544 -0.1742
 1374W        W16843   9.007   2.063   0.725  0.2976  0.2574  0.2541
 1375W        W16844   7.501  10.439   1.773  0.0283  0.1277  0.2126
 1376W        W16845   3.824  13.607   5.133  0.3554  0.0440  0.0511
 1377W        W16846  18.240  14.297  11.245 -0.0867 -0.1833  0.4930
 1378W        W16847  13.119  14.080   2.071  0.4508  0.0731 -0.2829
 1379W        W16848  14.377  10.785   1.785 -0.1911 -0.1605 -0.2181
 1380W        W16849  18.436  13.432   2.934  0.0177  0.0905 -0.2290
 1381W        W16850   2.336  10.729  15.119 -0.0534  0.0879  0.0632
 1382W        W16851  10.830   3.880   3.009  0.2076 -0.3709 -0.2697
 1383W        W16852  18.584  17.744  10.821 -0.2633 -0.0009  0.2295
 1384W        W16853  13.870  11.985   1.818 -0.2540 -0.4394 -0.2899
 1385W        W16854   8.834   8.672  10.159  0.2612 -0.1189  0.1035
 1386W        W16855   2.817   2.153  13.693  0.1525  0.1028 -0.0358
 1387W        W16856  11.033   5.494  15.370  0.0042 -0.1660  0.1484
 1388W        W16857  10.265   0.251   5.242 -0.0915  0.4456  0.1199
 1389W        W16858  13.820  16.459   1.057 -0.1204  0.0964  0.2227
 1390W        W16859  14.505   4.953  11.693  0.1011 -0.3235  0.0828
 1391W        W16860  12.710   1.477   4.181  0.3008 -0.0542  0.1785
 1392W        W16861   3.157   9.221   3.959  0.1399 -0.1433  0.1008
 1393W        W16862  12.670   0.324  12.073  0.0223 -0.0548 -0.0977
 1394W        W16863  17.413  17.430   1.618 -0.0184 -0.0867 -0.1490
 1395W        W16864  17.550  17.580  13.090  0.0216 -0.1417 -0.0947
 1396W        W16865  12.674  14.210   1.839 -0.1243  0.2116  0.0328
 1397W        W16866   0.342   7.240  14.906 -0.1201 -0.4132 -0.3465
 1398W        W16867   8.645  10.126  14.135  0.0718  0.1185 -0.1299
 1399W        W16868  18.265  18.689   1.405 -0.3395  0.2158  0.2178
 1400W        W16869   7.652   5.029   3.392  0.1215  0.1224 -0.0818
 1401W        W16870   5.538   2.964   2.345 -0.4509 -0.0405  0.0562
 1402W        W16871  13.484  15.361  13.714  0.1545 -0.1475  0.1935
 1403W        W16872   4.601  14.394   5.229 -0.1939 -0.0440  0.2300
 1404W        W16873   4.678   3.109   0.396  0.0793  0.4175  0.0053
 1405W        W16874   0.545   4.377   3.489  0.1106 -0.4012  0.4547
 1406W        W16875  18.272   4.800   2.639 -0.1465  0.0454  0.0297
 1407W        W16876   9.110   1.102  15.436  0.0097  0.1819 -0.2424
 1408W        W16877   1.975  16.950  11.055  0.2963 -0.0838  0.0940
 1409W        W16878   8.641  16.319  14.488  0.0923  0.0878  0.1556
 1410W        W16879   0.025   1.012   2.223  0.0760 -0.1823 -0.1472
 1411W        W16880   6.411  11.127   3.229 -0.1322  0.0852  0.2585
 1412W        W16881  16.001  15.962   1.338 -0.1126  0.1483 -0.3270
 1413W        W16882  17.781   7.172  14.288  0.0756  0.3260  0.1220
 1414W        W16883   1.860   2.471   3.901  0.3385 -0.1667  0.1103
 1415W        W16884   5.039  12.129  10.473 -0.1194 -0.2186 -0.0900
 1416W        W16885  16.357  17.243  14.618 -0.1698  0.2604  0.1383
 1417W        W16886   4.725  12.705  15.657  0.1009  0.0744 -0.1341
 1418W        W16887   0.785  16.896   1.436 -0.1546 -0.2476 -0.5601
 1419W        W16888   1.655   9.925  12.898 -0.2890  0.1057  0.1021
 1420W        W16889   6.850   1.204   4.687 -0.1075  0.1464  0.0605
 1421W        W16890  10.111  12.268   1.405  0.3706 -0.1298  0.0236
 1422W        W16891   6.840   4.076   4.236  0.0202 -0.1596  0.0186
 1423W        W16892  15.273   9.178   1.051  0.2849  0.7174  0.0261
 1424W        W16893   6.758  12.821   1.591  0.0565 -0.2649  0.0732
 1425W        W16894  12.430   2.648   0.427 -0.0751  0.2055 -0.4365
 1426W        W16895   2.981  16.940   3.562 -0.3965 -0.0081  0.2394
 1427W        W16896  16.843   2.421  10.765 -0.2121 -0.2536 -0.4165
 1428W        W16897  12.968   5.639  12.913 -0.2982 -0.2108 -0.1049
 1429W        W16898   0.880   4.081   4.401 -0.2264  0.0988 -0.1008
 1430W        W16899   1.285   4.338   5.479 -0.0501 -0.1616  0.0740
 1431W        W16900   4.055  12.493  12.569  0.2761  0.0206 -0.0746
 1432W        W16901   8.139   1.001  12.280  0.0972 -0.1447 -0.0572
 1433W        W16902  16.194   4.382  14.822  0.0351  0.1170 -0.0816
 1434W        W16903  12.572  11.255   3.473  0.0627  0.4312 -0.1663
 1435W        W16904  10.503   6.167   0.579  0.3244 -0.0185  0.2492
 1436W        W16905  15.379  17.112  13.462 -0.1768 -0.3114  0.0212
 1437W        W16906   5.895   7.678   4.145  0.0616 -0.2040  0.3323
 1438W        W16907   9.184  13.066  11.941  0.1013  0.2780  0.0814
 1439W        W16908  10.392   7.889   5.270 -0.1386  0.0040  0.1727
 1440W        W16909   0.548   1.811  13.621 -0.2207 -0.3416 -0.0074
 1441W        W16910   3.866   4.181   3.559  0.0816  0.0856  0.2517
 1442W        W16911   6.085  15.852  10.980  0.1314  0.2234 -0.0676
 1443W        W16912   3.853   9.088  12.427  0.0535  0.4562  0.0490
 1444W        W16913  13.636   6.857   3.353 -0.0728  0.3862  0.1268
 1445W        W16914  12.355   2.835   3.377  0.0820  0.0915  0.0422
 1446W        W16915  16.883   3.584  10.767 -0.2135 -0.0858  0.2802
 1447W        W16916   5.035   5.128  13.082  0.2790  0.1092  0.0575
 1448W        W16917  18.575  11.257   0.868  0.2613  0.1288 -0.0109
 1449W        W16918   1.699   4.457  11.873  0.2769  0.2031 -0.0341
 1450W        W16919   7.197   9.773   0.532  0.0502 -0.0062  0.2283
 1451W        W16920  16.281  12.528  10.858  0.0998  0.0563 -0.1297
 1452W        W16921  11.021   0.528   3.266  0.3584 -0.1681 -0.2847
 1453W        W16922  11.196   7.888   4.728 -0.3805  0.0300 -0.0004
 1454W        W16923  11.829   5.448   2.496 -0.4508  0.0968  0.0759
 1455W        W16924  10.161  12.730   0.224  0.0131 -0.3805 -0.2972
 1456W        W16925   8.431   4.208   5.087  0.0376  0.0493  0.2946
 1457W        W16926  16.345  16.156  13.041 -0.0305 -0.1851 -0.0952
 1458W        W16927   1.053   0.164  11.516  0.0306  0.3201  0.2203
 1459W        W16928  10.514  18.416   4.464  0.0564 -0.1733 -0.1147
 1460W        W16929   5.509  17.868  11.483  0.0211  0.1337 -0.0919
 1461W        W16930   6.455   9.216   2.520 -0.0271 -0.0778 -0.3940
 1462W        W16931  13.303  14.344  10.846 -0.0253 -0.2000 -0.0831
 1463W        W16932   9.616   3.146   4.620  0.0174  0.1896 -0.1237
 1464W        W16933   2.447  18.230   5.432 -0.1026  0.0128 -0.2979
 1465W        W16934   1.289   9.580  13.745 -0.0429  0.0794 -0.1710
 1466W        W16935  10.003   4.263  14.535 -0.0862  0.2758  0.0874
 1467W        W16936  18.482   6.013   0.303 -0.1160 -0.1310 -0.2182
 1468W        W16937  12.300   4.102   3.966 -0.0410  0.0269 -0.3040
 1469W        W16938  16.004  17.849   0.021 -0.1549  0.1771  0.0993
 1470W        W16939  10.856  14.892   3.174 -0.1057  0.2713 -0.2591
 1471W        W16940  13.916   7.845  14.182 -0.3198  0.1145 -0.2563
 1472W        W16941   4.061   4.982  14.282  0.0496 -0.1995 -0.2149
 1473W        W16942  10.965  12.551  15.658 -0.0546  0.3645  0.0480
 1474W        W16943   8.278   8.158  12.373  0.1082 -0.0224  0.0073
 1475W        W16944   4.625  17.108   0.146 -0.0888  0.2634 -0.1580
 1476W        W16945   0.729   9.939   4.593 -0.0625 -0.0282 -0.0733
 1477W        W16946  10.562  10.274  10.911  0.1517 -0.1026 -0.5430
 1478W        W16947   8.653   5.942  14.064 -0.1950 -0.0969  0.0855
 1479W        W16948   6.636  14.542   1.153 -0.0007 -0.1384  0.0035
 1480W        W16949  17.187  10.642  14.121 -0.0842  0.0568 -0.4728
 1481W        W16950   8.350  13.525   3.370 -0.1022 -0.0063 -0.2977
 1482W        W16951   4.022  15.635  13.935 -0.3230 -0.2921  0.1081
 1483W        W16952   3.748   5.127   2.541  0.1226 -0.1680 -0.0617
 1484W        W16953  14.295  13.031   2.060  0.0342 -0.2415 -0.0842
 1485W        W16954  17.502   7.995   1.828  0.0988  0.0207 -0.0178
 1486W        W16955   5.148   1.625   1.605  0.1546  0.1630  0.0908
 1487W        W16956   6.561  11.492  14.243 -0.1715  0.2303  0.1380
 1488W        W16957   9.896  15.595   2.172 -0.0468 -0.1811  0.1943
 1489W        W16958   8.148   4.155   4.359  0.0574  0.2124  0.0366
 1490W        W16959   2.708   4.180   0.497 -0.0576 -0.3646  0.1264
 1491W        W16960  11.623   1.386   1.561  0.1080  0.1262  0.0736
 1492W        W16961   0.306  18.167  15.106 -0.0517 -0.2651 -0.0591
 1493W        W16962   6.889  11.248   2.996 -0.3007  0.1069 -0.0273
 1494W        W16963   0.784  16.519  11.199 -0.3572 -0.1718 -0.1035
 1495W        W16964  12.899  13.073  13.111 -0.0147 -0.1808 -0.2728
 1496W        W16965  11.469  11.867  12.472  0.1760  0.3175  0.1414
 1497W        W16966  17.762  18.444   1.681  0.0740 -0.2063 -0.0483
 1498W        W16967   7.193   5.792   9.322 -0.0507  0.2220  0.1424
 1499W        W16968  11.282   2.317  15.153  0.0303 -0.2523  0.1303
 1500W        W16969  16.763  17.677   4.768 -0.2622  0.0374 -0.0988
 1501W        W16970   1.531   4.402   0.066  0.1777  0.0484 -0.0105
 1502W        W16971   4.878   7.498   3.768  0.1421 -0.4208 -0.0672
 1503W        W16972   3.832  15.381  13.373 -0.0130  0.2941 -0.0720
 1504W        W16973   3.309   2.004   0.657 -0.3706  0.2077 -0.0951
 1505W        W16974   9.650   1.415  11.350  0.1792 -0.0945  0.0137
 1506W        W16975   5.845  14.413  13.370  0.1073 -0.0156 -0.1434
 1507W        W16976  13.934   6.325   3.197  0.2095  0.2074 -0.0640
 1508W        W16977   6.720   8.728  12.609 -0.1950  0.1485 -0.0545
 1509W        W16978   2.263   9.199   1.759 -0.0526 -0.1439  0.1227
 1510W        W16979   1.213  10.400   3.544  0.1401 -0.0496  0.0823
 1511W        W16980   8.325   4.818   3.177 -0.1263 -0.1798 -0.0022
 1512W        W16981   0.628   9.964   0.671  0.0675  0.1316 -0.1375
 1513W        W16982  15.953   8.062   4.768 -0.0627  0.1478  0.3427
 1514W        W16983   8.906  14.244  14.708 -0.1170  0.2095 -0.1290
 1515W        W16984  12.531   2.946  14.977 -0.2043 -0.0269  0.0057
 1516W        W16985  16.915   2.251  14.576  0.0541 -0.2370 -0.2263
 1517W        W16986   5.511  10.801   4.239 -0.2407  0.0644  0.1895
 1518W        W16987  13.116   6.559   3.424 -0.0506 -0.0404  0.1504
 1519W        W16988   4.054   2.163  11.553 -0.0043 -0.2482  0.2121
 1520W        W16989  18.509   0.083   3.837  0.2950 -0.0681  0.0549
 1521W        W16990  14.049   0.281  11.701  0.2398 -0.1392 -0.1713
 1522W        W16991   9.563  18.410   5.392 -0.1379  0.0136  0.0108
 1523W        W16992  17.672   8.596  14.296  0.0595  0.1645 -0.0701
 1524W        W16993   4.428   2.449   3.743 -0.0919  0.0405 -0.3117
 1525W        W16994   6.114   9.190  10.988  0.1418  0.2411  0.3536
 1526W        W16995   2.304  16.407   4.757 -0.0633  0.1560  0.6183
 1527W        W16996   6.878   3.954   0.821 -0.0757 -0.3495  0.1186
 1528W        W16997  16.752  13.021   6.376 -0.2061  0.0068 -0.1865
 1529W        W16998   6.842  18.775  13.645  0.0978 -0.2108  0.0960
 1530W        W16999   9.383   9.631   1.733  0.1951  0.3062 -0.1784
 1531W        W17000   1.990   6.579  14.435 -0.1593  0.2553  0.0324
 1532W        W17001  11.593   5.020   2.491  0.0009 -0.0634  0.1745
 1533W        W17002  10.634  12.882  11.092  0.3448  0.0867 -0.0600
 1534W        W17003  18.257  15.745  13.459  0.0530 -0.3546  0.1199
 1535W        W17004   2.913  11.051   3.584 -0.3403 -0.2109 -0.0176
 1536W        W17005   6.743  18.362   9.709  0.3386 -0.1618 -0.2904
 1537W        W17006   8.521  11.679  10.802  0.3178  0.0486 -0.2049
 1538W        W17007   3.833   1.028  11.206  0.1751 -0.1249 -0.2024
 1539W        W17008   4.168   0.899   4.709  0.3751 -0.2197 -0.1688
 1540W        W17009   3.316  18.085  10.933 -0.2383 -0.2291 -0.1275
 1541W        W17010  10.583   3.870   4.010 -0.1028 -0.0012  0.0578
 1542W        W17011   5.199   1.040  12.949  0.0064 -0.2584 -0.0409
 1543W        W17012  18.677  14.074  12.046 -0.1862  0.0431  0.2009
 1544W        W17013   3.546  10.372  11.133 -0.0480  0.0376 -0.0935
 1545W        W17014   6.570   2.033  10.038 -0.2447 -0.0724 -0.0169
 1546W        W17015  14.969   2.582   4.587 -0.2438  0.0270 -0.0002
 1547W        W17016   7.276   6.292   2.878  0.4055  0.0563  0.2688
 1548W        W17017   5.234  11.745  10.833 -0.2222 -0.0476  0.3428
 1549W        W17018   3.165  16.928   4.499  0.0103 -0.0179  0.0717
 1550W        W17019  14.581   1.649   2.709  0.2845  0.0268  0.0730
 1551W        W17020  12.018   7.047   3.905  0.0914 -0.2762  0.0920
 1552W        W17021   1.390   4.093  12.208  0.0312 -0.2592 -0.0335
 1553W        W17022   4.329   9.620   2.783  0.0264  0.1992  0.1339
 1554W        W17023  18.207   8.337  14.414 -0.2814  0.1125 -0.2084
 1555W        W17024  13.756  15.736   2.901 -0.0434 -0.2445  0.2638
 1556W        W17025   2.996   6.835  11.669  0.1435  0.0018  0.1414
 1557W        W17026   1.913   7.828  10.559 -0.0161  0.0205  0.2940
 1558W        W17027   1.997  18.613  15.213  0.3404 -0.2315  0.1070
 1559W        W17028   8.417   3.811   1.149 -0.0926  0.0120  0.1027
 1560W        W17029   7.349  18.139   4.868 -0.1355 -0.1393  0.2528
 1561W        W17030  10.521   6.859  13.246 -0.1955 -0.2738 -0.1227
 1562W        W17031   4.185   3.335  11.092 -0.1375 -0.2072 -0.2356
 1563W        W17032   7.837  10.967   1.082 -0.1133 -0.1099  0.2673
 1564W        W17033   0.291   6.564  15.526 -0.3357 -0.1106 -0.1447
 1565W        W17034  16.988   5.600  13.511 -0.1357 -0.0517  0.2702
 1566W        W17035  11.036   7.070  14.823 -0.1465 -0.1571 -0.1771
 1567W        W17036   0.226  17.464   2.296  0.1381 -0.0628 -0.0076
 1568W        W17037   3.582  14.195   0.887  0.0723  0.0482 -0.4066
 1569W        W17038  11.919   2.033   2.310 -0.1695  0.0269  0.1154
 1570W        W17039   6.506   2.890   4.171 -0.0674  0.0869 -0.2315
 1571W        W17040   5.484  15.289   2.414 -0.0406  0.2981  0.1730
 1572W        W17041   4.854   1.749   5.442  0.1034  0.0149 -0.0900
 1573W        W17042   5.196   2.940   1.982  0.0251  0.0557 -0.1309
 1574W        W17043  14.881   9.911   2.087 -0.0507 -0.0494  0.1819
 1575W        W17044   3.020  12.295  15.630 -0.0650 -0.0587  0.2943
 1576W        W17045   5.071   3.694   1.592 -0.2588 -0.2704 -0.2799
 1577W        W17046   3.627   1.079  12.942  0.2423 -0.1233 -0.2580
 1578W        W17047  14.392   0.270  15.404 -0.0601 -0.3355 -0.3613
 1579W        W17048   8.263   8.250   3.099 -0.1037 -0.0798  0.1024
 1580W        W17049   0.150  12.520  12.839 -0.1051  0.1401  0.2943
 1581W        W17050  16.798   2.035   1.776 -0.3224  0.0309 -0.3548
 1582W        W17051   7.374   7.909   4.269 -0.2351 -0.0459  0.0689
 1583W        W17052   8.030  18.002  11.378  0.0969 -0.0705  0.1585
 1584W        W17053   1.017   9.831  14.057 -0.0234  0.0270  0.1614
 1585W        W17054  14.236   7.059  12.763 -0.3607 -0.0006  0.2341
 1586W        W17055   4.823  16.582   5.260  0.2459  0.1568  0.1654
 1587W        W17056   9.833   6.484   4.021 -0.3037 -0.2271  0.1505
 1588W        W17057  17.013   3.921   0.307 -0.2453  0.5011  0.0689
 1589W        W17058   8.523   5.237   3.568  0.3311 -0.0342  0.2162
 1590W        W17059   5.962   3.188   5.465  0.0762  0.0511 -0.2610
 1591W        W17060  16.348  11.054  14.466 -0.0052 -0.0479 -0.0127
 1592W        W17061  16.317   8.726   1.696 -0.0228  0.0571 -0.1899
 1593W        W17062   2.930   6.780   0.430  0.2360 -0.0547 -0.0084
 1594W        W17063   0.720   0.744  14.925  0.2649 -0.4163 -0.0601
 1595W        W17064  15.193   9.120   5.288 -0.0695  0.3407 -0.4046
 1596W        W17065   4.902  14.443   0.123  0.3321 -0.2597 -0.2910
 1597W        W17066  15.326  17.347   4.438 -0.0712 -0.2572 -0.0344
 1598W        W17067   9.964   1.251  14.363 -0.0412 -0.1089  0.3542
 1599W        W17068   9.585  12.065   5.318  0.0154 -0.1828  0.2633
 1600W        W17069  10.175   4.956   4.911  0.0739  0.2780  0.0164
 1601W        W17070  16.886  18.397  13.014  0.0166 -0.1310  0.0509
 1602W        W17071  14.946   2.877  13.099  0.1584 -0.0271  0.2057
 1603W        W17072   7.652   3.416   0.697  0.1675  0.0431 -0.1746
 1604W        W17073  12.204  16.915  13.610  0.5505 -0.1123 -0.0903
 1605W        W17074  11.112   8.581  14.063 -0.1713  0.1251 -0.1590
 1606W        W17075   4.813  11.616  12.728 -0.0197 -0.0706  0.0318
 1607W        W17076   2.653  12.489  14.111 -0.0630 -0.0921 -0.0741
 1608W        W17077   0.371  12.846  13.266  0.0156 -0.2851  0.0558
 1609W        W17078   8.201  14.584  12.019  0.2664 -0.2317  0.0425
 1610W        W17079  11.582  11.495  15.193  0.0013  0.2595 -0.3356
 1611W        W17080   6.404  14.464  14.627  0.1962  0.1750 -0.1365
 1612W        W17081   5.485  17.196  13.328 -0.0108  0.1100  0.2294
 1613W        W17082   9.576  14.794   1.851  0.0491  0.0819 -0.0228
 1614W        W17083   8.733   9.093   1.405 -0.4423 -0.0182 -0.1152
 1615W        W17084  17.952   5.281  11.450 -0.1963 -0.1477  0.3442
 1616W        W17085  15.301  11.908   2.185  0.0503  0.1355  0.0868
 1617W        W17086   1.341   3.876   3.878 -0.0092  0.0333  0.1043
 1618W        W17087  14.469   2.991  13.075  0.0689 -0.0066  0.1829
 1619W        W17088   1.933   9.396   0.896  0.1384 -0.0659  0.0617
 1620W        W17089  11.845  13.685  11.687  0.0146 -0.2024 -0.0676
 1621W        W17090   6.974  11.703   2.718 -0.1131 -0.0561  0.2027
 1622W        W17091   8.513  14.640  14.163  0.3048  0.1871  0.1696
 1623W        W17092  15.223   8.677   3.931  0.2877 -0.1044  0.1998
 1624W        W17093   5.171   4.051   4.256 -0.0431 -0.1796 -0.2687
 1625W        W17094  11.808  18.255  14.055 -0.2302 -0.2296 -0.1760
 1626W        W17095  13.032   8.641   1.504 -0.3628 -0.0299 -0.0494
 1627W        W17096   9.010   2.339   4.246  0.5170  0.0381 -0.1832
 1628W        W17097   4.226  17.054  13.848  0.0698  0.0048  0.1693
 1629W        W17098  12.618   7.409  13.601  0.1350 -0.0324  0.0913
 1630W        W17099   8.622  11.145  12.973 -0.0231  0.0765 -0.0319
 1631W        W17100   9.889  18.050  12.188  0.1440 -0.2530 -0.0137
 1632W        W17101  10.997  18.158   4.236 -0.2043  0.1363 -0.0365
 1633W        W17102  16.419   0.184   2.138 -0.1337 -0.0653  0.0133
 1634W        W17103   2.550  15.055   4.697 -0.1810 -0.1456 -0.0534
 1635W        W17104   0.568   9.370  11.724 -0.2789  0.0604 -0.2107
 1636W        W17105   0.874  16.174  12.564  0.1449  0.1546 -0.2107
 1637W        W17106  18.715   7.794  15.530 -0.2801 -0.1796 -0.0620
 1638W        W17107  14.444  11.806   2.605 -0.0018  0.0330  0.2844
 1639W        W17108   7.559  16.758  13.903 -0.0827 -0.0547  0.4734
 1640W        W17109   4.723  10.879   3.472 -0.0986 -0.3737  0.3849
 1641W        W17110   8.131  15.505   3.084 -0.1341 -0.3809  0.1297
 1642W        W17111  17.425   8.388  12.049 -0.3677 -0.2862  0.0643
 1643W        W17112  12.130  15.118  11.569  0.0024 -0.1275 -0.0321
 1644W        W17113   5.525  11.988  10.269 -0.0224 -0.0950  0.1593
 1645W        W17114  16.340  17.872   4.588 -0.1012  0.0582  0.2303
 1646W        W17115   9.286  16.093   1.758 -0.0210 -0.2008  0.1540
 1647W        W17116  10.959  15.740   1.477 -0.0469 -0.0670 -0.1171
 1648W        W17117  17.270  18.654  15.289 -0.1534  0.0485 -0.2182
 1649W        W17118   0.788  16.760   3.692  0.0542 -0.3565  0.2282
 1650W        W17119   4.375   3.132  12.042 -0.3325  0.1562  0.2990
 1651W        W17120   1.467  14.045  14.957  0.0520 -0.2864  0.0636
 1652W        W17121   8.303   2.600  15.342  0.0483 -0.1367 -0.0468
 1653W        W17122  11.432   2.623   1.531  0.1330 -0.0482 -0.3136
 1654W        W17123   6.935   7.931   1.998 -0.1330 -0.1359  0.2050
 1655W        W17124  11.783  15.045  14.691 -0.2030 -0.2710  0.1884
 1656W        W17125  14.449   7.686  10.610 -0.1617  0.1527 -0.3185
 1657W        W17126   5.323  12.355  10.894  0.1120 -0.0153  0.0356
 1658W        W17127  10.812   3.400   3.928  0.0071 -0.3615  0.0855
 1659W        W17128  16.683   9.368  15.552  0.2838 -0.1356  0.2775
 1660W        W17129   6.170   9.811   0.281 -0.1577  0.1771  0.0280
 1661W        W17130   0.561  11.358   6.002  0.1887  0.0495  0.0359
 1662W        W17131   3.078  18.642  12.714 -0.1833  0.0035 -0.1129
 1663W        W17132  15.665   6.548   3.219  0.1478  0.0304  0.1257
 1664W        W17133  12.309   8.967   3.543  0.2520 -0.2337  0.0560
 1665W        W17134  15.593  12.801   1.075  0.2542  0.3000 -0.0938
 1666W        W17135  16.147   0.200   4.234 -0.1539 -0.4184  0.1925
 1667W        W17136   7.000   9.383   3.318 -0.0837 -0.2403 -0.0328
 1668W        W17137   8.414  15.914   2.986 -0.0427 -0.2804 -0.0443
 1669W        W17138   6.368   7.773   4.227 -0.0059  0.3788 -0.1144
 1670W        W17139   7.346  16.327  11.414 -0.0639 -0.2348 -0.5027
 1671W        W17140   5.056  15.320  15.168 -0.1481  0.0670 -0.3682
 1672W        W17141  13.587   7.385   3.412 -0.1003  0.3270  0.0134
 1673W        W17142   9.857   2.122  14.846  0.0422  0.0976  0.2990
 1674W        W17143   6.312   4.083   3.472  0.0258 -0.0661 -0.3343
 1675W        W17144  10.712   5.410   1.386 -0.0673 -0.1783  0.2057
 1676W        W17145   9.542  15.168   1.516  0.0918  0.1142 -0.0723
 1677W        W17146  13.041   0.208  15.665  0.0468  0.1641  0.0899
 1678W        W17147   8.300  17.512  11.836 -0.0429 -0.0648 -0.3685
 1679W        W17148  17.327  15.484   3.460 -0.3120  0.0970 -0.0709
 1680W        W17149  12.192   7.843  10.253 -0.0931 -0.0139 -0.1569
 1681W        W17150  12.376  16.187   3.968 -0.0617 -0.1754 -0.0410
 1682W        W17151  14.149   7.732   0.507  0.0126  0.2879 -0.4452
 1683W        W17152  11.401  14.304  15.241 -0.0961  0.1567  0.0403
 1684W        W17153  11.519  17.869  14.705 -0.0534  0.0220  0.1995
 1685W        W17154   5.222   3.297   0.474 -0.1698 -0.0496  0.0679
 1686W        W17155  13.663  17.197   1.322  0.1060 -0.2652 -0.4497
 1687W        W17156  10.496  14.087   9.950  0.1094 -0.0954  0.0788
 1688W        W17157  13.211   6.290   4.104 -0.2126 -0.0163 -0.0867
 1689W        W17158  12.039  15.425  12.805 -0.0513 -0.2180 -0.2964
 1690W        W17159  12.765  18.206  11.569  0.2063 -0.2718  0.0831
 1691W        W17160   2.098   5.003  13.699  0.3421 -0.2399 -0.2660
 1692W        W17161   9.257   2.866   1.141 -0.0584 -0.1611 -0.0905
 1693W        W17162  14.218  17.574   3.654  0.1484  0.2377 -0.1961
 1694W        W17163   2.124   5.482  12.807 -0.1577  0.2730  0.2428
 1695W        W17164   5.375   3.286   5.482  0.1091 -0.0513  0.1121
 1696W        W17165   2.152   0.069   3.072 -0.0794  0.1638 -0.1505
 1697W        W17166  14.085   1.055  14.245  0.3025 -0.4054  0.2954
 1698W        W17167   4.492   9.535  13.464  0.1107 -0.2876  0.2206
 1699W        W17168   6.290   3.424  15.186  0.0419  0.3293  0.1488
 1700W        W17169  17.600   1.276   0.554  0.3014 -0.4485 -0.1149
 1701W        W17170  16.343  10.246  15.542 -0.0768 -0.2382  0.1285
 1702W        W17171   5.033   3.858  11.325  0.0475  0.0388 -0.0302
 1703W        W17172  17.071  16.255  13.641 -0.1899  0.1705 -0.0812
 1704W        W17173  17.564   9.915   0.005  0.2188  0.0046 -0.0202
 1705W        W17174  15.373  14.193  15.392 -0.0079 -0.2409 -0.0723
 1706W        W17175  16.779   0.659  15.065 -0.2064  0.0183 -0.0806
 1707W        W17176  14.609  14.975  14.648  0.0058  0.0357 -0.1274
 1708W        W17177  17.558  15.091   2.543  0.2387  0.0499 -0.1652
 1709W        W17178  17.903   9.945   4.145 -0.0310  0.1015 -0.1835
 1710W        W17179   0.422   3.265  10.315 -0.0816  0.1970 -0.0195
 1711W        W17180   1.455   6.070  14.889  0.1005  0.0079  0.3333
 1712W        W17181   5.169  15.834   5.844  0.3172  0.0989  0.4431
 1713W        W17182   1.911   1.383   1.623 -0.1880  0.3342 -0.5196
 1714W        W17183   5.327   9.758  14.591  0.0350  0.0586  0.0415
 1715W        W17184  14.709   0.640  11.201  0.1681  0.0722 -0.1081
 1716W        W17185   3.962  12.890   3.550  0.1106 -0.1595  0.0889
 1717W        W17186   3.270   4.594   1.893 -0.0851  0.2125 -0.2226
 1718W        W17187  17.523  17.249  15.042  0.2228  0.0535 -0.0241
 1719W        W17188   9.857  11.930  14.176 -0.2495  0.2682 -0.0373
 1720W        W17189  14.103  12.435   0.696  0.1690  0.4354  0.1811
 1721W        W17190  15.097   8.112   1.919  0.0429 -0.1456  0.0650
 1722W        W17191   0.037  15.746  10.982  0.0545 -0.1238 -0.0690
 1723W        W17192   4.094   7.100   2.672  0.1210 -0.0266  0.2064
 1724W        W17193   9.342   8.608   4.794 -0.1820  0.0406  0.1345
 1725W        W17194   9.699   4.465   2.779 -0.0472  0.1267 -0.0731
 1726W        W17195   2.734   7.435  10.216  0.2287 -0.1497 -0.2036
 1727W        W17196  12.555   0.111  10.846 -0.1601  0.0276 -0.1017
 1728W        W17197  15.047   1.844   6.134  0.0606  0.2422  0.1535
 1729W        W17198  15.224   0.455  14.545  0.1673  0.1277  0.2374
 1730W        W17199   0.799   2.373  12.937 -0.0456 -0.0335 -0.2304
 1731W        W17200  13.664   3.940   4.590  0.0007  0.2388  0.0426
 1732W        W17201   5.898   7.291   3.067 -0.1098  0.2435 -0.0069
 1733W        W17202   8.836   8.829   2.583 -0.2345 -0.1027 -0.1170
 1734W        W17203   2.819   6.461  11.371  0.0237  0.2654 -0.1751
 1735W        W17204   2.073  11.158   2.318 -0.0779 -0.1398 -0.2249
 1736W        W17205   6.282   3.950  14.888  0.0321 -0.3014 -0.1995
 1737W        W17206   5.133   9.056  13.997  0.2312 -0.0106 -0.2130
 1738W        W17207   4.852  16.337   4.827 -0.3640  0.2109  0.1429
 1739W        W17208   9.578   5.262  12.516  0.1965 -0.1180  0.0439
 1740W        W17209   4.904   2.510  15.634 -0.1828  0.4436 -0.0189
 1741W        W17210   2.149  12.533   1.474 -0.0343 -0.1172  0.1600
 1742W        W17211   5.542  18.667   2.974  0.0737 -0.2450  0.1308
 1743W        W17212  12.206   1.212  12.593  0.1367 -0.0694 -0.1131
 1744W        W17213  12.482   0.116   1.088  0.3703 -0.3132  0.2226
 1745W        W17214  12.211   2.199  13.628 -0.2800 -0.4598 -0.3613
 1746W        W17215  11.876   9.464   1.760  0.0461 -0.1483  0.4588
 1747W        W17216   7.255  15.299  11.385 -0.1094 -0.2904  0.2057
 1748W        W17217   9.717   5.540   4.412  0.1967  0.2928 -0.1358
 1749W        W17218   0.422  16.553   4.929 -0.0257  0.1117 -0.1684
 1750W        W17219   7.811  12.006   3.870  0.2403 -0.1198  0.2660
 1751W        W17220   2.335   6.306  12.629  0.1817 -0.3827  0.2464
 1752W        W17221  10.919  18.130  12.215 -0.0572  0.0551 -0.1430
 1753W        W17222   2.437   1.146  12.976 -0.2820  0.0939 -0.0093
 1754W        W17223   0.720  11.733   5.633  0.0089 -0.3165  0.1454
 1755W        W17224  18.364   9.324   2.341 -0.3056 -0.0167  0.2943
 1756W        W17225   3.899   0.489   2.218  0.1931 -0.0426  0.0017
 1757W        W17226   1.292  10.007   2.102  0.1008  0.2321  0.0087
 1758W        W17227  18.045  13.799  10.779  0.1893 -0.2749 -0.0371
 1759W        W17228  14.534  13.503  13.827  0.1089 -0.0740 -0.0832
 1760W        W17229   4.122   9.425  15.312  0.0071 -0.1616  0.0241
 1761W        W17230   0.621  14.696   3.692 -0.0145 -0.3506 -0.2025
 1762W        W17231  14.823  13.059  12.198 -0.0213 -0.2044 -0.1103
 1763W        W17232  16.265   4.738  10.893 -0.3055 -0.0050  0.1019
 1764W        W17233  17.307  13.808  15.660  0.1327 -0.0664  0.2245
 1765W        W17234   3.635  11.221   2.443  0.1742 -0.0945  0.2368
 1766W        W17235  10.545   3.459   0.528 -0.1086  0.0150 -0.0147
 1767W        W17236  13.668   0.541   4.416  0.3441 -0.1615  0.3808
 1768W        W17237  12.140   6.435   1.774  0.3214  0.2666 -0.1750
 1769W        W17238   1.365   7.498  12.257 -0.3361 -0.1837 -0.2992
 1770W        W17239   9.294   6.072   3.451 -0.0941  0.1176 -0.1374
 1771W        W17240  18.222  16.558  15.304  0.1854  0.2824  0.3817
 1772W        W17241   4.926   6.007  14.178  0.1348 -0.1448  0.0124
 1773W        W17242   2.457  11.620   1.417 -0.0898  0.1605 -0.2012
 1774W        W17243   9.592  17.069   4.094  0.0374 -0.3100 -0.1066
 1775W        W17244  17.494  16.447  13.911  0.0634  0.1798 -0.3462
 1776W        W17245   4.200  17.650  13.153  0.0870 -0.1930  0.1100
 1777W        W17246   0.836   4.570   1.756  0.1206  0.3523  0.2142
 1778W        W17247  11.663  14.421   3.645 -0.0194 -0.1571 -0.2690
 1779W        W17248  11.624   2.363   4.097 -0.2057  0.1445 -0.1279
 1780W        W17249  14.463   2.913  11.690 -0.0380 -0.0604 -0.2164
 1781W        W17250  10.818  16.282   2.467  0.2335  0.0067 -0.0627
 1782W        W17251   9.210   2.889   5.406  0.2732  0.4757  0.1197
 1783W        W17252  14.400   7.275   2.717 -0.0498 -0.2065 -0.3725
 1784W        W17253   6.627   3.055  10.994 -0.0886  0.0639 -0.0896
 1785W        W17254   8.842   6.455  14.872 -0.0568  0.1689  0.2376
 1786W        W17255   8.869   0.181  13.288 -0.3391 -0.0652  0.4141
 1787W        W17256  13.925   5.717   1.240  0.1738 -0.1023  0.1436
 1788W        W17257  14.799  10.287   5.800  0.1539  0.2006 -0.2111
 1789W        W17258   2.992   0.074   3.011 -0.1643 -0.2587 -0.1559
 1790W        W17259   3.923   0.142  10.219  0.2819 -0.5256 -0.2465
 1791W        W17260   3.606   5.449   3.128 -0.2213 -0.1027  0.2043
 1792W        W17261   1.707  15.046   3.096  0.1273 -0.3356 -0.4867
 1793W        W17262  16.820  13.985  12.494  0.0080  0.0244  0.0330
 1794W        W17263   7.397   8.613   1.756 -0.0633  0.2722 -0.0637
 1795W        W17264   1.505  16.153   0.071  0.2668  0.1058  0.0482
 1796W        W17265  17.192   2.969  12.278 -0.0962  0.1069 -0.2672
 1797W        W17266  17.757  14.133   5.352  0.0394  0.1141 -0.0945
 1798W        W17267   3.105  12.838  14.329 -0.1807  0.0610 -0.2978
 1799W        W17268   2.167  16.428  11.117  0.1639 -0.2514 -0.1127
 1800W        W17269  11.250   9.878   3.290 -0.2854  0.5503 -0.1557
 1801W        W17270  16.455   6.737   5.477  0.0202 -0.0949 -0.2113
 1802W        W17271  11.405  16.679  15.034  0.1822  0.2400  0.2013
 1803W        W17272   8.791   4.894  13.990 -0.1959 -0.0990 -0.0006
 1804W        W17273   9.387  15.445   5.121  0.2518  0.3625 -0.1341
 1805W        W17274   1.633  12.088   0.728  0.2231 -0.1974  0.0473
 1806W        W17275   3.205  16.106  14.155 -0.0479  0.0063  0.1544
 1807W        W17276  11.835  18.145   3.126 -0.4343  0.0912  0.0413
 1808W        W17277  16.901  18.493   3.894 -0.0447  0.4754 -0.1870
 1809W        W17278  10.944  12.714   3.447  0.1569 -0.1213 -0.1541
 1810W        W17279  12.069  13.292  12.046  0.0772 -0.3179  0.1216
 1811W        W17280   9.883  11.833   1.486 -0.1308 -0.0534 -0.0967
 1812W        W17281   9.959  16.757   1.353 -0.1708  0.2885 -0.1025
 1813W        W17282   0.358  17.419  15.661  0.1718 -0.0483  0.1352
 1814W        W17283   5.444  15.134  11.059 -0.0808  0.1858  0.2748
 1815W        W17284   5.025  11.638  14.348 -0.1770  0.1397  0.0842
 1816W        W17285  15.601  16.278   3.017  0.1243  0.0352 -0.0911
 1817W        W17286   9.765  15.661   3.063 -0.2503  0.1320 -0.2991
 1818W        W17287   3.033   6.235   0.399  0.1470  0.2693  0.0413
 1819W        W17288   0.925   6.850   2.384 -0.0884  0.0592  0.1236
 1820W        W17289  18.544  14.076  14.292 -0.1895 -0.0258  0.0738
 1821W        W17290   0.030   6.203   3.361  0.1394 -0.2417  0.0257
 1822W        W17291   7.605   0.090   2.283  0.1121  0.3072 -0.0725
 1823W        W17292   8.948  13.244  14.297  0.0812  0.0456 -0.1535
 1824W        W17293   2.545   8.929  13.292  0.0175  0.0815 -0.1028
 1825W        W17294   7.350  10.672  12.551 -0.3401  0.0170  0.1384
 1826W        W17295   1.870   9.158  10.246  0.0011  0.0722 -0.1572
 1827W        W17296   8.444   0.616  11.108 -0.1920  0.0081 -0.1907
 1828W        W17297   6.092  11.634  11.526  0.2568 -0.2954  0.0872
 1829W        W17298  15.101   7.843  15.083 -0.0961 -0.2896  0.2143
 1830W        W17299   5.404   5.674   4.638  0.3334  0.1169 -0.2224
 1831W        W17300  13.389  13.502  15.155  0.0620 -0.2667  0.0690
 1832W        W17301  14.082   2.968  12.008  0.0553  0.2042 -0.1622
 1833W        W17302   8.415   9.543   1.483  0.2650  0.4111  0.3299
 1834W        W17303   2.475   0.133   6.033  0.3728  0.1785 -0.0436
 1835W        W17304  18.577   9.462   9.838  0.2966 -0.0654 -0.3064
 1836W        W17305   2.771   5.426   3.025  0.1827 -0.2027  0.3784
 1837W        W17306  12.813   7.922  12.710 -0.4755  0.4581  0.1066
 1838W        W17307   9.119  11.472  14.236 -0.0161  0.0516 -0.0998
 1839W        W17308  12.048   2.327   0.334  0.0784 -0.1128  0.0028
 1840W        W17309   2.308   3.789   3.752 -0.0379 -0.0151 -0.1753
 1841W        W17310   1.172  13.569  12.465 -0.3337  0.1052  0.0296
 1842W        W17311   6.053   4.977  12.592 -0.1282 -0.1600  0.2046
 1843W        W17312   6.971   7.116  13.781 -0.0009 -0.1943  0.1374
 1844W        W17313   8.822  17.438  13.010  0.0969  0.0589 -0.0826
 1845W        W17314  12.429  11.159  14.489 -0.1029 -0.2793  0.1917
 1846W        W17315  13.849  12.109  12.895  0.4636 -0.0337 -0.1499
 1847W        W17316  13.613   1.550  13.399 -0.1141  0.3982 -0.0165
 1848W        W17317  10.360   1.813   1.375  0.3082  0.5477 -0.0582
 1849W        W17318   3.244  10.737   4.580 -0.3027 -0.5114 -0.1912
 1850W        W17319  14.504   3.403  12.646 -0.0306  0.0480 -0.1405
 1851W        W17320   4.949   2.215  14.644 -0.0841 -0.0927 -0.0680
 1852W        W17321  17.272  15.805  13.545  0.0100  0.0062  0.2426
 1853W        W17322  10.296  11.710  10.856 -0.0218  0.1520  0.2185
 1854W        W17323  18.676  14.537  12.867  0.0463 -0.0003 -0.1465
 1855W        W17324  16.886   9.230   5.969  0.3626  0.2555  0.1532
 1856W        W17325   2.962   0.926  12.400 -0.1972 -0.2148  0.2586
 1857W        W17326   3.968   0.470   6.135 -0.0512 -0.0398  0.1304
 1858W        W17327  12.774   4.758   1.618  0.1460 -0.1897  0.2508
 1859W        W17328  10.698  10.597   3.064  0.2791 -0.0778  0.1207
 1860W        W17329   6.980  11.555  12.337  0.1300 -0.0072 -0.1816
 1861W        W17330   6.372   4.815  11.600 -0.1192  0.2370  0.1391
 1862W        W17331   7.947  10.345   1.986  0.1463  0.2310  0.1176
 1863W        W17332   9.018   9.944   0.647  0.0136  0.0635  0.0937
 1864W        W17333   9.116   4.536  13.047  0.1031  0.2289  0.0342
 1865W        W17334   7.217   8.400   2.252  0.1518 -0.1062  0.0337
 1866W        W17335  16.470   9.379   3.128  0.0979  0.2609 -0.0147
 1867W        W17336  12.897  10.982   1.993 -0.1042  0.3991  0.1017
 1868W        W17337   3.053   2.202  13.243  0.3231 -0.1202  0.1787
 1869W        W17338  18.287   7.359   4.545 -0.3841  0.2929  0.0086
 1870W        W17339  10.531   1.757   1.847  0.0703 -0.1517 -0.3275
 1871W        W17340  15.018   3.851  15.342  0.1965  0.3946 -0.0151
 1872W        W17341   5.627   2.102   3.575 -0.2602  0.0643 -0.1089
 1873W        W17342   6.324   6.135   5.397 -0.0741  0.1682 -0.0757
 1874W        W17343   8.879  11.269   0.777 -0.0981  0.2053 -0.2656
 1875W        W17344   7.588  16.551   4.278 -0.4203 -0.0826 -0.2736
 1876W        W17345  10.784   3.363  13.730  0.0349 -0.3539  0.0124
 1877W        W17346   5.769  14.444   4.721  0.0358 -0.0727  0.1752
 1878W        W17347   1.577  11.604   0.547  0.2721 -0.1287 -0.0292
 1879W        W17348  10.244  18.455   0.098 -0.1049  0.0145  0.6417
 1880W        W17349  14.831   2.756  11.321 -0.0835 -0.0392 -0.2364
 1881W        W17350   8.807  18.175   0.267  0.2912 -0.0489  0.0315
 1882W        W17351   1.106   5.737   1.356  0.1323 -0.1123 -0.0525
 1883W        W17352   2.433  14.367   2.546 -0.1206 -0.1130 -0.1492
 1884W        W17353  14.086   7.223   3.633  0.0275  0.1564  0.1861
 1885W        W17354  14.830   9.969  13.574 -0.1476  0.1526  0.0644
 1886W        W17355   0.806  17.313  13.277  0.3938  0.0630  0.0794
 1887W        W17356   8.540   6.781  13.427 -0.2199  0.2078  0.4788
 1888W        W17357   3.124   4.113  12.728 -0.1636  0.1349  0.0250
 1889W        W17358   6.821   8.376  12.148 -0.2593 -0.1633 -0.1878
 1890W        W17359  12.511   6.854  11.640 -0.2531 -0.1587 -0.0983
 1891W        W17360  14.020   0.196   9.827  0.1915 -0.2150 -0.4042
 1892W        W17361  18.343   6.097  13.919 -0.0041  0.0688  0.2003
 1893W        W17362   7.119   0.749  14.699  0.1353 -0.2253  0.0681
 1894W        W17363   0.411  14.548   2.315  0.0572 -0.4006  0.1317
 1895W        W17364   0.434   9.545  10.571 -0.1300 -0.2182 -0.1561
 1896W        W17365  10.021   2.141  15.391  0.0565  0.0810 -0.0792
 1897W        W17366   9.281   4.638  11.841 -0.0629  0.4259  0.1289
 1898W        W17367   5.820   8.452  12.298  0.1092  0.1978  0.0482
 1899W        W17368   7.636   1.318   4.978 -0.0261 -0.0129 -0.1361
 1900W        W17369  11.937  10.305   2.178 -0.1143 -0.1351 -0.3115
 1901W        W17370  10.169   4.032  13.553 -0.2760  0.2066 -0.2012
 1902W        W17371  10.441   6.399  13.080 -0.0199  0.1674  0.0604
 1903W        W17372  11.925   0.287   3.094  0.0919 -0.2391  0.1595
 1904W        W17373  15.204  15.500   2.845 -0.2936 -0.1687  0.0146
 1905W        W17374  15.994  12.904   0.814 -0.1111  0.1269  0.1562
 1906W        W17375  16.442   2.457  12.659  0.1760  0.0409  0.1579
 1907W        W17376   2.692   5.647  12.909 -0.0449 -0.1466  0.1549
 1908W        W17377   3.860   2.833  14.299  0.0137 -0.0665  0.2137
 1909W        W17378   1.831   2.646  13.302  0.0818 -0.0833 -0.3555
 1910W        W17379  16.331  12.319  15.183 -0.0085 -0.2424 -0.2399
 1911W        W17380   4.548   4.189   2.451  0.0397  0.0383  0.0964
 1912W        W17381   2.637   0.885   0.925  0.0268  0.0168  0.1246
 1913W        W17382  14.418   2.561  15.599  0.1517  0.0664  0.0692
 1914W        W17383   6.275  17.897   3.746  0.1017 -0.1029  0.4410
 1915W        W17384  13.744   6.794   1.505  0.3576  0.1164  0.1247
 1916W        W17385   6.063  13.655   0.640 -0.2857 -0.0393  0.0957
 1917W        W17386   7.784   3.140   4.893  0.0571  0.0721 -0.0448
 1918W        W17387  10.803   7.680   0.732 -0.0997 -0.2687 -0.1887
 1919W        W17388   8.916   4.011   1.149 -0.0993 -0.0548  0.1401
 1920W        W17389   9.304   3.084   2.239 -0.0290 -0.2976  0.1469
 1921W        W17390  16.844  17.141   4.813  0.2786 -0.0499  0.1146
 1922W        W17391   1.613   7.341  12.662  0.0522  0.0945  0.0506
 1923W        W17392   7.905  10.991   4.332  0.1060  0.1399 -0.0999
 1924W        W17393   9.452  15.398   4.218  0.0332 -0.0218 -0.0169
 1925W        W17394  15.288  18.057   4.194 -0.1422  0.0928  0.3097
 1926W        W17395   0.475   2.033   5.683  0.1585 -0.0750 -0.0397
 1927W        W17396  10.405  16.979  12.896 -0.4105  0.1815  0.1395
 1928W        W17397   0.993  12.248   3.965 -0.0953  0.1085  0.1498
 1929W        W17398  10.446   2.500   4.180 -0.0751 -0.1246 -0.0017
 1930W        W17399  10.207  16.217  14.403  0.1751  0.0455  0.2272
 1931W        W17400  10.520   9.436  14.509 -0.0265  0.0763  0.0080
 1932W        W17401   7.144  15.364   5.246  0.0478 -0.1097  0.2549
 1933W        W17402  16.682  13.094  12.737  0.4422 -0.1035 -0.0982
 1934W        W17403   4.076   2.441   4.117  0.1124  0.0818 -0.1513
 1935W        W17404   6.232  13.683  13.422  0.0549 -0.1625 -0.1574
 1936W        W17405  17.856   4.831  15.027  0.4971 -0.0477  0.2210
 1937W        W17406   2.085   0.809  13.229 -0.0061 -0.0238  0.0855
 1938W        W17407  13.673   2.202  10.847 -0.0388 -0.5011 -0.2623
 1939W        W17408   7.036  16.030   1.600 -0.0092 -0.1042  0.0028
 1940W        W17409   7.500   5.044   5.446  0.1944  0.2506 -0.0585
 1941W        W17410   9.475   1.757  14.801 -0.0195  0.0848 -0.0778
 1942W        W17411  18.488  13.825  10.571 -0.0170 -0.4663  0.3827
 1943W        W17412  11.462   3.242   4.606 -0.0856 -0.1973  0.0016
 1944W        W17413   9.415  11.465  12.780  0.2295 -0.3133  0.0609
 1945W        W17414   7.505  13.192  15.316  0.0690 -0.1167  0.0646
 1946W        W17415   9.234   1.558  13.439  0.2380 -0.0913  0.0573
 1947W        W17416  14.647  11.439  12.844 -0.0215  0.2171 -0.1039
 1948W        W17417   5.909   9.711  15.005  0.0391 -0.0097 -0.2494
 1949W        W17418   8.012   3.030   0.573 -0.0114  0.0677  0.0991
 1950W        W17419  16.344   7.075  11.587 -0.0747 -0.3336  0.2456
 1951W        W17420   4.771  11.672  12.192 -0.0131 -0.2742 -0.1887
 1952W        W17421  10.666   1.160   9.670  0.2685  0.1322  0.0689
 1953W        W17422  12.944   1.455  14.667 -0.0612  0.0593 -0.1741
 1954W        W17423  16.335   1.258   1.455 -0.0961 -0.2059 -0.1461
 1955W        W17424   3.709  13.765  11.868 -0.1330 -0.1526  0.0673
 1956W        W17425  12.049   8.593  11.184 -0.0098 -0.0189 -0.2252
 1957W        W17426   5.206   2.146  11.151  0.1028  0.2687 -0.3984
 1958W        W17427   1.545   2.665  12.370 -0.1457  0.0211 -0.0341
 1959W        W17428  11.510  10.400   5.342  0.0005 -0.4579  0.0854
 1960W        W17429  11.474   5.776   4.150 -0.0898  0.1094 -0.1117
 1961W        W17430  16.527   5.672  11.607  0.0711  0.1105 -0.0693
 1962W        W17431  15.952  11.368  13.553 -0.0350  0.2664  0.2404
 1963W        W17432   6.440  11.076  13.178 -0.0662  0.0061 -0.2275
 1964W        W17433  16.550  17.298   5.257 -0.1993  0.0122 -0.3388
 1965W        W17434  15.298   9.483  13.254 -0.2039 -0.2476 -0.0141
 1966W        W17435  12.937  11.728  14.252  0.0205 -0.1011 -0.1312
 1967W        W17436   6.566   5.445  14.615 -0.0151  0.0889  0.0768
 1968W        W17437   2.102   4.995   3.363  0.0392 -0.0385  0.1275
 1969W        W17438   0.259  13.691   5.813 -0.1841  0.1837 -0.0513
 1970W        W17439   2.068   3.385  13.722  0.1992  0.0485  0.0480
 1971W        W17440  18.684   8.681  15.213 -0.3990  0.0012 -0.0935
 1972W        W17441  10.900  10.168  14.473 -0.4896  0.0169  0.1180
 1973W        W17442  15.836  15.901   0.839 -0.1810  0.1904 -0.0289
 1974W        W17443   9.413   2.253   0.358  0.0863 -0.3073  0.0646
 1975W        W17444  13.514   6.429  15.006  0.0900 -0.1670  0.0647
 1976W        W17445   6.034   2.254   3.403 -0.1620 -0.0232  0.0030
 1977W        W17446  17.438  13.036  11.913 -0.0917  0.0631  0.1921
 1978W        W17447   7.728  11.757  15.039 -0.1046  0.2812  0.1621
 1979W        W17448  10.836   1.260   0.324 -0.0654  0.0308  0.2781
 1980W        W17449  18.572   2.501  13.615  0.1191 -0.1190  0.0385
 1981W        W17450   4.452  13.933   0.631 -0.3329 -0.0266 -0.0414
 1982W        W17451   6.544   2.977  13.326 -0.2013  0.2718 -0.2033
 1983W        W17452  12.123  14.591  11.594  0.1919 -0.1974  0.0231
 1984W        W17453  13.886   5.644  12.738  0.1133 -0.0018  0.1949
 1985W        W17454   3.616   9.875  13.754 -0.3286 -0.0970 -0.2493
 1986W        W17455   5.187   3.719  12.125 -0.0483 -0.1956 -0.2607
 1987W        W17456   5.167  14.617   3.532 -0.1510  0.0038 -0.1658
 1988W        W17457   0.066   7.331  11.954  0.0071  0.1533 -0.2658
 1989W        W17458   3.236  11.303  11.823 -0.5642 -0.0748  0.1360
 1990W        W17459   0.386  13.381  13.485  0.1868  0.4807 -0.0155
 1991W        W17460   8.960   9.178   0.370  0.3723  0.1100  0.0453
 1992W        W17461  10.413  18.493   9.676  0.2295  0.0008 -0.1090
 1993W        W17462   6.640  15.534  15.579  0.0202 -0.1510 -0.3300
 1994W        W17463  14.321   2.748   5.788  0.0994  0.0908 -0.0132
 1995W        W17464  15.547  18.743  11.472  0.0312  0.0304  0.1427
 1996W        W17465  16.322   2.757   1.546 -0.1309 -0.0343  0.0335
 1997W        W17466  11.238   4.235  12.382  0.1047  0.2045 -0.1801
 1998W        W17467  13.541   0.047   0.098  0.1856 -0.1097  0.3754
 1999W        W17468   2.193  17.182   9.826 -0.2943 -0.3509  0.2313
 2000W        W17469   8.184   7.323  14.288 -0.3010  0.0763 -0.1521
 2001W        W17470  18.517   3.493   5.823 -0.1829  0.4966  0.0110
 2002W        W17471  10.113   2.568  15.234  0.2176 -0.1360  0.0675
 2003W        W17472  17.951  12.379   1.643  0.0625  0.0634 -0.0616
 2004W        W17473  15.433   2.147  13.539 -0.0650 -0.1430  0.2757
 2005W        W17474  15.644   2.614  13.021 -0.0883  0.3807 -0.1932
 2006W        W17475  10.974  13.032   0.150 -0.1886 -0.2336 -0.1441
 2007W        W17476   4.895  11.872   4.699 -0.3047  0.2379 -0.2203
 2008W        W17477  14.517   6.804  12.390 -0.1403 -0.2802  0.2344
 2009W        W17478  15.278   7.145   5.693  0.1884  0.1566 -0.1462
 2010W        W17479  14.563  15.772   5.109 -0.0818  0.2140 -0.2603
 2011W        W17480  15.883   4.255   2.880  0.1383  0.1002  0.0722
 2012W        W17481   8.862  12.521   5.784  0.0238  0.4988  0.0438
 2013W        W17482   9.565  10.711  10.317 -0.1533  0.2242 -0.2729
 2014W        W17483  11.159   3.462  14.081  0.3998 -0.2665  0.1646
 2015W        W17484  14.592  17.384  13.621 -0.1596  0.0891  0.0524
 2016W        W17485  17.276   5.705   3.974 -0.0654 -0.1838 -0.0712
 2017W        W17486  13.010   5.673  13.932  0.0584 -0.2046 -0.2545
 2018W        W17487  17.460   3.383   0.137 -0.0188  0.1427 -0.0696
 2019W        W17488  13.051   0.243  11.164  0.3564  0.1908  0.1406
 2020W        W17489   6.996  16.280  13.100 -0.2321 -0.0105  0.1963
 2021W        W17490  12.619   8.034   0.297 -0.1247 -0.1750  0.3445
 2022W        W17491  14.722   1.115   2.709  0.0934  0.0458 -0.1350
 2023W        W17492  15.930  16.301  11.292 -0.0763  0.0413 -0.1128
 2024W        W17493  11.511  17.830   2.099 -0.0702  0.0293  0.1408
 2025W        W17494   4.785  11.189   3.053 -0.0614  0.0187  0.1518
 2026W        W17495   3.499  10.504   9.867  0.0182  0.1438 -0.0808
 2027W        W17496  17.933  13.739   3.286  0.0384  0.2026 -0.0682
 2028W        W17497  15.238   8.111  13.326  0.1192  0.0242  0.1660
 2029W        W17498  14.381   5.996  11.442 -0.0412 -0.2065  0.0870
 2030W        W17499  11.641   9.851  12.737  0.1180  0.2680  0.2972
 2031W        W17500   7.320  11.372   1.977 -0.0830  0.4163  0.1295
 2032W        W17501   6.298  18.457  13.448 -0.2062  0.1538 -0.0326
 2033W        W17502  17.920  10.068   5.959  0.2556  0.0295 -0.1249
 2034W        W17503  16.299  11.028   2.215 -0.2816  0.0811 -0.0127
 2035W        W17504   0.103  16.963   2.111  0.0032 -0.1228 -0.0041
 2036W        W17505  18.734   7.321   2.419  0.0438  0.0262 -0.3416
 2037W        W17506  12.944   4.575   3.643 -0.2912 -0.1447 -0.1320
 2038W        W17507   9.697   9.987   1.703  0.1657 -0.4096  0.0956
 2039W        W17508   9.167   3.394   5.138  0.0483  0.2755 -0.0853
 2040W        W17509   7.520   5.891  14.757  0.3448  0.1437  0.1844
 2041W        W17510  16.649  12.203   3.424 -0.0390  0.3056  0.3275
 2042W        W17511   7.972  15.513   2.049 -0.1281 -0.0454  0.0596
 2043W        W17512  10.699   9.280  11.162 -0.2108 -0.1265 -0.2083
 2044W        W17513  11.204   0.125   5.069  0.1836 -0.2227  0.1157
 2045W        W17514   5.311  11.546   5.426 -0.1098 -0.3836 -0.0017
 2046W        W17515  13.204  17.307  12.203 -0.1758 -0.0578 -0.1134
 2047W        W17516   9.629   8.541  11.116 -0.1930  0.0036  0.3940
 2048W        W17517   0.520  14.383   5.020  0.1961  0.0679  0.1034
 2049W        W17518   9.403  18.670   2.907 -0.2871 -0.1156  0.1007
 2050W        W17519  17.670  13.580   2.390 -0.3986  0.0814 -0.0777
 2051W        W17520  16.132   7.862  13.198 -0.3607  0.0663 -0.3034
 2052W        W17521   6.361   1.148  12.167  0.0312  0.3450  0.0264
 2053W        W17522  13.910   0.759   1.501  0.2344  0.1328  0.0385
 2054W        W17523  12.826  11.457  13.631 -0.3026 -0.0318 -0.0013
 2055W        W17524  13.045   1.441  10.834  0.0820  0.0407 -0.2640
 2056W        W17525   6.226  18.705   3.668  0.0955  0.0782 -0.0660
 2057W        W17526   9.069   2.681  12.568 -0.0095  0.0099  0.0020
 2058W        W17527  12.841   0.476   1.331 -0.1532  0.3972  0.1087
 2059W        W17528  16.547  10.332  13.935 -0.2212 -0.0887 -0.0227
 2060W        W17529  16.790   7.260   0.914 -0.1592  0.2803 -0.3013
 2061W        W17530   6.875   6.139   3.899 -0.5223  0.0241  0.0786
 2062W        W17531   6.846  12.216  14.922 -0.0082 -0.1609  0.1525
 2063W        W17532  18.259   0.911  13.969  0.1342  0.5124  0.0057
 2064W        W17533   1.360  12.882  15.336  0.2418  0.0252 -0.0398
 2065W        W17534  10.768   6.182   1.848 -0.1648  0.0769  0.1229
 2066W        W17535  13.773   1.547   2.922  0.0095 -0.2946  0.2567
 2067W        W17536  12.757   0.331   0.386  0.1463 -0.0856 -0.0982
 2068W        W17537   1.105   3.057  11.060 -0.0405  0.2218  0.1610
 2069W        W17538   3.015  16.390   5.672 -0.1476  0.3063  0.0584
 2070W        W17539   1.429   9.760   3.299 -0.0905  0.1730 -0.0854
 2071W        W17540  13.590   5.802   2.858 -0.2028  0.1543  0.0756
 2072W        W17541  13.816  10.608   1.395  0.2008 -0.0198 -0.2651
 2073W        W17542  10.448  18.477  10.749  0.3600  0.0959  0.1212
 2074W        W17543   2.164  16.440   0.367 -0.0364 -0.2169 -0.1934
 2075W        W17544  16.404   9.555  11.422  0.3022  0.1652  0.0996
 2076W        W17545  10.254   1.457   4.694 -0.3433 -0.3246  0.1933
 2077W        W17546   6.471   7.015  13.941 -0.0470 -0.0042  0.3084
 2078W        W17547   3.735  11.660  11.729  0.3141 -0.6501  0.1401
 2079W        W17548  13.140   1.113   3.177 -0.2960  0.0539 -0.1528
 2080W        W17549  18.552   2.397   2.186 -0.0248 -0.0792 -0.2208
 2081W        W17550   4.851  18.258  13.920 -0.3404  0.0814  0.2579
 2082W        W17551  15.671   1.734  11.798  0.1510 -0.3140  0.1114
 2083W        W17552  15.524   2.922  13.919  0.1568  0.0019 -0.1782
 2084W        W17553   0.196   0.823   5.025  0.1736  0.4014  0.0984
 2085W        W17554   2.470   7.822  10.514  0.3302 -0.0446 -0.0427
 2086W        W17555   5.711  18.652  11.361  0.2535  0.0504  0.1910
 2087W        W17556   1.242   4.335   3.185 -0.0635  0.0760 -0.1271
 2088W        W17557   4.753  16.842   3.466 -0.0269 -0.1199  0.1133
 2089W        W17558   4.768   2.008  10.980  0.2309 -0.0409  0.2848
 2090W        W17559  12.545   6.446  15.147 -0.3151  0.0985  0.4485
 2091W        W17560   9.682  15.015  15.199  0.1328 -0.2935 -0.1003
 2092W        W17561  12.499  12.995   4.285 -0.0218  0.1402  0.1668
 2093W        W17562  12.824  17.317   0.152 -0.2010  0.1174  0.0212
 2094W        W17563   8.827  15.154   0.629  0.1779  0.0635 -0.3240
 2095W        W17564   9.974  18.710   0.633  0.5056 -0.1233 -0.3547
 2096W        W17565   3.639  16.643   1.388  0.0457 -0.1224 -0.0096
 2097W        W17566  17.857  18.458   0.492 -0.0569  0.2127  0.1232
 2098W        W17567   4.348  12.025  10.889 -0.1686 -0.1045 -0.2164
 2099W        W17568  10.034  18.745  15.290  0.0366 -0.2316  0.1418
 2100W        W17569  12.757   6.469  13.484  0.1530 -0.3025  0.2732
 2101W        W17570  16.525  13.073   3.166  0.3511 -0.2104  0.0402
 2102W        W17571   5.022  11.095  12.018  0.1044  0.0005 -0.1433
 2103W        W17572   4.527  15.532  14.515 -0.1511  0.2247 -0.0690
 2104W        W17573   7.714  16.628   2.587  0.1196 -0.1646  0.4586
 2105W        W17574  14.513   5.224   1.912  0.0139 -0.0041 -0.1982
 2106W        W17575   6.940   9.070  13.612 -0.0232  0.0049  0.3170
 2107W        W17576   9.322   2.126  12.053 -0.0129 -0.3644 -0.2849
 2108W        W17577   0.184   5.727  15.177  0.2586  0.1943 -0.1686
 2109W        W17578   4.074  16.093  11.592 -0.3788  0.0085 -0.1692
 2110W        W17579  11.826   1.779  10.279 -0.0585 -0.3507 -0.2799
 2111W        W17580   8.971   5.128  15.504 -0.0291  0.0292  0.1000
 2112W        W17581  14.911   3.108   2.431  0.0894 -0.1028  0.0288
 2113W        W17582  16.735  16.282   4.762 -0.1986  0.4582 -0.2748
 2114W        W17583  12.553   4.749   4.479 -0.0210 -0.1506 -0.2143
 2115W        W17584   4.529  15.899  15.096 -0.0192  0.2273 -0.0052
 2116W        W17585   7.070  18.381   1.382 -0.1567 -0.0168 -0.3249
 2117W        W17586  10.157  17.036   3.681  0.0656 -0.0174 -0.1422
 2118W        W17587  11.150   3.829   1.912 -0.3500  0.1167 -0.0340
 2119W        W17588  16.631   2.560   5.561  0.1098 -0.1383 -0.1871
 2120W        W17589  16.271  11.630  14.317 -0.0765  0.2772 -0.0495
 2121W        W17590  14.221   6.559  15.486 -0.1182  0.2712  0.0765
 2122W        W17591  14.581  16.261  14.870 -0.0366  0.1742 -0.0988
 2123W        W17592   0.005   0.909  14.303  0.4851  0.1615 -0.0297
 2124W        W17593   9.551  18.137  12.798 -0.3341  0.3151 -0.0615
 2125W        W17594  10.417   3.266  12.227 -0.3173  0.1842 -0.0205
 2126W        W17595   5.387  10.099   0.555  0.1903 -0.0102  0.1768
 2127W        W17596   4.854  17.388   2.272 -0.1264 -0.0479  0.0702
 2128W        W17597   8.274   0.007   4.563  0.0672  0.1977 -0.2931
 2129W        W17598   0.467   2.197   4.386  0.0932 -0.1089 -0.0576
 2130W        W17599   5.551   3.610   3.909  0.2268 -0.0293  0.3281
 2131W        W17600   3.253  10.811  11.844 -0.0566  0.2215 -0.0319
 2132W        W17601   2.171   5.116   0.412  0.2559  0.3241 -0.2783
 2133W        W17602   6.522   5.919  10.697  0.2193  0.1550 -0.0443
 2134W        W17603   4.254   2.955   5.862  0.1453  0.0441  0.0138
 2135W        W17604   2.779   6.510  15.661 -0.1660  0.0353  0.1498
 2136W        W17605  11.105  14.819  13.744  0.3277 -0.2566  0.1918
 2137W        W17606  11.020   8.043  10.863  0.0931  0.0694  0.2311
 2138W        W17607   2.636   1.290  10.287 -0.0735  0.0803 -0.2092
 2139W        W17608  18.282   1.836   4.075 -0.0764  0.1610  0.4456
 2140W        W17609   7.218   2.345   3.120  0.3499  0.1302  0.1243
 2141W        W17610  16.794   3.151  10.308  0.0238 -0.0191 -0.0052
 2142W        W17611  10.562   1.240  12.015 -0.1075 -0.1345 -0.1712
 2143W        W17612   8.937  12.422  12.695  0.0195 -0.2607  0.1022
 2144W        W17613   2.050  17.673   0.666 -0.1715 -0.1617  0.2091
 2145W        W17614   7.389   1.655   2.262 -0.1130  0.1357 -0.1116
 2146W        W17615   7.051  10.923  11.124 -0.1695  0.1140 -0.1342
 2147W        W17616  15.865   4.316  12.233  0.1715 -0.0987  0.1280
 2148W        W17617  18.621  13.495  12.076  0.0261 -0.1546  0.4800
 2149W        W17618   1.349   3.320  14.404  0.2046  0.1631 -0.0376
 2150W        W17619   6.632   8.180   5.512 -0.0148  0.1226 -0.0409
 2151W        W17620   7.116  10.712  14.169  0.0785 -0.2263  0.2359
 2152W        W17621  14.412   7.670  14.289  0.0814  0.1058 -0.0627
 2153W        W17622   0.501   7.867  13.470 -0.1142  0.1747  0.1040
 2154W        W17623  10.778  18.044   5.330 -0.0241  0.0484 -0.0410
 2155W        W17624   3.670   8.915   0.789 -0.0990 -0.1064  0.1059
 2156W        W17625   5.069  14.990   1.589  0.2691 -0.2145 -0.0182
 2157W        W17626  12.738  11.195   2.960  0.0916 -0.4595  0.3071
 2158W        W17627   0.460   7.486   1.741 -0.3189  0.2364  0.4464
 2159W        W17628  16.943  13.297  11.935  0.1517 -0.2492 -0.1194
 2160W        W17629   7.803   9.539  15.024 -0.0598  0.0675  0.4534
 2161W        W17630   8.862  10.728   9.982  0.0680  0.1976  0.0218
 2162W        W17631  17.996  15.885   2.321  0.1453 -0.3635 -0.1809
 2163W        W17632  13.600  12.055   1.423  0.3585  0.4068 -0.0768
 2164W        W17633  17.194   1.530  10.583  0.0510 -0.3078  0.0692
 2165W        W17634   3.958  13.209   3.066 -0.1178  0.0057 -0.0384
 2166W        W17635  18.281   8.311  10.926 -0.2035 -0.1015 -0.0666
 2167W        W17636   2.815  11.026  11.871 -0.1656  0.1284 -0.1593
 2168W        W17637   9.167  17.263  10.207 -0.1152 -0.2739 -0.3885
 2169W        W17638   8.861  16.755  14.546 -0.3363 -0.0398 -0.5047
 2170W        W17639   8.875   1.032   5.332  0.1016  0.0444 -0.0324
 2171W        W17640   9.344   5.569  15.581  0.2436  0.1243 -0.0234
 2172W        W17641  14.173   9.563  15.344 -0.3119 -0.2259 -0.0922
 2173W        W17642  18.288   7.895   1.640  0.1621 -0.0120 -0.2475
 2174W        W17643  18.144  16.338   4.861 -0.1458  0.2973 -0.3546
 2175W        W17644  18.579   7.188  14.894 -0.2045  0.7010  0.0665
 2176W        W17645   0.726  13.040   2.518  0.4243 -0.1208 -0.0221
 2177W        W17646  14.843   3.184  11.081  0.0409 -0.0486  0.0471
 2178W        W17647  11.167  14.658  11.651  0.1499 -0.2113  0.0410
 2179W        W17648   7.704   9.072   1.285  0.1229  0.0411  0.0564
 2180W        W17649   1.020  18.457  11.355  0.0921  0.2453 -0.1745
 2181W        W17650   9.076  11.072   4.518 -0.0122 -0.2336 -0.1601
 2182W        W17651  18.678  17.012  14.408 -0.1063  0.0096 -0.0816
 2183W        W17652   6.905  14.410   3.004 -0.0957 -0.0602 -0.1275
 2184W        W17653  18.677  13.049  12.435  0.0713 -0.1799  0.3258
 2185W        W17654   5.482   9.030  10.744 -0.4262  0.1157 -0.2283
 2186W        W17655  14.942   8.392   4.565 -0.0184 -0.0086  0.3326
 2187W        W17656   1.333  17.080   1.864 -0.5090  0.0686 -0.0682
 2188W        W17657   3.059  11.608   2.174 -0.1846 -0.0193 -0.1802
 2189W        W17658  15.257   9.083  13.631  0.1847  0.0096  0.0225
 2190W        W17659  11.307   0.741  11.451  0.2366  0.0486  0.1893
 2191W        W17660   2.179   1.098   1.238  0.0091 -0.0258 -0.0103
 2192W        W17661  11.113  14.132  14.166 -0.0241  0.1745  0.3807
 2193W        W17662  12.989  11.280  15.669  0.3461 -0.0138  0.0334
 2194W        W17663   6.158   2.535  15.474 -0.1697  0.2854 -0.0049
 2195W        W17664  12.373   9.740   0.965  0.0126 -0.0802  0.0959
 2196W        W17665  11.837  15.556  11.809 -0.0386  0.1398 -0.0575
 2197W        W17666   6.816   6.675  14.083 -0.0879  0.1235  0.0201
 2198W        W17667   0.227   2.208   1.337 -0.0131  0.0003  0.3115
 2199W        W17668   9.836   6.042   4.379  0.1886  0.1344 -0.3389
 2200W        W17669  16.002   4.147   4.159 -0.1526  0.0267  0.4900
 2201W        W17670  10.753   0.060  10.584  0.0883  0.0298  0.0137
 2202W        W17671   0.050   2.902  13.249  0.3022  0.0145 -0.0737
 2203W        W17672   6.129  17.063   3.412 -0.2341 -0.3119 -0.1183
 2204W        W17673  12.552  12.915   2.556 -0.1646  0.3932 -0.0513
 2205W        W17674   4.709  12.882   2.519  0.0988 -0.3359 -0.0949
 2206W        W17675   4.996   7.551  12.446  0.0260  0.4190  0.1914
 2207W        W17676   5.687   3.750  11.839  0.2258  0.0032 -0.3073
 2208W        W17677   8.190   2.671   1.651  0.0547  0.0539  0.2508
 2209W        W17678  11.041  17.319  11.564 -0.0707  0.1145 -0.1431
 2210W        W17679  14.982   8.799  12.749 -0.0736 -0.1526  0.0633
 2211W        W17680  17.671   6.882   2.575  0.0971 -0.0941  0.0284
 2212W        W17681  10.095  10.616  13.986 -0.0492 -0.0620  0.0411
 2213W        W17682  17.873  10.369   3.949 -0.0349  0.0896 -0.0498
 2214W        W17683   7.779   7.610   4.167  0.3498 -0.0984  0.1584
 2215W        W17684   6.314  15.462   2.465 -0.2595  0.1664 -0.2324
 2216W        W17685  13.946   3.289  15.405  0.3558 -0.1984  0.0371
 2217W        W17686   3.942  10.337   0.727  0.2433 -0.1066 -0.0283
 2218W        W17687  11.712   2.323  13.500  0.0518 -0.1255  0.3012
 2219W        W17688  13.776  17.841  15.194 -0.2471 -0.1332  0.1135
 2220W        W17689   5.152  14.018   1.628 -0.0418 -0.1723 -0.0016
 2221W        W17690   5.931  16.184  13.166  0.0952 -0.0057  0.1109
 2222W        W17691   9.724   1.959   3.859 -0.1102 -0.1016  0.1272
 2223W        W17692   6.096   8.917   2.563 -0.1411  0.2276 -0.0560
 2224W        W17693  17.076  15.619  11.926  0.0909 -0.2137  0.2102
 2225W        W17694   8.694  18.102  10.961 -0.1177 -0.3912 -0.0614
 2226W        W17695  10.826  15.967  13.761  0.1789 -0.1742 -0.2451
 2227W        W17696  15.990  16.910   0.517  0.0401 -0.2648  0.2707
 2228W        W17697  12.773  14.329   0.283 -0.2532  0.1616  0.1541
 2229W        W17698  17.478   1.467  15.575 -0.1765  0.2369  0.0584
 2230W        W17699   2.861  15.967   3.694  0.0868  0.1377  0.2753
 2231W        W17700  16.393  12.226   2.927  0.1205  0.0502 -0.0514
 2232W        W17701   2.649   9.042  11.938 -0.0205 -0.0297  0.1043
 2233W        W17702   3.596   4.893  10.809 -0.0453 -0.0851  0.1223
 2234W        W17703  17.467   1.120   3.401 -0.2116  0.0201 -0.1025
 2235W        W17704   9.529  17.363   0.678 -0.0091  0.1578  0.2845
 2236W        W17705   6.264   5.483   1.023  0.1164  0.0754  0.1828
 2237W        W17706   9.212  14.137  11.466 -0.1398  0.3293  0.0859
 2238W        W17707   6.338   3.347   1.116 -0.3119  0.0880  0.2375
 2239W        W17708   7.011   5.790   4.687  0.0455  0.1001 -0.1980
 2240W        W17709  16.411   1.955   0.896 -0.1369 -0.1303 -0.1439
 2241W        W17710   7.459  14.440  13.726 -0.3868 -0.2068  0.1862
 2242W        W17711  10.670  15.010   2.163 -0.1646 -0.0589 -0.1303
 2243W        W17712  16.316   3.979   2.683 -0.0629  0.0042  0.0312
 2244W        W17713   9.279   0.309   0.085  0.2249  0.1142 -0.2641
 2245W        W17714  14.764  10.609   4.271 -0.0589 -0.0630  0.0796
 2246W        W17715  16.663  11.793  14.508 -0.3229  0.1079 -0.0751
 2247W        W17716  14.897  14.549   2.036  0.0574 -0.0130 -0.1924
 2248W        W17717  10.838  10.003  12.863  0.0768  0.0510  0.2956
 2249W        W17718  11.062  17.267   9.714 -0.1044 -0.0194 -0.0517
 2250W        W17719  17.804  16.903   1.978  0.3585 -0.2851  0.0100
 2251W        W17720  11.344   8.738   4.376 -0.0856  0.0011  0.1208
 2252W        W17721   9.616  18.487  15.351 -0.1734  0.2238  0.0696
 2253W        W17722  17.629   9.370   0.642  0.3645  0.3647 -0.0691
 2254W        W17723   8.094   5.943   0.272  0.2329  0.0555 -0.0138
 2255W        W17724   6.629  12.152   4.111 -0.2104 -0.0620 -0.0463
 2256W        W17725  18.468  17.101  12.337 -0.0005 -0.1048  0.0076
 2257W        W17726  15.749  13.041  11.575  0.0445  0.0051  0.2862
 2258W        W17727   0.706  13.291  14.818 -0.1566 -0.0429  0.1364
 2259W        W17728   0.510  10.534   5.282 -0.2679 -0.1616 -0.3154
 2260W        W17729   7.055  10.797   2.764 -0.1889  0.1610  0.0383
 2261W        W17730   8.672  12.104   3.128 -0.2423  0.1466  0.1198
 2262W        W17731  11.480   6.992  11.568 -0.0452  0.0060  0.2133
 2263W        W17732  15.184   3.821  11.292 -0.1302 -0.0708  0.1471
 2264W        W17733   2.408   6.832   0.680  0.0629  0.3447  0.3038
 2265W        W17734   8.213  18.478   1.711 -0.1786  0.1590  0.0937
 2266W        W17735   7.000   4.048   2.025 -0.0614 -0.2029  0.2840
 2267W        W17736  15.326  18.672  13.046 -0.0939  0.0653 -0.0390
 2268W        W17737   2.566   0.299  11.263 -0.1093  0.2560  0.1087
 2269W        W17738  18.180   5.044   4.024 -0.0674  0.0020  0.0035
 2270W        W17739   4.004   9.414   4.577  0.2710 -0.2481 -0.0331
 2271W        W17740   3.731  10.431   4.589  0.0534 -0.0267 -0.0293
 2272W        W17741  12.844   4.235   1.350 -0.2121 -0.0381 -0.2189
 2273W        W17742  10.024  12.333  12.148  0.1510  0.1194 -0.0227
 2274W        W17743  10.178   3.914   2.307 -0.1763 -0.0131 -0.0211
 2275W        W17744   5.071   9.737   3.910 -0.2825  0.1353 -0.0166
 2276W        W17745   3.326  15.713   3.112  0.2595 -0.1510 -0.0047
 2277W        W17746   0.956  11.584   3.244 -0.2856 -0.0536 -0.2120
 2278W        W17747  13.193   3.461  12.130 -0.0440 -0.1553  0.2204
 2279W        W17748  13.832  11.111  14.681 -0.0556  0.1514  0.1777
 2280W        W17749  16.312   7.560  11.677 -0.1184  0.1177  0.2146
 2281W        W17750  12.008  12.027  14.604 -0.1420  0.3483 -0.0772
 2282W        W17751  10.211  15.874   1.696 -0.0479  0.1198  0.0506
 2283W        W17752   2.672  10.142  11.573 -0.2259  0.1176 -0.1342
 2284W        W17753  10.832  10.932   1.389  0.4878  0.1141  0.3392
 2285W        W17754   0.800   7.468  13.596  0.4034 -0.1469  0.1798
 2286W        W17755   0.228   3.998  13.300 -0.4363 -0.4205  0.4798
 2287W        W17756   8.410   3.360   0.823  0.1147 -0.0528  0.0963
 2288W        W17757  15.041  17.271  12.782  0.0686  0.0759 -0.1756
 2289W        W17758   5.628   5.094   5.080  0.2755 -0.0925  0.4236
 2290W        W17759  17.601  10.508  14.576 -0.0235  0.2827 -0.0961
 2291W        W17760  16.365   1.857  12.476  0.1116  0.0748  0.0401
 2292W        W17761  12.761   9.391   5.138 -0.1081 -0.0234  0.0156
 2293W        W17762   2.516  18.505  12.608  0.0396 -0.2168 -0.2100
 2294W        W17763   2.299  13.311   3.148  0.0410 -0.1595  0.0111
 2295W        W17764   1.450   3.707  14.110  0.0323  0.0169 -0.3595
 2296W        W17765   7.520   8.974   4.440  0.2802  0.1342 -0.0380
 2297W        W17766   1.860   1.384  10.562 -0.1500  0.3777  0.0899
 2298W        W17767   4.107   6.766   4.544  0.2199 -0.0054 -0.1976
 2299W        W17768   8.595   7.137   2.116  0.0849  0.3571  0.0027
 2300W        W17769   8.566   4.193   1.453 -0.2377 -0.0876 -0.0582
 2301W        W17770   4.293   7.179  11.025  0.0367 -0.2328 -0.2404
 2302W        W17771  16.760   4.803  13.043  0.1887  0.0558  0.3376
 2303W        W17772  12.679   4.107  15.244  0.1897  0.1071  0.0411
 2304W        W17773  18.298   1.882   1.940  0.0298  0.1161  0.0054
 2305W        W17774  16.825   7.846  12.412  0.1713 -0.1382  0.4255
 2306W        W17775  13.160  11.907  12.118 -0.0955 -0.1859  0.0853
 2307W        W17776  14.381   2.725  14.642 -0.1219 -0.1097 -0.1294
 2308W        W17777   7.908  11.855  12.781  0.0707  0.0016  0.1460
 2309W        W17778   5.915  11.139   0.678  0.0825 -0.0420 -0.0548
 2310W        W17779   3.187  17.539   0.199  0.2152  0.0479 -0.1277
 2311W        W17780   4.915   9.735  14.814 -0.2012 -0.0483  0.0478
 2312W        W17781   5.728  16.538   2.743 -0.1418 -0.0320 -0.0358
 2313W        W17782  13.905   3.464  13.978  0.1467  0.1580 -0.4761
 2314W        W17783   4.517   1.437   2.659 -0.0863 -0.2322 -0.0936
 2315W        W17784  13.903   1.736  14.475  0.1071  0.0771 -0.1676
 2316W        W17785   6.456  14.134   1.935  0.1732  0.3190 -0.0768
 2317W        W17786  14.738   5.257   3.274 -0.0619  0.1573 -0.0712
 2318W        W17787   6.781   3.579  15.574  0.1538 -0.4526 -0.0287
 2319W        W17788   1.732  12.766  11.974 -0.2352 -0.1157 -0.0631
 2320W        W17789   3.012  12.026  12.260 -0.0416  0.4054 -0.1280
 2321W        W17790   8.141   0.817   0.324  0.4828 -0.1136 -0.0239
 2322W        W17791   3.753  12.357   1.542  0.0088 -0.3255  0.2337
 2323W        W17792   3.231  10.972  15.226  0.1559 -0.1632 -0.0550
 2324W        W17793  16.585  16.571   1.128 -0.1860  0.3303  0.2980
 2325W        W17794   6.545  16.019  11.858 -0.3081 -0.0839  0.1034
 2326W        W17795  12.474   3.310   2.243  0.2440 -0.0735 -0.1235
 2327W        W17796  15.645  13.027   4.260 -0.1138  0.1052 -0.0227
 2328W        W17797   3.272  14.805  12.986 -0.0522  0.0099 -0.1392
 2329W        W17798  12.555  17.749   0.926  0.2230 -0.0634  0.0621
 2330W        W17799   6.204   8.904  12.398 -0.0161  0.0994 -0.0068
 2331W        W17800   1.432  16.630   2.140 -0.0370  0.3131 -0.1565
 2332W        W17801  18.242   4.872   4.517 -0.0615 -0.2717 -0.1155
 2333W        W17802   2.421  17.137   2.754  0.4322  0.3384  0.2605
 2334W        W17803   9.880   6.155  10.751  0.0558  0.3743 -0.3406
 2335W        W17804   7.579   0.907  12.564 -0.3062 -0.0627 -0.0861
 2336W        W17805  10.656  15.819   2.352  0.2959 -0.1497  0.0396
 2337W        W17806   8.684  11.487  15.087  0.1420 -0.3796  0.1598
 2338W        W17807   8.079  13.165   4.024 -0.0203  0.0218 -0.0026
 2339W        W17808   3.611   7.101   4.474 -0.2137  0.1729 -0.0277
 2340W        W17809   4.877  12.428   9.990  0.0620 -0.0843  0.1579
 2341W        W17810  14.096   7.286  12.297 -0.0358  0.0849  0.0537
 2342W        W17811   5.803   8.363  14.023 -0.0951  0.0397 -0.0120
 2343W        W17812  14.935  12.896   4.249  0.2355  0.0022 -0.3129
 2344W        W17813  10.794  16.459   2.036 -0.1679 -0.3310  0.0124
 2345W        W17814   6.356   2.518  10.585  0.0262 -0.1572 -0.0064
 2346W        W17815  16.304  13.220   0.668 -0.0452 -0.1820  0.5773
 2347W        W17816  15.047   6.149  14.230 -0.2027 -0.3392  0.1161
 2348W        W17817  16.178  15.509   0.021  0.0386 -0.1184 -0.3209
 2349W        W17818   5.227  14.812  14.927  0.0253  0.1816  0.1006
 2350W        W17819  10.646   6.304   5.632 -0.0045 -0.4286  0.3474
 2351W        W17820   8.238  13.544  13.646 -0.2186  0.1959 -0.0918
 2352W        W17821   1.708  10.640   0.138  0.1462  0.1672 -0.1948
 2353W        W17822   4.143  10.290  14.808 -0.1142 -0.0543  0.0578
 2354W        W17823  16.461   2.308  11.827  0.1357  0.1093  0.1223
 2355W        W17824  13.711   1.237   2.083  0.0457 -0.0116  0.2692
 2356W        W17825   0.208  12.200   5.200 -0.0128  0.2747 -0.1619
 2357W        W17826  14.458   0.691   1.157  0.2510  0.1130 -0.0773
 2358W        W17827  13.706  11.312  13.288 -0.1127 -0.0135 -0.2745
 2359W        W17828  15.887   7.633   2.949  0.0724 -0.0929 -0.0598
 2360W        W17829  15.439  14.513  11.145  0.2182 -0.4440  0.0442
 2361W        W17830  13.899   9.052  12.957  0.0592  0.0067 -0.4162
 2362W        W17831  15.836   3.820   9.570  0.2389 -0.4739  0.1040
 2363W        W17832  17.184   1.467   2.389  0.1916  0.1122  0.0196
 2364W        W17833   5.733   9.430   1.035  0.1580  0.3214 -0.1690
 2365W        W17834  16.658  10.832   2.500  0.4364 -0.1010  0.1548
 2366W        W17835   6.227  15.294   4.862  0.0659 -0.1257  0.0356
 2367W        W17836   5.107  15.898  15.214  0.0816 -0.1519 -0.4333
 2368W        W17837   8.785  12.944  11.463  0.0358 -0.2194  0.0374
 2369W        W17838  14.659  17.243   0.163 -0.2450  0.1050  0.0805
 2370W        W17839   4.734  10.729   0.122  0.0141 -0.0886  0.0570
 2371W        W17840   1.092   7.547  14.101 -0.2304 -0.0031 -0.2946
 2372W        W17841   6.413   4.977  10.404  0.0521 -0.1441 -0.0706
 2373W        W17842  14.394   0.127  14.940 -0.2859  0.0277  0.0083
 2374W        W17843  15.200  13.921   0.146 -0.2387  0.0719 -0.4725
 2375W        W17844   2.168  13.437  11.632 -0.0363 -0.0083  0.1012
 2376W        W17845  18.641   7.091   5.720 -0.0119 -0.1418  0.0484
 2377W        W17846   1.820  16.823   3.342  0.1169 -0.0752  0.0693
 2378W        W17847  16.275   8.482   3.752 -0.1293  0.0688  0.0510
 2379W        W17848   5.480   4.516  14.690  0.3113  0.2509 -0.4746
 2380W        W17849  17.099  14.832  11.589 -0.1373  0.1568  0.1711
 2381W        W17850   4.931  11.243  13.495  0.1300 -0.4463  0.1584
 2382W        W17851   2.454   3.886   3.249  0.1042 -0.2550  0.2982
 2383W        W17852   2.268  14.373   3.020 -0.1240 -0.2277 -0.2211
 2384W        W17853   8.560   6.379   2.012  0.0221  0.1717 -0.0854
 2385W        W17854   8.690  13.883  13.451 -0.3334 -0.0692 -0.2732
 2386W        W17855  13.950   4.755   9.676  0.3404 -0.1852  0.1347
 2387W        W17856   1.390   0.328  12.121  0.2512  0.1130  0.1112
 2388W        W17857   9.336  11.759  15.596  0.1312  0.0306  0.2117
 2389W        W17858  16.457   6.482  14.503  0.0006  0.4166 -0.1002
 2390W        W17859   3.249   6.048   1.613 -0.1554  0.3562  0.1913
 2391W        W17860  11.309  18.763   0.947 -0.1066 -0.3105  0.0837
 2392W        W17861   8.022   4.817   1.148  0.3513 -0.1294  0.1256
 2393W        W17862   0.204  17.095  11.704  0.0821  0.2595  0.0530
 2394W        W17863  16.281   1.523  14.277 -0.0064 -0.3870 -0.0366
 2395W        W17864   8.737   8.767  14.378 -0.4613  0.1452 -0.3440
 2396W        W17865   1.260   3.224   4.598  0.0687 -0.1379 -0.2599
 2397W        W17866   2.040  11.725   3.460  0.0250 -0.0748  0.1811
 2398W        W17867  14.541  10.952  14.620 -0.0137 -0.2383 -0.0039
 2399W        W17868   9.032   3.682  12.728  0.0369  0.0009 -0.0486
 2400W        W17869  14.475   6.862   3.708  0.3595 -0.1759  0.3428
 2401W        W17870   7.234  16.789   5.232  0.0267 -0.0719  0.1799
 2402W        W17871  14.559   3.174   5.596  0.0307 -0.0196 -0.1545
 2403W        W17872   2.195  14.841   3.121 -0.0097  0.0314 -0.2565
 2404W        W17873   0.700  17.777   4.201  0.1990  0.0993 -0.0152
 2405W        W17874   6.632   7.167   4.425  0.0031 -0.2392  0.1785
 2406W        W17875   0.733   1.352  12.926 -0.1818  0.2485  0.1125
 2407W        W17876   6.803   7.097   0.842 -0.0143 -0.0443  0.0433
 2408W        W17877  12.542  17.621  13.911  0.0571 -0.2317 -0.0814
 2409W        W17878  10.044  17.583  13.356  0.0275  0.1285  0.2992
 2410W        W17879  18.196  13.174  14.270 -0.1267  0.3009 -0.0450
 2411W        W17880  16.915   4.129   2.262  0.1069 -0.1007 -0.0896
 2412W        W17881  15.550  17.842   4.712 -0.1490 -0.1949  0.0139
 2413W        W17882  17.566  17.148   3.620  0.0141  0.0401 -0.1807
 2414W        W17883  17.556  13.730   1.718 -0.3003  0.2799  0.0223
 2415W        W17884  14.641   6.374   0.764  0.0088  0.1499  0.3877
 2416W        W17885   5.690   7.400   0.047 -0.0919  0.0241  0.0085
 2417W        W17886  15.667  14.547   1.480 -0.2052  0.0385 -0.1367
 2418W        W17887  17.900   3.592   1.137 -0.0304  0.1519 -0.0424
 2419W        W17888   3.856  11.564  12.537  0.0811  0.0655 -0.1159
 2420W        W17889   4.156  18.346  11.843  0.0354  0.2309 -0.0034
 2421W        W17890   5.026  10.609   4.354  0.3284 -0.2581  0.2888
 2422W        W17891   1.079  17.795  12.324 -0.1565 -0.1350 -0.0267
 2423W        W17892   7.183  17.043  12.107  0.1270 -0.2599  0.1747
 2424W        W17893   9.398  11.859   1.512  0.2824 -0.2288  0.0554
 2425W        W17894   0.042  10.221   5.217 -0.0294  0.2316 -0.0460
 2426W        W17895  16.702  13.894  15.476 -0.0321  0.0940 -0.3438
 2427W        W17896  13.442   6.725   3.932 -0.2020 -0.0751  0.0840
 2428W        W17897   3.675   6.750  13.541 -0.0558 -0.0578  0.0241
 2429W        W17898   0.146  15.846  14.373  0.2926  0.0971 -0.2979
 2430W        W17899   5.509   2.580  12.408  0.1425  0.1245 -0.2459
 2431W        W17900   0.101   8.311   0.977 -0.0583 -0.1759  0.0498
 2432W        W17901  17.244   9.580  15.500 -0.3273 -0.0961 -0.1741
 2433W        W17902  12.587   1.534   1.122 -0.1837  0.0842 -0.1792
 2434W        W17903   8.485  11.539   0.485  0.1141 -0.2180  0.0037
 2435W        W17904  17.265   4.701  13.484  0.1593 -0.0439  0.1510
 2436W        W17905   3.441  13.811  13.767 -0.2514  0.1153  0.1889
 2437W        W17906   0.770   4.658  15.465  0.0187  0.0396  0.1770
 2438W        W17907  11.670   3.426   2.003 -0.1095 -0.1725 -0.0701
 2439W        W17908  14.100  10.650   3.302 -0.0510  0.0536  0.0278
 2440W        W17909  10.869   5.749   3.543  0.1891 -0.1167 -0.1529
 2441W        W17910  15.699   8.834  12.372  0.3341  0.0150 -0.0977
 2442W        W17911  13.526   3.277   2.493 -0.0229 -0.0215  0.0664
 2443W        W17912   6.395   4.275   4.216 -0.1853  0.0828 -0.1758
 2444W        W17913  13.425  14.367   2.295  0.2437 -0.0625 -0.1543
 2445W        W17914  10.970  13.165   1.489  0.2039  0.1047  0.3584
 2446W        W17915   5.368   2.122   0.083  0.5057 -0.4774  0.0976
 2447W        W17916   9.440   9.491   2.791  0.1241 -0.0759 -0.2679
 2448W        W17917   7.970  13.008  15.273  0.1363 -0.0645  0.0186
 2449W        W17918   8.539  11.472   1.826  0.3340  0.0982 -0.1736
 2450W        W17919  11.378  17.060  14.097 -0.1463 -0.0866 -0.0199
 2451W        W17920   2.432  14.882   5.340 -0.1927  0.3204 -0.1996
 2452W        W17921   9.713  17.587  12.008  0.1295 -0.4819  0.1684
 2453W        W17922   1.194  12.532  13.488 -0.1367  0.0937 -0.1180
 2454W        W17923  11.773  17.440  13.215 -0.0624  0.1482  0.2778
 2455W        W17924  14.903   7.109   0.962  0.3514 -0.1642 -0.1108
 2456W        W17925   7.626   4.673   4.910 -0.2883  0.0451  0.0632
 2457W        W17926  14.698  11.023   1.008  0.2020  0.0152  0.1876
 2458W        W17927   8.701   9.447   1.877  0.2153  0.2887  0.0845
 2459W        W17928   9.110   9.550  13.003  0.3249 -0.2884 -0.0456
 2460W        W17929   5.023  18.759  13.471 -0.0484  0.0114  0.0665
 2461W        W17930  18.609  17.061   1.616 -0.2325 -0.2367 -0.1016
 2462W        W17931  11.998   4.329  10.534  0.2077 -0.3353  0.4062
 2463W        W17932  18.395  14.015   3.069  0.1686 -0.4621 -0.1248
 2464W        W17933  18.183   2.718   1.312 -0.1533  0.0948  0.0382
 2465W        W17934   0.868   6.126   1.232 -0.0896 -0.1531  0.2248
 2466W        W17935   1.336  11.666   4.480  0.0296  0.0638  0.1072
 2467W        W17936  12.769  14.814  13.602  0.3540  0.0095 -0.1035
 2468W        W17937   9.524   4.901  15.347 -0.4175 -0.0625 -0.4756
 2469W        W17938  14.626  13.644  14.942 -0.0262  0.0351 -0.0665
 2470W        W17939  17.063   9.346   3.113  0.1225  0.3073 -0.1182
 2471W        W17940   6.887  17.839   1.507 -0.3287  0.1916 -0.2776
 2472W        W17941   8.292  16.143  13.709 -0.2886 -0.2355  0.0889
 2473W        W17942  11.537   5.343  12.193  0.2351  0.0546 -0.0792
 2474W        W17943  14.122   0.233  13.220  0.1538  0.0486 -0.0685
 2475W        W17944  14.328   6.110   3.342 -0.2114 -0.2688  0.2313
 2476W        W17945   9.418   9.037   0.167  0.0616  0.0455 -0.1467
 2477W        W17946  16.496   5.421  11.199  0.0333  0.2107  0.2643
 2478W        W17947  14.238   1.938   2.934 -0.4340  0.0466  0.1299
 2479W        W17948   9.129  10.893   5.016  0.1143 -0.3721 -0.4089
 2480W        W17949  13.153  18.667   0.424  0.3437 -0.0744 -0.2251
 2481W        W17950  13.689  10.818   3.032 -0.0532  0.1883 -0.2212
 2482W        W17951  18.189  12.778   4.347 -0.2230 -0.0230  0.1586
 2483W        W17952   6.677  16.067  14.808 -0.1303 -0.0020  0.0534
 2484W        W17953   4.148   2.757   4.498 -0.2315  0.2058 -0.1264
 2485W        W17954  12.042   1.558  12.907 -0.0273  0.1286 -0.2804
 2486W        W17955  17.344   9.212   5.870 -0.0524 -0.2053  0.0697
 2487W        W17956   3.356   5.921  10.733  0.0193 -0.1678 -0.0205
 2488W        W17957  16.677  12.781   3.597  0.1034  0.1409 -0.0043
 2489W        W17958   4.228  11.108   2.179  0.4416 -0.0130  0.0189
 2490W        W17959   0.984  17.764   2.491  0.4350  0.0748 -0.2110
 2491W        W17960   1.919   1.248  14.789  0.0559 -0.2117  0.0904
 2492W        W17961   9.324  16.339  12.473  0.2738 -0.1131  0.0902
 2493W        W17962   0.107   4.000  13.859  0.1292  0.0814 -0.0809
 2494W        W17963   3.596  13.687  14.287  0.0765  0.0123  0.1370
 2495W        W17964  14.042  12.992  12.846  0.1135 -0.2287 -0.3601
 2496W        W17965  16.656   6.521   4.786  0.1370  0.1363  0.1681
 2497W        W17966  11.609   7.373   3.644  0.1212 -0.2254 -0.3415
 2498W        W17967   5.042   7.511   1.827 -0.0952 -0.2643  0.0270
 2499W        W17968  14.153   7.888   3.539  0.3056  0.5399 -0.1503
 2500W        W17969   3.118  17.428   3.179 -0.1660 -0.4225 -0.0964
 2501W        W17970  17.341   2.310  11.513  0.0247  0.0963 -0.0321
 2502W        W17971  17.611   9.618  12.469 -0.0379  0.0244 -0.0216
 2503W        W17972  10.198   5.656  12.310 -0.0562 -0.1137  0.0172
 2504W        W17973   9.474   9.462  12.105 -0.1279 -0.1858 -0.5122
 2505W        W17974   4.497  16.734   4.896 -0.0854  0.4417 -0.0470
 2506W        W17975   7.756   8.931  12.697  0.4717  0.1291  0.5410
 2507W        W17976  10.564   6.663   6.078 -0.1449  0.2231 -0.1024
 2508W        W17977  11.457  15.657  10.409  0.1506 -0.1699  0.2963
 2509W        W17978  11.060  17.853  14.521  0.1603 -0.2892  0.0879
 2510W        W17979  15.292   7.390   6.163  0.3857  0.0253  0.2310
 2511W        W17980  10.430  10.281  14.086 -0.1035  0.0236 -0.3117
 2512W        W17981   5.735  11.693   3.893  0.0039 -0.1390 -0.2617
 2513W        W17982  17.362  17.607   3.498  0.0634  0.2594 -0.1287
 2514W        W17983  11.981  10.115   5.283 -0.2232 -0.2246 -0.0623
 2515W        W17984   8.898   1.832  10.645 -0.1528 -0.2800  0.1760
 2516W        W17985   5.557   6.173  10.582  0.3115  0.2128  0.1488
 2517W        W17986   5.284  16.321   5.184 -0.2453  0.0773  0.1043
 2518W        W17987  12.120   0.916  10.421  0.1958 -0.0564  0.0587
 2519W        W17988  17.304   3.499   2.478 -0.1429  0.0261 -0.0259
 2520W        W17989   1.306   6.356  13.339 -0.0310 -0.0356  0.0431
 2521W        W17990   9.365   9.671  15.065 -0.2200  0.1248  0.3617
 2522W        W17991  14.195   3.604   3.697  0.2898  0.1373  0.0589
 2523W        W17992   3.999  10.898   3.419  0.2358 -0.2413  0.3192
 2524W        W17993  12.615   1.073  11.368  0.2222 -0.1767  0.0524
 2525W        W17994  12.982   8.047   3.085 -0.2737 -0.2200 -0.1719
 2526W        W17995  10.828  18.758   2.988  0.2230  0.0241 -0.2226
 2527W        W17996   2.909  14.069  14.944 -0.1067  0.2435 -0.2391
 2528W        W17997   6.837   8.241   0.199 -0.3671  0.2677  0.1843
 2529W        W17998  13.894  14.045  13.350 -0.1518  0.0505  0.1560
 2530W        W17999  16.633   6.650   3.569  0.1863 -0.0290 -0.3681
 2531W        W18000   6.063   3.520  12.675 -0.5090  0.3623  0.1182
 2532W        W18001   6.960   3.543   0.365  0.2412  0.0824  0.2829
 2533W        W18002  10.920   4.308   4.381  0.1030  0.0035 -0.0396
 2534W        W18003  15.743  16.090   1.717  0.2312 -0.2009  0.2474
 2535W        W18004  16.712   8.146  13.285 -0.1946  0.2494 -0.1016
 2536W        W18005  17.995  13.857   2.084 -0.0178 -0.2026  0.0411
 2537W        W18006  10.831  11.603  11.585 -0.0650 -0.1183  0.1704
 2538W        W18007  14.811  18.698   4.641 -0.1591 -0.1870 -0.0219
 2539W        W18008  13.754  17.357   0.130  0.0457  0.0074 -0.0093
 2540W        W18009  11.329  10.263  12.984 -0.0616  0.3234 -0.0600
 2541W        W18010   3.316  16.045   5.855  0.0205 -0.1532  0.1704
 2542W        W18011   5.667   7.932  13.196 -0.1407  0.1924 -0.1566
 2543W        W18012   7.741   9.393   2.100  0.1025  0.1513  0.2114
 2544W        W18013  17.975   2.452  10.903 -0.3762 -0.1504 -0.2365
 2545W        W18014  17.425  10.667  13.624 -0.0062  0.0833 -0.2954
 2546W        W18015   2.621   5.485   3.980  0.1201 -0.2512  0.0647
 2547W        W18016   7.455  13.631   0.427  0.0781 -0.0802 -0.0391
 2548W        W18017  18.308   1.133   1.828 -0.0578  0.1684 -0.2210
 2549W        W18018  11.066   9.921   3.797 -0.1346 -0.3730 -0.3159
 2550W        W18019   6.787   8.639  14.614  0.1364 -0.3004 -0.1205
 2551W        W18020   6.017  12.649  10.635  0.0325 -0.0182 -0.1783
 2552W        W18021  13.408   3.204  11.199 -0.1359  0.0288 -0.1053
 2553W        W18022   3.108   5.317   3.911  0.2060 -0.2185 -0.0653
 2554W        W18023   6.355  11.063   1.105 -0.1244 -0.1526  0.0047
 2555W        W18024   5.104   6.316   5.444  0.1051  0.2639 -0.2669
 2556W        W18025  13.198  12.841   1.440  0.0509 -0.0190 -0.2549
 2557W        W18026   2.588  12.502   9.694 -0.3335 -0.0398  0.3729
 2558W        W18027   1.131  15.394  12.104  0.1525  0.2641  0.1310
 2559W        W18028   4.061   4.562   3.902  0.3148 -0.4353 -0.0872
 2560W        W18029   9.501  12.203  13.326  0.0211 -0.2159 -0.0605
 2561W        W18030  18.632  14.768  14.602  0.0661 -0.4213 -0.1285
 2562W        W18031   9.516  17.264  14.610  0.0699  0.2898 -0.3246
 2563W        W18032  12.818   9.213  15.517  0.1422 -0.3494 -0.1633
 2564W        W18033   1.616  11.189   2.028 -0.0784  0.1100  0.1093
 2565W        W18034   8.906  14.251  14.060 -0.1819  0.0270 -0.1015
 2566W        W18035   1.319   5.013   5.352  0.1301 -0.0421  0.1907
 2567W        W18036  10.829   7.202   0.822  0.3571 -0.1854  0.0585
 2568W        W18037  11.943  17.183   4.632 -0.1769  0.0665 -0.1570
 2569W        W18038  16.208  16.603   4.125  0.1241 -0.0388  0.1833
 2570W        W18039   1.400  12.530  13.982  0.0504 -0.1178  0.1192
 2571W        W18040  10.313  17.869   3.796 -0.0545  0.0481  0.0608
 2572W        W18041   5.370   1.294  11.289  0.1060 -0.0221 -0.1238
 2573W        W18042   7.981  12.148  12.437  0.1325  0.2548  0.1729
 2574W        W18043  16.038  11.260   5.252  0.1611 -0.0281  0.2904
 2575W        W18044  15.772  12.233  10.380  0.0419  0.2846  0.0798
 2576W        W18045  13.406  15.967  12.977  0.2402 -0.1707  0.1078
 2577W        W18046   7.384   5.366  13.251 -0.3187  0.1622  0.2953
 2578W        W18047  14.580   3.247  14.695 -0.2323  0.1878  0.2619
 2579W        W18048   8.014   6.938   2.506 -0.2988 -0.2514 -0.1640
 2580W        W18049   5.196  17.663  10.342 -0.2941 -0.0954 -0.2593
 2581W        W18050  14.287   7.391  11.392  0.2260  0.0576 -0.1601
 2582W        W18051   2.721   1.841  11.185  0.2682  0.0269  0.0602
 2583W        W18052   3.340   4.224   1.601 -0.1782 -0.4360 -0.3073
 2584W        W18053  11.084  18.177  14.975 -0.1800  0.1700  0.0447
 2585W        W18054  16.904  18.695  12.098 -0.0075 -0.0241 -0.6245
 2586W        W18055   1.800   3.909   2.985  0.1485 -0.1842  0.0371
 2587W        W18056  16.010   4.955   2.200  0.1574 -0.0905  0.3539
 2588W        W18057  17.562   6.085   2.689  0.2002  0.0244  0.0092
 2589W        W18058   6.210   2.174  15.067 -0.1499 -0.4567  0.0217
 2590W        W18059   1.691  17.979  14.538 -0.2034  0.4072 -0.0302
 2591W        W18060   0.717   5.315   3.908  0.1546 -0.0082 -0.0413
 2592W        W18061   3.708   5.654  10.165  0.2564  0.0932  0.2026
 2593W        W18062  11.718   8.934   3.264 -0.3681 -0.0609 -0.0323
 2594W        W18063  13.941   8.582  12.753  0.1425 -0.2049 -0.0086
 2595W        W18064   2.724   8.236   4.595 -0.4658  0.0191  0.3497
 2596W        W18065   8.582   8.214   4.668 -0.0165  0.0590  0.1088
 2597W        W18066   2.717  17.536  13.762 -0.1373  0.1841  0.0162
 2598W        W18067  14.809   7.870  10.880 -0.0239  0.2115 -0.0617
 2599W        W18068  12.064   6.400   5.917 -0.1693  0.1000 -0.0385
 2600W        W18069  17.943   0.485  14.522 -0.0608  0.0158  0.1009
 2601W        W18070   9.356  15.424  15.412  0.0134  0.0016 -0.0626
 2602W        W18071   8.414  18.503  10.856 -0.1375  0.2875  0.2085
 2603W        W18072  17.372  11.964  11.514  0.0611  0.3246 -0.0944
 2604W        W18073   2.873  15.279   2.540 -0.1196  0.0679 -0.2526
 2605W        W18074  15.441   9.661   0.909 -0.0523  0.1709 -0.0905
 2606W        W18075   8.171  16.855  11.181  0.3862 -0.1449  0.2467
 2607W        W18076  18.633   6.432  15.221 -0.4370 -0.2642  0.1281
 2608W        W18077  10.378  16.606   3.830 -0.0991  0.1444 -0.2568
 2609W        W18078   3.439   6.271   3.664  0.1264 -0.2402 -0.1511
 2610W        W18079   0.113   0.743  12.223 -0.0622  0.2308 -0.0683
 2611W        W18080   6.550   9.335  10.737  0.0891  0.0882 -0.1442
 2612W        W18081   2.092   4.642   0.161  0.0338 -0.1804 -0.0448
 2613W        W18082  11.932   9.440  10.155  0.2487  0.2523 -0.0214
 2614W        W18083  16.356  17.998   1.310 -0.0200 -0.1869  0.0145
 2615W        W18084  11.843  11.952   1.963 -0.0815 -0.1567  0.0611
 2616W        W18085   8.041   5.984  13.306 -0.0660  0.3575 -0.0588
 2617W        W18086   3.359   2.273   4.928 -0.1393  0.0411  0.2564
 2618W        W18087  14.025  10.426  12.695 -0.1615 -0.0952 -0.3696
 2619W        W18088  12.556   8.242   0.763 -0.0383 -0.1923  0.0922
 2620W        W18089  13.718   5.118   4.927 -0.2823 -0.2095  0.5140
 2621W        W18090   8.309   8.426   0.798 -0.0969 -0.2102  0.2732
 2622W        W18091  12.506   5.449   1.043  0.0513  0.2344  0.2685
 2623W        W18092  13.320  14.077  14.942  0.1097 -0.1077 -0.1351
 2624W        W18093  16.950   7.933  11.548  0.1138  0.0064 -0.0446
 2625W        W18094  10.947   9.362  11.631  0.1910 -0.0176  0.2596
 2626W        W18095   6.337   8.245  10.274 -0.4028  0.0178  0.0697
 2627W        W18096   0.614   5.251  12.557  0.0119 -0.2186  0.0687
 2628W        W18097   5.781   9.216  15.098  0.1443  0.3845 -0.0686
 2629W        W18098  12.220  18.127   1.047  0.1632  0.0972  0.0605
 2630W        W18099   1.177   7.175  14.914 -0.1125  0.2714 -0.3206
 2631W        W18100  11.381  17.576   3.891  0.0760  0.2489  0.0938
 2632W        W18101   8.739   8.589  11.435  0.1504  0.0766 -0.0373
 2633W        W18102   3.516  13.169   3.495 -0.1634  0.0786 -0.1212
 2634W        W18103  18.361   6.741   4.523  0.1207  0.1108  0.0207
 2635W        W18104  18.285   7.524   2.394  0.3098  0.0572  0.1899
 2636W        W18105  10.390   8.586   4.085 -0.0771 -0.2262  0.2484
 2637W        W18106   9.988   5.041  15.265 -0.1481  0.0071  0.1244
 2638W        W18107  14.402   5.636  12.888  0.3172  0.2706 -0.0742
 2639W        W18108   4.650   4.097  14.553 -0.1143  0.0600 -0.0203
 2640W        W18109   7.609  14.079  10.866  0.1531 -0.2365 -0.1295
 2641W        W18110  14.910  18.584   9.772 -0.0933  0.1074 -0.1165
 2642W        W18111   0.938  11.281  14.774  0.2867 -0.0435 -0.3354
 2643W        W18112  11.925  14.990  13.397  0.5501 -0.0707 -0.2163
 2644W        W18113  11.815  13.052   3.589  0.1514  0.0168 -0.0446
 2645W        W18114   9.191   2.712   3.959  0.2396  0.1633 -0.2454
 2646W        W18115   5.092  15.528   3.996  0.1342  0.1252 -0.1490
 2647W        W18116  16.520   5.184   3.389 -0.0318  0.1005 -0.1962
 2648W        W18117   4.808   0.042  15.336  0.0415  0.1206  0.1275
 2649W        W18118   2.743   3.607   3.679 -0.1624  0.1783 -0.0307
 2650W        W18119  13.230  17.367   1.024 -0.3256  0.1565  0.0489
 2651W        W18120  14.155  15.887   1.600  0.0968 -0.1243  0.1316
 2652W        W18121   7.532   8.200  11.156 -0.1051 -0.1719 -0.2491
 2653W        W18122   9.493  11.052   0.013  0.0358  0.0725  0.3392
 2654W        W18123   1.067   3.598   3.164  0.0545 -0.0023 -0.0923
 2655W        W18124   7.932   0.106  15.612 -0.2524  0.1059  0.1101
 2656W        W18125   9.245  11.775   5.116  0.0142 -0.0451 -0.0564
 2657W        W18126  11.003  12.008  15.010 -0.2596  0.1219 -0.0675
 2658W        W18127  15.344  11.826   6.465  0.2653 -0.1193 -0.0355
 2659W        W18128   1.400   8.808   0.916  0.1242 -0.2724  0.1073
 2660W        W18129   2.445   3.909   2.244  0.1151 -0.0857 -0.0926
 2661W        W18130   4.441   9.078   0.377  0.1217  0.0409  0.0804
 2662W        W18131   0.146  18.332   2.675  0.1981  0.1332  0.3001
 2663W        W18132   4.370   0.011  15.637 -0.1901  0.2405  0.0870
 2664W        W18133  15.619   3.845  12.072 -0.0206 -0.2902 -0.1370
 2665W        W18134  15.793   7.042   3.376 -0.0996 -0.0514  0.3901
 2666W        W18135   6.508   1.262  13.244  0.0583  0.0802  0.0021
 2667W        W18136  11.709   7.562   0.758  0.4310  0.0879 -0.0896
 2668W        W18137  13.363  14.088   3.485 -0.0269  0.0048  0.0826
 2669W        W18138   4.500  13.055   0.583 -0.0925 -0.1280  0.1072
 2670W        W18139  18.386   1.058  15.358  0.2744 -0.0587  0.1488
 2671W        W18140   8.011   2.377  12.743  0.0845 -0.0107 -0.1096
 2672W        W18141  18.728  14.276   1.514  0.0604  0.0883 -0.0338
 2673W        W18142   1.217  16.685  11.447 -0.1199  0.1570 -0.1105
 2674W        W18143  10.996   1.452   0.804  0.1749 -0.0088  0.2245
 2675W        W18144   3.448   8.536   3.475  0.1708 -0.0627  0.0568
 2676W        W18145   7.028   1.629   2.605 -0.1037  0.0715 -0.2244
 2677W        W18146  13.827  18.443   2.189  0.2389  0.0296 -0.0389
 2678W        W18147   4.097  11.061   4.336 -0.0341  0.0456  0.2156
 2679W        W18148   7.521   9.995  14.738  0.0430  0.0574  0.0052
 2680W        W18149  18.614   9.609  12.477 -0.2854  0.0519 -0.0422
 2681W        W18150   3.556   9.422   2.404 -0.1476  0.0192  0.1160
 2682W        W18151  18.569   5.645  14.134  0.1360 -0.3934  0.0977
 2683W        W18152   5.915   2.232   0.254 -0.3168  0.0504  0.1259
 2684W        W18153   6.330   4.217  13.436  0.1253 -0.0422 -0.0782
 2685W        W18154  16.162   0.969  12.070 -0.0445  0.1152  0.2866
 2686W        W18155   6.485  13.055   2.032  0.1275  0.3763  0.1920
 2687W        W18156   4.677  18.391   4.498 -0.0612  0.4030  0.1338
 2688W        W18157   0.255  17.645   5.599  0.0989 -0.1705 -0.1518
 2689W        W18158   1.202   9.625   3.838  0.0721 -0.2605  0.2928
 2690W        W18159  12.087  16.915  10.689 -0.1150 -0.1431 -0.2507
 2691W        W18160   0.386  18.104   3.723 -0.0371  0.2289  0.1449
 2692W        W18161  12.718   6.063  10.148 -0.0029  0.0982 -0.2331
 2693W        W18162   8.535  15.315  10.825 -0.3417 -0.1717  0.2319
 2694W        W18163  15.466   3.658   2.415 -0.1280  0.0595 -0.0334
 2695W        W18164   4.646   7.113  12.733 -0.3177 -0.0733 -0.1965
 2696W        W18165   6.992  17.164   2.722  0.0312  0.1572  0.0195
 2697W        W18166   4.911   1.156   1.301  0.0819  0.0442 -0.0911
 2698W        W18167   7.400   7.141  15.120  0.2483  0.1651 -0.0745
 2699W        W18168  10.894  14.524   4.430  0.1976  0.0138 -0.0446
 2700W        W18169  13.495  11.362  11.341 -0.2394 -0.0165 -0.0665
 2701W        W18170  11.172   8.570  10.892  0.2136 -0.2453 -0.1156
 2702W        W18171   5.217  12.494  13.154  0.1568  0.1507 -0.0618
 2703W        W18172  11.524   4.185   5.244  0.2115 -0.0703 -0.2239
 2704W        W18173   1.579   0.781   2.883 -0.0198  0.1282  0.0423
 2705W        W18174   1.679  14.272  14.131 -0.1748 -0.1789  0.0786
 2706W        W18175   4.431   6.054  14.929  0.2179 -0.3474  0.1863
 2707W        W18176   3.132   9.864   2.936 -0.0371 -0.0470 -0.0796
 2708W        W18177  17.960   2.240   0.531  0.1503  0.0090  0.0288
 2709W        W18178   9.634   2.022   2.315  0.1591  0.1122  0.2873
 2710W        W18179  16.395  12.126   4.664  0.2889 -0.1956 -0.1445
 2711W        W18180   4.068  18.506  13.601 -0.1604 -0.1397 -0.1061
 2712W        W18181  10.463  11.591   4.094  0.2505  0.2312 -0.0937
 2713W        W18182   4.425  12.399  11.142  0.1096  0.0317 -0.1027
 2714W        W18183  15.414   3.649   9.919  0.2541  0.1376  0.4041
 2715W        W18184   3.286  16.985  14.753 -0.2087 -0.1592  0.0323
 2716W        W18185   4.072  10.438   3.166  0.0915  0.2644  0.3820
 2717W        W18186  13.491   5.227   1.874 -0.0587  0.0926 -0.1533
 2718W        W18187   4.291   4.473  12.565 -0.0873 -0.1500 -0.2601
 2719W        W18188   9.835  10.794  14.860 -0.1877 -0.2157  0.1802
 2720W        W18189  16.163  15.233   2.889 -0.0678  0.2475  0.2074
 2721W        W18190   4.007   3.626   1.704  0.3287  0.0252 -0.1200
 2722W        W18191   2.100  18.291  13.330 -0.3656 -0.0199 -0.1424
 2723W        W18192   2.223   4.954  13.180 -0.1360 -0.0853  0.1667
 2724W        W18193  11.473  11.384   2.651 -0.0119  0.1681 -0.0588
 2725W        W18194   7.213   2.994   3.489 -0.0883 -0.1558 -0.1362
 2726W        W18195   4.341  13.262  12.781 -0.0269  0.0569 -0.2223
 2727W        W18196  11.798  11.626   1.319 -0.0048 -0.1894 -0.0831
 2728W        W18197  10.638  10.703   3.503 -0.0788  0.0518  0.0071
 2729W        W18198   9.355   1.806   5.202  0.2171  0.0535  0.0106
 2730W        W18199   9.339  16.806   3.772  0.0598 -0.0114 -0.1368
 2731W        W18200  13.461   8.265   5.145 -0.0838  0.0505 -0.0120
 2732W        W18201   1.906   9.393  14.938  0.0520  0.2042 -0.0956
 2733W        W18202   6.070   0.338  13.088 -0.2158 -0.1189 -0.1142
 2734W        W18203   1.423   2.072   3.425  0.3840  0.1967  0.0177
 2735W        W18204   8.993  14.749  14.163  0.1353 -0.2207  0.1688
 2736W        W18205  17.782  17.981   1.955  0.1574 -0.2204 -0.1441
 2737W        W18206   8.549   5.208  13.286  0.0942  0.1609  0.1099
 2738W        W18207  12.201   6.122  12.964 -0.1508 -0.2213  0.0385
 2739W        W18208   4.706  15.168   1.259  0.2629  0.2644  0.4082
 2740W        W18209  12.525  12.551   3.397 -0.0005  0.1512 -0.1401
 2741W        W18210   0.809   1.348   4.900 -0.1968 -0.2698 -0.1703
 2742W        W18211  16.944  17.158   4.274  0.1001 -0.2857  0.0492
 2743W        W18212  14.384   8.755  13.853  0.3371 -0.0242  0.2833
 2744W        W18213  14.256  10.955  10.797 -0.2726  0.2489  0.1893
 2745W        W18214  13.834  18.626   4.378 -0.1154  0.1602  0.1069
 2746W        W18215  16.767   2.269   2.243 -0.0383 -0.0556  0.3362
 2747W        W18216   6.280   4.784   1.175 -0.1017 -0.0465 -0.1088
 2748W        W18217   9.756  12.544   1.477 -0.3829 -0.2367 -0.0637
 2749W        W18218  17.149  11.126  13.997  0.3596  0.2743 -0.1187
 2750W        W18219   2.351  18.145  12.901  0.0055 -0.0452  0.0807
 2751W        W18220   4.293   6.218   3.580  0.1841 -0.2800 -0.0634
 2752W        W18221   9.837   3.857   0.854  0.1457 -0.2050 -0.2403
 2753W        W18222   4.976  15.991   4.435  0.0840 -0.1636  0.1377
 2754W        W18223  15.748   6.451   2.455  0.1125  0.0670  0.1522
 2755W        W18224   4.587   0.307  13.498 -0.0080  0.1877 -0.2330
 2756W        W18225  10.751  11.506   1.960 -0.2107 -0.1612  0.1255
 2757W        W18226  16.119   1.684   1.717 -0.2026  0.1533 -0.1816
 2758W        W18227  13.389  18.322  13.281  0.3076 -0.1588 -0.1960
 2759W        W18228  18.673   1.382   2.759 -0.0357 -0.2877  0.1378
 2760W        W18229  12.261  10.671   5.664  0.0887  0.2214  0.1779
 2761W        W18230   3.552   8.280  12.739 -0.3049 -0.0689 -0.1927
 2762W        W18231   4.139   5.210  14.823  0.1304 -0.3058 -0.0428
 2763W        W18232  14.161  17.134   1.564 -0.2738 -0.2363  0.0060
 2764W        W18233   9.657   7.644   9.816 -0.1536 -0.0126 -0.0137
 2765W        W18234  17.720   5.675  12.751  0.2009  0.0951 -0.1001
 2766W        W18235  16.836   4.055  14.182 -0.0058 -0.3283  0.0681
 2767W        W18236   2.766   7.130  15.005  0.1750 -0.4442 -0.2027
 2768W        W18237  18.375  15.552   2.122 -0.2687 -0.1077 -0.1811
 2769W        W18238   5.379   1.870  11.541  0.0594  0.0820  0.3601
 2770W        W18239   4.976   9.405   1.881  0.1371  0.1157 -0.2813
 2771W        W18240  11.731  11.462   2.212  0.0057 -0.0952  0.0174
 2772W        W18241  16.205  15.241   5.652 -0.1899 -0.2556 -0.1435
 2773W        W18242   9.929   9.245   2.652 -0.1543 -0.1291  0.0922
 2774W        W18243   0.447   8.842   1.464 -0.4813  0.0606 -0.1823
 2775W        W18244   5.944   4.533  11.512  0.0378  0.1883 -0.1518
 2776W        W18245   1.569   7.468  14.321  0.2153 -0.1808 -0.3325
 2777W        W18246   1.841  10.723   1.987 -0.1295 -0.1536  0.0692
 2778W        W18247  14.717   6.692   1.613  0.0587  0.4184  0.1195
 2779W        W18248   2.384   6.239   2.599 -0.0431 -0.0363 -0.2630
 2780W        W18249  10.101   9.587   3.845 -0.0182 -0.5603 -0.0357
 2781W        W18250  12.580  16.218   2.301  0.0483 -0.1690  0.3344
 2782W        W18251  12.935   1.516  13.157 -0.2210  0.0465 -0.2145
 2783W        W18252   4.803   4.407   0.700  0.2060  0.0293  0.0752
 2784W        W18253   4.345   2.552   1.181  0.0024  0.2654 -0.3889
 2785W        W18254  13.571   9.787   3.468  0.1307 -0.0833  0.4349
 2786W        W18255  18.751   0.773  11.136  0.0954  0.0998 -0.1324
 2787W        W18256   7.654   5.327  13.690 -0.0174  0.1442 -0.2292
 2788W        W18257   2.710   5.965   0.043  0.1490  0.1068  0.0206
 2789W        W18258  15.881   9.867   3.389  0.0115  0.0696 -0.2561
 2790W        W18259  14.566   7.008   4.264 -0.2019 -0.1942 -0.1455
 2791W        W18260   3.294   7.729   1.079  0.0489 -0.0093 -0.4063
 2792W        W18261   4.579   0.570   3.033  0.3015  0.0266 -0.0599
 2793W        W18262   5.888  13.842  13.103 -0.0428  0.1796  0.0898
 2794W        W18263   6.474   1.934  11.655 -0.1336 -0.4617  0.0783
 2795W        W18264  13.412   0.685   1.396 -0.0485  0.0105  0.0624
 2796W        W18265  17.596  17.102  12.814 -0.1083  0.1281 -0.4787
 2797W        W18266  14.257  10.230   0.233  0.2314 -0.1900 -0.1546
 2798W        W18267   8.016  18.249  10.670  0.2311 -0.2441  0.0397
 2799W        W18268   6.253   8.585  13.919 -0.2333 -0.2976 -0.1434
 2800W        W18269   1.234  14.360   3.257 -0.0584  0.1125 -0.0463
 2801W        W18270  10.625  11.636   3.431  0.0257  0.0193 -0.2469
 2802W        W18271  17.818   2.141  12.110  0.0254 -0.3825 -0.0036
 2803W        W18272  11.197  12.791   4.010  0.0946  0.0550  0.1056
 2804W        W18273  12.831  11.687  15.156 -0.0778 -0.0791 -0.1680
 2805W        W18274   0.887   0.460   4.348 -0.0693 -0.4560 -0.3532
 2806W        W18275  15.196   6.704  13.782  0.0329 -0.0335 -0.2879
 2807W        W18276   2.570   0.594   5.613  0.0170  0.2681  0.1034
 2808W        W18277  17.499  10.004   2.188 -0.2152 -0.0092 -0.1635
 2809W        W18278   6.541   0.402  12.926 -0.2659  0.1918 -0.1898
 2810W        W18279   8.198   8.478  10.687  0.0968 -0.2531  0.2220
 2811W        W18280   6.491  11.281   1.588  0.1358 -0.1193  0.1652
 2812W        W18281   9.720  18.143   0.032 -0.1202  0.2364  0.0784
 2813W        W18282   6.783  15.658   2.502 -0.0395  0.2081  0.0276
 2814W        W18283   0.059   3.543  12.644  0.0045 -0.1144  0.1539
 2815W        W18284  12.688   0.872   3.252  0.0432  0.0866 -0.3166
 2816W        W18285  18.588  10.318  10.443  0.0484  0.1449  0.1950
 2817W        W18286   5.934  12.977   4.558  0.0917 -0.3194  0.2266
 2818W        W18287  15.862  14.040   1.687 -0.0383 -0.3560 -0.1721
 2819W        W18288   1.836   7.462   3.677 -0.1397 -0.0830  0.0166
 2820W        W18289  17.469  17.299   0.550  0.1200  0.2465  0.1859
 2821W        W18290  15.989  18.506  15.246 -0.1306  0.0922  0.0191
 2822W        W18291  16.865  12.617   2.208 -0.4276  0.0519 -0.0457
 2823W        W18292  12.562   4.137   0.123 -0.1015 -0.2725 -0.0440
 2824W        W18293   5.458   3.910   1.338 -0.1358  0.0532 -0.4012
 2825W        W18294   8.919  12.277   3.566  0.0209  0.0319 -0.1954
 2826W        W18295  12.532   5.917   1.345  0.1497 -0.1156  0.1979
 2827W        W18296   3.405  18.671   2.417  0.3876 -0.1252 -0.2152
 2828W        W18297   6.914  11.776  12.774 -0.1042 -0.1015  0.2764
 2829W        W18298  12.207  13.577   0.340 -0.2417 -0.1151 -0.2346
 2830W        W18299  12.721  11.641   4.727  0.0898  0.1205  0.1076
 2831W        W18300  18.714  15.833  12.301  0.4395 -0.1942  0.3214
 2832W        W18301   2.460   2.477   5.261  0.3373 -0.1194  0.0638
 2833W        W18302   7.644   4.503   5.438 -0.1281 -0.4044 -0.0306
 2834W        W18303   7.865   9.326  12.462 -0.2606 -0.0192  0.2396
 2835W        W18304  13.515  13.598  14.248  0.2737  0.0197  0.0156
 2836W        W18305   9.714   0.335   2.331 -0.0301 -0.0272  0.0438
 2837W        W18306  10.373  15.749   4.305 -0.2059 -0.0304 -0.1095
 2838W        W18307   8.475  15.364  13.256  0.0665 -0.0686  0.1464
 2839W        W18308   4.002  13.736   1.481  0.2694  0.2114  0.0727
 2840W        W18309   5.528   5.113   3.839 -0.0744  0.0853  0.0437
 2841W        W18310  12.046  11.211   3.576  0.2505  0.3565  0.2638
 2842W        W18311   0.089   7.604  13.478 -0.0123 -0.4447 -0.1060
 2843W        W18312   3.154   8.498  13.570 -0.1699  0.0102  0.2388
 2844W        W18313  14.758   0.296  14.545  0.2855 -0.1420  0.2341
 2845W        W18314   9.736   4.882  10.781  0.1308 -0.0108  0.3478
 2846W        W18315  10.188  13.106   5.252  0.3021  0.3221 -0.1960
 2847W        W18316   4.119   4.682   1.063 -0.0724 -0.1323 -0.5029
 2848W        W18317   6.681   6.481  14.757 -0.2927 -0.5059 -0.0954
 2849W        W18318   9.861   8.763   4.112 -0.1595  0.4183  0.4956
 2850W        W18319   8.636  14.763   0.214  0.3989  0.2077 -0.0057
 2851W        W18320  10.528   6.883   2.169 -0.0863  0.1267  0.2666
 2852W        W18321   2.822  10.323  12.883 -0.0036  0.2815  0.0537
 2853W        W18322   5.321  14.270  11.957 -0.0533  0.1465 -0.2027
 2854W        W18323   1.694  13.726  15.251  0.1844 -0.0485  0.1017
 2855W        W18324   7.843   8.364   0.007 -0.1211 -0.0992 -0.1936
 2856W        W18325   5.479  11.660  11.701 -0.0206 -0.2215 -0.1236
 2857W        W18326   3.624   0.206   1.488  0.1482  0.1640 -0.1843
 2858W        W18327   1.480   6.366  14.507 -0.0563  0.0767 -0.3101
 2859W        W18328   5.331  15.920  11.136 -0.3010  0.0861  0.2984
 2860W        W18329   6.245  12.267   1.410 -0.0858 -0.4044 -0.2420
 2861W        W18330  14.050  12.123   2.606 -0.2445  0.1773 -0.2095
 2862W        W18331   4.725   4.486   1.391  0.0966  0.1096  0.0947
 2863W        W18332  10.582   9.724  15.245 -0.1806  0.2205  0.1780
 2864W        W18333  16.945  18.550   0.863  0.0255  0.2890 -0.0484
 2865W        W18334  12.938   4.784   3.168  0.0795 -0.2068 -0.0798
 2866W        W18335   0.566   0.133   2.252 -0.1415 -0.0789 -0.1313
 2867W        W18336   7.590  10.950  12.232 -0.0892 -0.5308  0.1094
 2868W        W18337  10.101   7.936  10.601  0.2809  0.0165 -0.2579
 2869W        W18338   0.892  14.870  11.435  0.1786  0.0743 -0.0082
 2870W        W18339   5.545  13.164   1.817  0.2189 -0.0703  0.3410
 2871W        W18340   8.982  14.585  13.648 -0.0455 -0.0635  0.5041
 2872W        W18341  11.166   1.091   1.554  0.1480 -0.0254  0.1117
 2873W        W18342  14.142  16.227  11.363 -0.1831  0.0056  0.2581
 2874W        W18343   9.904  17.769  15.478  0.2725  0.4298 -0.2042
 2875W        W18344   1.686   0.215   1.570 -0.0014  0.0011 -0.0984
 2876W        W18345  12.194   3.032   1.174 -0.4206  0.0962 -0.1831
 2877W        W18346   3.337   9.457   5.155 -0.2841  0.0013  0.0437
 2878W        W18347   2.158   4.357  15.371 -0.3129  0.1947 -0.0017
 2879W        W18348  14.605   5.933  10.482  0.0035 -0.0636 -0.1800
 2880W        W18349  10.712   6.758  10.751  0.2361 -0.2334 -0.0523
 2881W        W18350  10.850   9.526   5.764 -0.0964 -0.1145  0.0025
 2882W        W18351  11.305   7.770  13.182  0.0025  0.3281  0.0935
 2883W        W18352  13.699   1.531   4.435 -0.2109 -0.0944 -0.0983
 2884W        W18353   5.519  15.558  15.290  0.1481  0.0705  0.0351
 2885W        W18354   5.873   8.195   4.279  0.0541 -0.1500  0.3673
 2886W        W18355  18.765   8.420   3.297 -0.0242 -0.3535 -0.1106
 2887W        W18356  12.026  14.280  12.010 -0.2042 -0.3008 -0.1262
 2888W        W18357  10.192   4.054   3.734 -0.0782 -0.1922 -0.0188
 2889W        W18358  10.211   1.071  14.801 -0.1757 -0.1610  0.0571
 2890W        W18359   5.459  18.469   4.557  0.2497  0.0809 -0.0331
 2891W        W18360   9.241  10.417   5.803 -0.1373  0.0876  0.1002
 2892W        W18361   5.463  13.762  14.083 -0.1806 -0.1145 -0.1644
 2893W        W18362   0.943   3.526   4.317  0.2125  0.3841 -0.0865
 2894W        W18363   5.505   5.819   0.825 -0.1697  0.0012  0.0738
 2895W        W18364  16.656   6.996   3.919  0.3905 -0.0732  0.0691
 2896W        W18365  14.918  11.519   1.113 -0.1542 -0.0976  0.0224
 2897W        W18366  13.249  12.357   1.354  0.1124  0.1189  0.0927
 2898W        W18367   7.779   3.005   2.120  0.0010  0.0043  0.2607
 2899W        W18368  17.570   7.197  13.733  0.3091  0.2412 -0.0606
 2900W        W18369   8.185   1.681  14.882 -0.0633  0.0323  0.0014
 2901W        W18370  13.731   0.418   1.069  0.2373 -0.0680  0.3098
 2902W        W18371  16.417   4.344   2.189  0.1776  0.4265  0.0049
 2903W        W18372   5.430   7.159  12.004  0.1962  0.0227 -0.1133
 2904W        W18373  16.565   0.304   5.384 -0.2594  0.1157  0.1983
 2905W        W18374  10.946   6.628   1.959  0.0024 -0.0703  0.1746
 2906W        W18375  13.043  13.086  14.979 -0.2132 -0.3829 -0.2425
 2907W        W18376   5.450  10.653  14.734  0.1074  0.0472  0.0485
 2908W        W18377   0.289  15.083   3.040 -0.0909 -0.0958  0.2507
 2909W        W18378   6.266  12.775   1.443 -0.2423  0.1047  0.2108
 2910W        W18379   2.151   6.785   3.326  0.3496  0.2392 -0.1019
 2911W        W18380   8.224   4.661  11.869  0.1126 -0.1119  0.1550
 2912W        W18381   5.948   7.267  11.959 -0.0145 -0.2081 -0.1526
 2913W        W18382  16.937   0.135   1.874  0.0462  0.1346 -0.4150
 2914W        W18383   9.378  13.740  15.433  0.4692  0.1981 -0.2238
 2915W        W18384   9.084   4.416  10.325 -0.1541  0.0378 -0.2089
 2916W        W18385   3.213   2.637   1.257  0.0302 -0.0908 -0.0639
 2917W        W18386  12.435   8.564   0.246 -0.0164  0.1494  0.1280
 2918W        W18387   5.366   6.650  15.423  0.0918 -0.1032 -0.1882
 2919W        W18388  14.640   2.241   2.933 -0.2842  0.1491  0.0741
 2920W        W18389   8.950   4.963   1.250  0.0090  0.2318 -0.1107
 2921W        W18390  11.569   7.655  13.673 -0.4831  0.0314 -0.5428
 2922W        W18391   3.642   4.927   5.408 -0.0052  0.1100 -0.0331
 2923W        W18392   5.665   3.626   4.399 -0.0264  0.0393  0.2477
 2924W        W18393   7.159   9.856   1.115  0.0684  0.0530  0.2009
 2925W        W18394   3.792   0.758   0.309 -0.0996  0.1423  0.1820
 2926W        W18395  16.208  11.822   4.287 -0.0413  0.3465  0.1117
 2927W        W18396   7.786  17.160  10.331  0.0958  0.0657 -0.2358
 2928W        W18397  14.136   8.421   1.421  0.1973  0.3395 -0.3948
 2929W        W18398  11.284   2.882   4.345  0.1043  0.0354  0.0909
 2930W        W18399   3.647   0.637   4.720  0.0231  0.0811  0.0633
 2931W        W18400   0.987   4.341   0.973 -0.1460  0.1380  0.1120
 2932W        W18401  14.229   3.552   3.035 -0.3255  0.0972  0.0255
 2933W        W18402  16.289  11.393  12.990 -0.0865 -0.2338  0.0517
 2934W        W18403  16.666   4.145   0.717 -0.1217  0.3373  0.1576
 2935W        W18404  15.100  15.425   4.695  0.1926  0.2028  0.1498
 2936W        W18405   5.433  18.079  15.540 -0.0772 -0.1535 -0.0063
 2937W        W18406  17.706   8.803   4.998  0.1831 -0.1067  0.1172
 2938W        W18407  15.015  12.697  14.906 -0.2877 -0.0171 -0.0832
 2939W        W18408   2.123  15.297   5.403  0.1412  0.0176 -0.0301
 2940W        W18409  14.253   9.242   6.103  0.1139  0.0566 -0.0679
 2941W        W18410  16.043  18.620   3.281 -0.0650 -0.3100 -0.3332
 2942W        W18411   2.027   3.341  15.501 -0.2569  0.1917 -0.1014
 2943W        W18412   9.602  15.110   9.714 -0.1161  0.1006  0.1838
 2944W        W18413  17.302   2.501   2.476  0.1733 -0.0566 -0.0161
 2945W        W18414   8.414  14.329   4.652 -0.0110  0.0766 -0.1018
 2946W        W18415  16.997   8.117  10.718 -0.3011  0.0617  0.2982
 2947W        W18416  13.967   0.856   2.853  0.0234  0.0328  0.0035
 2948W        W18417   9.174   7.902   0.178  0.1835 -0.3014  0.1935
 2949W        W18418  11.374   2.112  11.218 -0.0347  0.0207  0.0170
 2950W        W18419  10.937  15.738  13.219  0.4376 -0.0302 -0.4719
 2951W        W18420  10.072  17.300   0.439 -0.2083 -0.1180 -0.0019
 2952W        W18421  10.330  15.205   4.511  0.1503 -0.0582  0.0847
 2953W        W18422  16.513   3.708   4.881  0.3653 -0.2527  0.1435
 2954W        W18423   5.731  13.107   3.633 -0.0071  0.0764  0.0910
 2955W        W18424  14.639   2.435  10.931 -0.2110 -0.2224  0.2087
 2956W        W18425   0.361   7.991   2.502 -0.0580  0.0100  0.2242
 2957W        W18426   7.687  16.319  10.670 -0.3411  0.0397 -0.2925
 2958W        W18427   6.155  18.163   0.982 -0.1999 -0.1288  0.0999
 2959W        W18428   3.347   9.124   0.472 -0.2165  0.0870 -0.3853
 2960W        W18429  16.550   8.868  14.688 -0.0895 -0.3385  0.2090
 2961W        W18430  11.765  10.596  11.994 -0.1010  0.2010  0.0028
 2962W        W18431  15.733   9.508  13.443  0.0406  0.0204 -0.1952
 2963W        W18432   5.556   8.411   2.958  0.1161  0.2323 -0.1490
 2964W        W18433   3.758   1.214   4.501  0.1003  0.2036 -0.2270
 2965W        W18434   8.949   1.223  10.697  0.2306  0.0245 -0.0803
 2966W        W18435  11.188  17.636   4.952  0.0779  0.0546  0.1821
 2967W        W18436   3.484   5.362  13.467  0.1382 -0.1129 -0.0539
 2968W        W18437  17.530   0.875  14.659  0.1573 -0.2434 -0.2873
 2969W        W18438   9.326  12.823  10.692  0.0659 -0.2394 -0.0403
 2970W        W18439   8.220   8.797   3.697 -0.1109  0.1061 -0.1571
 2971W        W18440  14.139  18.353   0.739  0.0897 -0.4615  0.0366
 2972W        W18441   4.446  18.190   1.910  0.0578  0.1406 -0.1980
 2973W        W18442  11.586  12.041   4.546 -0.0475  0.2920  0.0797
 2974W        W18443  16.900   3.915   4.435  0.4359  0.0086  0.0030
 2975W        W18444  16.434  14.848   3.685 -0.2561  0.0691  0.0380
 2976W        W18445   3.685  10.126   5.108  0.0307 -0.1168  0.1046
 2977W        W18446  14.431  18.549  15.609  0.1647 -0.1276 -0.2946
 2978W        W18447   5.450  13.356  12.218 -0.1118 -0.0489  0.0355
 2979W        W18448  18.577  15.639  11.481 -0.0555 -0.2673 -0.0990
 2980W        W18449   0.660  12.877   4.811  0.1376 -0.0446  0.0384
 2981W        W18450   0.413   1.870  15.524  0.3334 -0.1030  0.1498
 2982W        W18451  16.557  10.318   0.315  0.0576  0.2389  0.3269
 2983W        W18452   0.698   5.673   5.335  0.0149 -0.1665 -0.2699
 2984W        W18453  10.391   2.494   4.713  0.1528  0.2168 -0.2806
 2985W        W18454  14.771  12.438   6.261  0.0305  0.3852  0.2438
 2986W        W18455   4.916   1.165  12.042 -0.1993 -0.2036  0.3683
 2987W        W18456  17.590   1.727  11.874 -0.1412  0.1073 -0.0819
 2988W        W18457  12.556  10.548  12.910  0.2049  0.0842  0.0235
 2989W        W18458   0.664   8.222   4.358  0.3673 -0.1301 -0.2057
 2990W        W18459  13.753  14.480  11.465  0.0210  0.1074  0.0575
 2991W        W18460  16.255   2.235   3.750  0.1476 -0.4757 -0.0527
 2992W        W18461  15.150  13.060   1.494  0.0914 -0.2033 -0.0382
 2993W        W18462   1.873   0.837   0.445 -0.0114  0.2325  0.3355
 2994W        W18463   1.178   2.919  12.602 -0.2095 -0.4053  0.0372
 2995W        W18464   4.495  17.976   0.031  0.0468  0.1132 -0.0161
 2996W        W18465   5.696  17.150   1.903  0.0640  0.0434  0.0216
 2997W        W18466   2.336   6.290  15.498 -0.0343  0.2393 -0.0015
 2998W        W18467   6.182   4.498  14.047 -0.0322  0.1996 -0.2232
 2999W        W18468   7.628   6.132   4.967  0.0866  0.0055 -0.1432
 3000W        W18469   1.901   5.952  14.151  0.2541 -0.0128 -0.0574
 3001W        W18470   6.887   6.366   0.448 -0.1725  0.3531  0.1681
 3002W        W18471   2.292  11.630   3.890 -0.0431 -0.2490 -0.0720
 3003W        W18472   3.130   4.870  13.883  0.1937 -0.4228  0.2316
 3004W        W18473   7.649   8.389   5.049 -0.0047  0.2546 -0.0948
 3005W        W18474   8.020  17.597  10.141  0.1301  0.1149  0.0684
 3006W        W18475  12.567  14.257  10.773 -0.0021  0.2740 -0.2462
 3007W        W18476  11.057   9.998   0.114  0.0253 -0.1265  0.0698
 3008W        W18477  14.399  14.995   2.133  0.1416 -0.0574 -0.0613
 3009W        W18478  12.837   2.097  13.013  0.1191 -0.3272 -0.0123
 3010W        W18479   9.012  12.271   2.790  0.2362 -0.0903 -0.0789
 3011W        W18480   4.707  15.651  12.804  0.0171 -0.1541  0.1306
 3012W        W18481  15.079  14.006   1.963  0.0281 -0.0539 -0.0322
 3013W        W18482  16.447   5.652   2.356 -0.0010  0.3349 -0.1302
 3014W        W18483  14.234   9.715   4.183 -0.0897 -0.0789  0.2988
 3015W        W18484  12.280  15.242  11.082  0.2742 -0.0064  0.4437
 3016W        W18485   6.124  17.911   4.319 -0.1047  0.0810  0.4186
 3017W        W18486  17.758  12.847  11.544  0.0766  0.0281 -0.1890
 3018W        W18487   4.377  14.937  15.083 -0.0384  0.4057  0.0698
 3019W        W18488  14.180   9.589  11.763  0.1103  0.0367 -0.2620
 3020W        W18489   6.291   2.980  11.839  0.0093  0.0306 -0.1925
 3021W        W18490  12.475   4.569  15.519  0.3700  0.1202  0.2400
 3022W        W18491   7.696   3.810  14.054 -0.1649  0.1275 -0.1655
 3023W        W18492   7.463   7.022  13.300 -0.1986  0.0065  0.0973
 3024W        W18493   0.934  10.662  13.326  0.0282  0.1401  0.0011
 3025W        W18494  13.883  18.539  11.883 -0.2801  0.0337  0.1104
 3026W        W18495   0.040  13.681   6.217 -0.0067 -0.2984 -0.2851
 3027W        W18496  15.487  14.528   2.532  0.1606  0.0519 -0.1494
 3028W        W18497   7.607   1.525   1.292  0.1915  0.1002  0.0114
 3029W        W18498   5.941  10.177   2.932  0.2595  0.0314 -0.0933
 3030W        W18499   3.318  17.326   4.757  0.0890 -0.0879  0.1252
 3031W        W18500   5.932   0.841  12.366 -0.3212  0.2987  0.1006
 3032W        W18501   2.021   1.298  15.454  0.0897  0.2220 -0.2968
 3033W        W18502   7.179   9.317   4.719 -0.0481 -0.1335  0.0588
 3034W        W18503   1.719  10.356  11.819  0.2606 -0.0071  0.0597
 3035W        W18504  18.035  14.827  11.431  0.1400  0.1316 -0.0448
 3036W        W18505   9.467  15.452  12.242  0.0566 -0.2755 -0.1007
 3037W        W18506   2.953  17.203   2.758  0.1669  0.4171 -0.0107
 3038W        W18507   9.808   4.869  11.330  0.1791  0.1430  0.3785
 3039W        W18508   0.689  15.193   3.824  0.1676  0.2520  0.2837
 3040W        W18509  11.017   3.938   4.946 -0.2509  0.1200  0.3052
 3041W        W18510   3.841   8.073  14.753 -0.0185 -0.0984 -0.1883
 3042W        W18511   3.837  17.356   3.488  0.0398 -0.2259  0.1392
 3043W        W18512  16.490   9.861  14.018  0.1968  0.0954  0.1564
 3044W        W18513   6.399  11.420  11.183 -0.2143  0.0348  0.1121
 3045W        W18514   4.955   0.381  13.837 -0.1341 -0.2182  0.3252
 3046W        W18515  17.880   9.264   5.062 -0.1073  0.0759 -0.3109
 3047W        W18516   6.709  14.447  12.623  0.0827  0.3782 -0.2108
 3048W        W18517   9.503   9.388   4.958 -0.2801  0.0758 -0.1104
 3049W        W18518  11.244   2.116  13.700  0.2116 -0.0972 -0.0268
 3050W        W18519   7.534   2.027   5.574 -0.0348  0.1944  0.0126
 3051W        W18520   3.632   1.488   1.699 -0.2689 -0.1372 -0.1699
 3052W        W18521  16.579  15.373  12.512  0.0291  0.5762 -0.0062
 3053W        W18522   3.632  15.963  11.415  0.3839 -0.3288  0.2075
 3054W        W18523   5.661   6.995   0.768  0.1433 -0.0201 -0.0944
 3055W        W18524   9.004   9.013   2.148 -0.2085  0.1093  0.3336
 3056W        W18525   1.905   7.716   5.267  0.1742  0.0022 -0.1481
 3057W        W18526  11.687  18.696  13.718 -0.0889 -0.0721  0.3358
 3058W        W18527   4.001  12.391   4.385 -0.0894  0.0138  0.2541
 3059W        W18528   8.170   4.906  13.640 -0.2463 -0.2142  0.0261
 3060W        W18529  12.483   8.717  10.495  0.1559 -0.0767 -0.3160
 3061W        W18530  11.380   6.333   4.071  0.3145  0.0216 -0.2231
 3062W        W18531   6.844  11.053   3.586  0.0671  0.1580 -0.1074
 3063W        W18532   3.277  12.690  15.364 -0.1772  0.0240  0.3103
 3064W        W18533  11.334   0.419   4.673  0.1908 -0.1490 -0.2754
 3065W        W18534   3.418   1.921   5.312  0.1463 -0.1838  0.1201
 3066W        W18535  14.839   8.215   2.793 -0.1532  0.1523  0.0846
 3067W        W18536   2.671  11.825   2.571  0.4175 -0.1515 -0.1267
 3068W        W18537   9.659  16.511  10.973 -0.1689 -0.1829  0.0830
 3069W        W18538  16.716   9.513  13.675 -0.3905 -0.1655 -0.0163
 3070W        W18539   8.089   1.871  14.353 -0.0668  0.2044 -0.0766
 3071W        W18540  14.927   9.105   0.113  0.0688  0.3179  0.0977
 3072W        W18541  18.177   6.914   0.149  0.1326 -0.1362  0.2159
 3073W        W18542   4.162   1.352  11.725  0.3543 -0.3992  0.4629
 3074W        W18543  16.130   2.960   0.149 -0.0294 -0.1358 -0.2842
 3075W        W18544   4.219   3.012   0.986 -0.1759 -0.2148 -0.1410
 3076W        W18545  11.808  12.364  15.524  0.0667  0.4382  0.2545
 3077W        W18546  14.556  13.788  10.989  0.0870  0.3417 -0.0756
 3078W        W18547  17.504   3.660   9.895 -0.0279 -0.0878 -0.0956
 3079W        W18548  13.651  13.561  11.237  0.0396  0.1866 -0.2310
 3080W        W18549  11.245   0.992  10.549  0.0199  0.0492 -0.0974
 3081W        W18550   6.205   3.488  14.140 -0.0712 -0.0360  0.2746
 3082W        W18551   2.306   3.510   2.851 -0.0710 -0.2539 -0.1602
 3083W        W18552  14.312   0.801   5.269 -0.1072  0.4619 -0.1778
 3084W        W18553   6.935  16.705   1.112  0.2207 -0.3671 -0.0111
 3085W        W18554   3.159  17.891   2.241 -0.0172  0.3791  0.0340
 3086W        W18555  13.993   1.159   2.461  0.3359 -0.1622 -0.2450
 3087W        W18556  13.535  10.252   2.172 -0.1317  0.1310 -0.0102
 3088W        W18557   9.386  15.957   3.769  0.0095  0.1865  0.2480
 3089W        W18558   9.537   1.307   0.700 -0.0828  0.2146  0.2003
 3090W        W18559  14.935  15.590  15.331 -0.1074 -0.1877  0.0422
 3091W        W18560   2.902   5.652  15.356 -0.0217 -0.2207 -0.1764
 3092W        W18561   8.486  16.248   9.484  0.2807  0.0277  0.0450
 3093W        W18562   5.515   8.894  13.158 -0.1903 -0.0461  0.1270
 3094W        W18563  17.223  13.408   5.311 -0.2035  0.2118  0.0099
 3095W        W18564  16.951   0.143   0.528 -0.1803  0.1383  0.0329
 3096W        W18565  18.656   4.181   2.080  0.0839  0.1833 -0.0504
 3097W        W18566  13.237   9.471  10.615  0.1748 -0.1829  0.0311
 3098W        W18567   8.684   2.004  10.230 -0.1678  0.0568 -0.0832
 3099W        W18568  16.540   8.130  15.120  0.0417  0.3144  0.1695
 3100W        W18569  15.616   2.197  14.390 -0.1177 -0.1963 -0.2454
 3101W        W18570  17.886  15.653   1.183 -0.4447 -0.1985  0.2485
 3102W        W18571  10.905   8.504  12.771  0.0808  0.1460  0.3606
 3103W        W18572   2.571   0.818  13.285  0.1057  0.1370 -0.0469
 3104W        W18573  13.690  12.162   2.289  0.2947 -0.0241 -0.2227
 3105W        W18574  18.114  12.324  12.199  0.0575 -0.1333  0.4191
 3106W        W18575   8.501   5.324  15.458  0.2830 -0.2299  0.1256
 3107W        W18576   1.035  13.499   6.272 -0.0662  0.0491  0.2401
 3108W        W18577   4.737  17.112   5.130 -0.3400 -0.3320  0.0039
 3109W        W18578  10.955  15.209   1.595 -0.2251  0.3726  0.0985
 3110W        W18579  16.758   3.914   5.265 -0.4319  0.0186  0.3187
 3111W        W18580  12.438   5.767  13.822  0.0635 -0.0283 -0.0132
 3112W        W18581   8.972   5.899  13.653 -0.2198 -0.0684 -0.1624
 3113W        W18582  16.287  15.995   4.826 -0.0546  0.2667  0.1654
 3114W        W18583   4.570  11.258   0.019  0.0087  0.1661 -0.2223
 3115W        W18584  14.635  16.786   4.499 -0.1735  0.0005  0.2629
 3116W        W18585  16.863   4.709   4.823 -0.1024  0.0446 -0.0905
 3117W        W18586   3.238   2.428   9.908 -0.0084  0.2680  0.0762
 3118W        W18587  15.399  16.187   3.451 -0.0397  0.0198 -0.0848
 3119W        W18588  10.135   3.080  11.010  0.2002  0.1941 -0.0249
 3120W        W18589   9.914   7.437   0.239 -0.1412  0.1630  0.1916
 3121W        W18590  15.521  16.138  10.515  0.0093  0.0741 -0.1289
 3122W        W18591   4.197  11.153  12.435  0.0310 -0.0508  0.4822
 3123W        W18592   0.068   0.358   1.895  0.0056  0.0750 -0.3537
 3124W        W18593  17.825  14.401  11.506 -0.0025  0.1909 -0.1144
 3125W        W18594   1.823   8.076  15.383  0.1404 -0.2027 -0.0318
 3126W        W18595  15.340   8.257   4.163  0.0727 -0.1471  0.1572
 3127W        W18596  10.590   4.520  10.491  0.1152  0.3009  0.2970
 3128W        W18597  18.527  13.466   0.462  0.3355 -0.2038 -0.0972
 3129W        W18598   2.332   5.568  10.951 -0.2714 -0.1796 -0.3599
 3130W        W18599   1.858   4.079   0.472 -0.1780  0.2929 -0.2313
 3131W        W18600   5.573  14.894  14.514 -0.1665 -0.2245 -0.1119
 3132W        W18601   8.524   1.491   0.068  0.2741 -0.0567  0.0390
 3133W        W18602  17.023  10.868   1.713 -0.1827 -0.2315  0.3049
 3134W        W18603  13.459   4.337  13.799  0.2632 -0.3307  0.1261
 3135W        W18604   6.186   4.791   0.583 -0.1188  0.1636  0.1324
 3136W        W18605  14.838   1.619   2.082  0.0819 -0.3239 -0.5768
 3137W        W18606   1.334  13.008   5.543 -0.0053 -0.1217  0.0385
 3138W        W18607   8.976  10.468   1.964 -0.1687  0.1367 -0.0412
 3139W        W18608   7.994   5.561   0.596 -0.1133  0.0180  0.2174
 3140W        W18609   7.014  17.241   4.379 -0.0836 -0.0993 -0.2117
 3141W        W18610   1.201   8.693  15.041  0.0101  0.2286  0.1015
 3142W        W18611   3.155   1.059   5.397 -0.2299  0.2051 -0.1851
 3143W        W18612   5.015   4.891  15.523 -0.1666 -0.1122 -0.0748
 3144W        W18613  12.900   4.324  13.888 -0.0063  0.2039 -0.0165
 3145W        W18614  11.029   0.261  11.914 -0.1796  0.1547 -0.2425
 3146W        W18615  15.107   2.572  13.730  0.1199 -0.0982  0.0047
 3147W        W18616   4.239   3.522  10.325  0.2136 -0.0261  0.0577
 3148W        W18617  10.805   2.411   5.493 -0.3200 -0.0190 -0.1434
 3149W        W18618  13.719   7.680  13.145 -0.0204  0.2550  0.1577
 3150W        W18619   2.498  15.479  11.994 -0.0349  0.0300  0.0335
 3151W        W18620   3.720   4.685   4.263  0.0009  0.0841 -0.0953
 3152W        W18621   3.804   6.352   1.546 -0.1142  0.0444  0.1656
 3153W        W18622  17.879   4.604   1.091  0.4431 -0.0689 -0.1024
 3154W        W18623  17.027   6.501  12.697 -0.0087  0.4302  0.0722
 3155W        W18624  11.287  16.825   0.646  0.1427  0.2594  0.0619
 3156W        W18625   8.064  15.841  10.464 -0.2482  0.1202  0.1912
 3157W        W18626  15.945  18.336   1.040 -0.1464 -0.0642 -0.1791
 3158W        W18627   7.988  11.130   0.320 -0.3343  0.0183  0.1565
 3159W        W18628  12.610   6.985  12.938 -0.0978  0.0841  0.0191
 3160W        W18629  12.641   5.766   4.301 -0.1448  0.1703  0.1884
 3161W        W18630   6.370   6.303   4.056  0.0986  0.2535  0.1531
 3162W        W18631   1.681  13.294  13.795 -0.1621  0.1265 -0.2015
 3163W        W18632   1.288   6.404  11.155 -0.1925 -0.0352 -0.1070
 3164W        W18633  16.496  15.519   4.772 -0.0840 -0.1654  0.0076
 3165W        W18634  17.614  14.181   2.506 -0.0011  0.2403 -0.1905
 3166W        W18635   0.362  10.518   1.439  0.4103  0.0115  0.0372
 3167W        W18636   2.921   8.910   2.507  0.4068  0.0476 -0.1662
 3168W        W18637  12.975   8.536  14.459 -0.2089 -0.1285  0.0356
 3169W        W18638  14.014  13.389   5.076  0.1446 -0.2734  0.1235
 3170W        W18639   5.058  16.323   0.245  0.0883 -0.4236  0.3373
 3171W        W18640   8.469   7.707  11.212  0.1449  0.3241 -0.2529
 3172W        W18641  15.881  13.642  14.806  0.2312  0.0044 -0.0579
 3173W        W18642  18.317  10.882   4.719  0.1119 -0.0987  0.0975
 3174W        W18643  14.079   9.056   1.442 -0.4509 -0.2819  0.2566
 3175W        W18644   6.808   1.645   4.464  0.1166 -0.0498  0.0124
 3176W        W18645  15.127   0.537  10.322 -0.2323  0.0633  0.0929
 3177W        W18646  10.151   8.731  12.262  0.0254  0.1481 -0.1591
 3178W        W18647  18.581  15.892   3.046  0.0438  0.0531 -0.2525
 3179W        W18648   3.225  13.413  13.498 -0.0508 -0.2381  0.1443
 3180W        W18649   8.333  18.236  12.836  0.1071  0.2126 -0.1465
 3181W        W18650   5.836  14.070  11.161 -0.4048  0.1460 -0.2030
 3182W        W18651   6.752   5.542   3.319  0.1360 -0.2514 -0.0551
 3183W        W18652  15.633  17.120   2.026 -0.1653  0.1127 -0.0538
 3184W        W18653  14.048  18.524   3.096 -0.0094  0.3870 -0.0060
 3185W        W18654   3.225  15.267   0.003 -0.0703  0.2264  0.1231
 3186W        W18655   0.844   0.122   5.212 -0.0900  0.0654 -0.1086
 3187W        W18656   9.349  13.859   2.016 -0.0486 -0.0709  0.0548
 3188W        W18657   9.839  17.814   0.741  0.3493  0.1946 -0.3230
 3189W        W18658  18.732   8.734   0.483 -0.0018 -0.0668 -0.0108
 3190W        W18659   8.152  12.549   2.654  0.0189 -0.0452  0.0934
 3191W        W18660   2.293  16.470   2.370  0.0153  0.4127 -0.4912
 3192W        W18661  15.946   0.177  12.495  0.1413  0.2672  0.0639
 3193W        W18662   0.480   4.352  13.522 -0.0221 -0.1290 -0.1208
 3194W        W18663   7.687  17.208   4.928 -0.2505 -0.2443 -0.1281
 3195W        W18664  17.577  14.225  14.087 -0.1658  0.1304 -0.3312
 3196W        W18665  17.618   2.580   2.083  0.0017  0.0368  0.1408
 3197W        W18666   2.185   9.936   0.458  0.2106  0.3164 -0.1952
 3198W        W18667  15.007   0.553   2.064 -0.1743  0.3048  0.0422
 3199W        W18668  18.335   4.966  10.696  0.0000  0.2794  0.0084
 3200W        W18669   3.786   6.538   0.959 -0.1901 -0.0712  0.1161
 3201W        W18670   6.082  16.682  14.360 -0.4168 -0.2174 -0.0057
 3202W        W18671   1.483   7.845  14.979 -0.1905 -0.0540  0.0537
 3203W        W18672   7.563  18.558  10.754 -0.2106 -0.0367  0.1979
 3204W        W18673   5.079   8.784   2.891 -0.0670  0.0734 -0.0018
 3205W        W18674   9.014  11.721   0.517  0.0210 -0.2771  0.0389
 3206W        W18675   3.030   4.897   3.665 -0.2090 -0.3147  0.0226
 3207W        W18676   2.521   9.529   0.267 -0.2958  0.0480  0.0929
 3208W        W18677   1.257   5.902   3.558 -0.2081 -0.0412 -0.1847
 3209W        W18678   3.819   0.546  13.046  0.2417  0.0263  0.3153
 3210W        W18679  13.984  12.345  14.455  0.0478  0.1836 -0.2434
 3211W        W18680   0.410  16.708   1.856 -0.0139  0.2952  0.3700
 3212W        W18681   1.115  12.465   5.856 -0.1884 -0.0033 -0.1602
 3213W        W18682  16.077  17.634   4.211 -0.1369 -0.1444  0.1366
 3214W        W18683   1.176  11.891   0.867  0.2684  0.0700 -0.2824
 3215W        W18684  14.671  12.804   5.387 -0.1088 -0.0194 -0.0750
 3216W        W18685   3.998  13.605  13.069  0.0548 -0.0505 -0.1906
 3217W        W18686   2.108   6.591  10.343  0.4408  0.2665  0.5101
 3218W        W18687   7.815  13.065  11.862 -0.0479  0.0962 -0.0617
 3219W        W18688  17.486  11.690   4.864 -0.0067  0.0482 -0.1390
 3220W        W18689  15.463   5.781  13.426 -0.2029  0.2684 -0.1372
 3221W        W18690   2.421   2.675  13.681  0.3059  0.2316 -0.1158
 3222W        W18691   8.935  14.289   2.958  0.2247  0.1551 -0.2360
 3223W        W18692   5.142  15.861  13.004 -0.3382  0.0497 -0.0707
 3224W        W18693   9.691   6.903   2.743 -0.2287  0.0968  0.2289
 3225W        W18694   2.422   2.588   3.185 -0.1534 -0.2763  0.2136
 3226W        W18695   3.154  14.152   0.090 -0.2115 -0.1259 -0.0510
 3227W        W18696   5.685  18.287  12.218  0.0068 -0.0261  0.0978
 3228W        W18697  12.547   2.958   1.705  0.0619  0.1419 -0.2027
 3229W        W18698  11.750  10.732  12.456 -0.2121  0.1882  0.3890
 3230W        W18699  11.201   0.652  12.715 -0.2834 -0.0233  0.0603
 3231W        W18700  10.804  14.441   0.896  0.1093  0.0956 -0.4977
 3232W        W18701   8.925  16.978  13.983 -0.1803  0.0017  0.0690
 3233W        W18702  13.018   0.289   0.865  0.0595  0.1113 -0.1555
 3234W        W18703   7.370  18.526  11.267 -0.1580  0.1611 -0.1855
 3235W        W18704  16.284   7.166   0.772  0.1754  0.2040  0.0170
 3236W        W18705  14.258   8.467  15.272  0.2604  0.0942 -0.3886
 3237W        W18706  15.499   2.302   0.883  0.2922  0.2329  0.2052
 3238W        W18707  10.677   9.686  11.967 -0.1050 -0.1392 -0.1637
 3239W        W18708  12.540   6.079  15.448 -0.2615 -0.1019 -0.1323
 3240W        W18709  13.599   2.039   4.161 -0.1411 -0.0994 -0.1107
 3241W        W18710  12.118   2.701  12.064  0.0939  0.1850  0.2687
 3242W        W18711  18.027  17.665   4.765  0.3497  0.2099  0.1381
 3243W        W18712  14.385   1.604   1.082 -0.0614 -0.0780  0.1013
 3244W        W18713   7.830   5.267  12.127  0.0294  0.0786 -0.3494
 3245W        W18714   8.038   5.371   3.730  0.1087 -0.0432 -0.3215
 3246W        W18715   5.019  18.201   2.093  0.0902  0.3101  0.3129
 3247W        W18716   2.654   1.393   4.096  0.4927 -0.1852  0.0239
 3248W        W18717  12.328  15.254  10.500 -0.0184  0.0079  0.3087
 3249W        W18718   6.669  10.193   4.610 -0.0499  0.2050  0.0508
 3250W        W18719  12.497   8.952   1.325  0.1366 -0.2490  0.6395
 3251W        W18720  11.272   8.811  14.511  0.1854 -0.2075  0.3393
 3252W        W18721  14.053  18.401   3.589 -0.1754  0.1953 -0.0029
 3253W        W18722   6.462   0.118  11.993  0.1710  0.1817  0.3093
 3254W        W18723   2.520   3.461  13.421  0.3144  0.0976  0.1804
 3255W        W18724  15.688  13.795   3.506  0.1402  0.0103  0.2247
 3256W        W18725  17.027  10.468   4.071 -0.1129  0.1608 -0.1247
 3257W        W18726   5.893  18.252  13.694  0.3100  0.1092  0.2107
 3258W        W18727   3.269  12.308   0.798 -0.0813  0.1292  0.2221
 3259W        W18728   2.103  10.330   0.121  0.2134 -0.0589  0.0196
 3260W        W18729  14.721   2.792   2.124  0.0593  0.3050 -0.3398
 3261W        W18730   4.208   8.863  12.174  0.4200  0.0939  0.0083
 3262W        W18731   7.667   4.625   3.782 -0.2988 -0.0442 -0.1424
 3263W        W18732   4.705   5.164  12.548 -0.0485 -0.1402 -0.1625
 3264W        W18733  11.407  13.265   5.061 -0.0642  0.1513 -0.1384
 3265W        W18734   5.290  10.046  15.644  0.0457 -0.1955 -0.1139
 3266W        W18735   1.692   1.747  12.894 -0.0802  0.4047  0.2665
 3267W        W18736   1.633   5.214  11.367 -0.0526 -0.1837  0.0719
 3268W        W18737  12.394   6.755  11.090 -0.0271 -0.1915 -0.0147
 3269W        W18738  17.038  17.146   0.120 -0.1104  0.3532  0.1331
 3270W        W18739   6.772   0.218   4.438 -0.3493  0.3290  0.1680
 3271W        W18740  12.553   5.518  11.986  0.2324  0.2624 -0.0872
 3272W        W18741   9.721   1.732   2.773 -0.0739  0.1735  0.3992
 3273W        W18742   2.762  13.302   4.058  0.2725 -0.4656  0.0535
 3274W        W18743  11.018  15.811   5.066 -0.1912 -0.1467  0.2996
 3275W        W18744   9.503  16.048  15.499 -0.0718 -0.0380 -0.0835
 3276W        W18745  10.573   0.292  10.079  0.1285 -0.1474 -0.0913
 3277W        W18746  11.236  16.360   2.186  0.0848 -0.0134 -0.3393
 3278W        W18747  15.099   6.052   4.359 -0.2828 -0.0364 -0.0256
 3279W        W18748   6.311  17.792  10.972  0.1769  0.0522  0.2236
 3280W        W18749  12.413  12.865  12.159  0.0870 -0.1610 -0.0905
 3281W        W18750   0.949   8.466   0.455 -0.0803 -0.0169 -0.1668
 3282W        W18751   9.956  10.321  10.522  0.1458 -0.1700 -0.2056
 3283W        W18752   2.800  16.791   5.398 -0.1692  0.1320  0.1224
 3284W        W18753   5.407   0.583  12.409 -0.0662  0.0007 -0.0576
 3285W        W18754   7.561  14.148   2.608  0.0005 -0.0211  0.2282
 3286W        W18755   0.755   8.925   3.870  0.2652 -0.0401  0.0515
 3287W        W18756   0.630   0.975   5.113  0.2302  0.1380  0.1940
 3288W        W18757  13.193   7.043   3.525  0.1778 -0.1076 -0.2143
 3289W        W18758   6.162   5.205   4.987  0.1784  0.0063  0.0592
 3290W        W18759   3.435   8.319   0.308 -0.0223 -0.0574  0.1823
 3291W        W18760   8.836  18.054  11.463 -0.1478  0.2882 -0.1081
 3292W        W18761   2.338   1.247   2.902 -0.0833  0.1724 -0.0341
 3293W        W18762  15.024  14.447  11.967  0.0132  0.1151 -0.1445
 3294W        W18763  12.693  15.199  11.574  0.5100 -0.1478  0.0793
 3295W        W18764   2.881   7.476   4.245 -0.1173  0.0438  0.2141
 3296W        W18765  12.843  15.930  14.212 -0.2753  0.1076 -0.0187
 3297W        W18766   8.719   6.350  14.349 -0.2684  0.2746 -0.0592
 3298W        W18767   7.091   3.318  15.272 -0.1026  0.0688  0.0097
 3299W        W18768   3.898   2.552  15.279 -0.0884 -0.0160 -0.0940
 3300W        W18769   8.640   8.743  10.889  0.2317 -0.1852  0.1323
 3301W        W18770  17.884   2.668  15.384 -0.0085 -0.1277  0.0771
 3302W        W18771   2.767  17.124  11.543 -0.2395 -0.0032  0.0170
 3303W        W18772  14.569   7.461  13.057  0.4405 -0.0254  0.0084
 3304W        W18773  16.611  12.593  13.446 -0.4490 -0.0420 -0.0357
 3305W        W18774  15.165   6.588  15.455  0.2217 -0.0615 -0.2431
 3306W        W18775   1.957  16.236   3.929 -0.3733  0.0689 -0.1721
 3307W        W18776  16.179  18.137   3.466 -0.2052 -0.0083 -0.1748
 3308W        W18777   5.853  11.904  14.946  0.3662  0.1560 -0.0422
 3309W        W18778   6.711   4.035   1.583  0.0651 -0.1023 -0.0687
 3310W        W18779   9.320  13.219   3.777 -0.1225  0.1229 -0.1038
 3311W        W18780   3.341  11.626   2.626 -0.1169  0.0209 -0.0733
 3312W        W18781   4.076   1.581   2.640 -0.2023 -0.1449  0.1030
 3313W        W18782   9.068   4.874  10.597 -0.0994  0.1595  0.0405
 3314W        W18783   6.155   2.273  11.292  0.0541  0.1713 -0.4805
 3315W        W18784   0.492  14.158   0.580  0.0786 -0.0571 -0.2189
 3316W        W18785  17.138  17.242   1.971 -0.1034  0.0928 -0.1565
 3317W        W18786   9.754  17.071   1.005  0.0234  0.0010 -0.1996
 3318W        W18787  14.828   0.629   5.292 -0.0678  0.1450 -0.0320
 3319W        W18788   8.301  17.765   3.792  0.2649 -0.1953  0.0785
 3320W        W18789  18.118  17.812   2.629 -0.0244  0.1568 -0.2480
 3321W        W18790  10.390   8.917  11.319 -0.0243 -0.4685 -0.0967
 3322W        W18791   1.914  10.407   4.704  0.1525  0.1634 -0.1029
 3323W        W18792   5.451   8.615  11.945  0.2822 -0.2376 -0.3165
 3324W        W18793   1.986   7.482   0.811  0.2777 -0.2542 -0.1952
 3325W        W18794   2.577   9.380   9.774 -0.2880 -0.1657  0.2575
 3326W        W18795  15.154   1.251   2.057  0.1122  0.0995  0.0265
 3327W        W18796   7.414   9.198  14.875 -0.1196  0.1481  0.1650
 3328W        W18797   9.212   8.028  12.556 -0.2276  0.0271 -0.3918
 3329W        W18798   5.191  18.007   4.713  0.0738  0.3160 -0.0387
 3330W        W18799   9.129   6.415  15.335  0.2860 -0.0541 -0.1456
 3331W        W18800   0.794   8.445  12.956 -0.0645  0.0412 -0.3198
 3332W        W18801   7.436   7.137  14.018  0.2007  0.2138  0.0900
 3333W        W18802   4.515   7.054   1.984 -0.2346  0.3471 -0.0848
 3334W        W18803  14.084  12.040  10.963 -0.1656  0.0430 -0.0805
 3335W        W18804  13.645  18.073  10.642  0.0016  0.1369  0.0017
 3336W        W18805   1.740   9.831  12.411 -0.0376 -0.1570  0.0237
 3337W        W18806   3.252  17.640  13.117  0.0977 -0.0722  0.1726
 3338W        W18807   7.355  10.514  14.535  0.0726  0.0051 -0.3696
 3339W        W18808   3.664   6.150  12.716 -0.1941  0.2264  0.2213
 3340W        W18809   0.650   3.395  11.901  0.4041  0.3361  0.1665
 3341W        W18810  15.719  11.685  13.047  0.2256  0.0219  0.0918
 3342W        W18811  16.080  14.422  13.939 -0.0622  0.1780 -0.0374
 3343W        W18812   1.033  15.860   0.667 -0.1245  0.0351 -0.0086
 3344W        W18813  13.518   7.897  11.477  0.1556  0.0860 -0.2634
 3345W        W18814  15.849  13.031  12.805 -0.2521 -0.0701 -0.0380
 3346W        W18815  16.497   9.800   0.195 -0.1820 -0.2935  0.1603
 3347W        W18816   5.507   3.361  15.436 -0.2119  0.1197  0.1461
 3348W        W18817   0.379   2.086  13.253 -0.1217 -0.0039 -0.2920
 3349W        W18818  11.096   5.894  11.160  0.0697 -0.1517  0.1509
 3350W        W18819  13.039  17.432   2.716  0.1029  0.2978  0.1396
 3351W        W18820  17.028  10.549  15.152 -0.0810  0.1632  0.1041
 3352W        W18821   0.783   3.899  14.873  0.1306 -0.0957 -0.0805
 3353W        W18822  10.884   0.535  15.066 -0.1094  0.3319  0.0714
 3354W        W18823   6.464   7.085  11.964 -0.2022  0.1968  0.1559
 3355W        W18824   3.120  10.911  12.722 -0.2482  0.0780 -0.0083
 3356W        W18825   3.172   6.917   2.242 -0.0460  0.0983  0.2490
 3357W        W18826  15.597  17.994  15.298  0.0470 -0.0856 -0.1497
 3358W        W18827  13.846  10.890  11.645  0.0631  0.1035  0.1153
 3359W        W18828  10.907   6.085  14.843  0.0795  0.1083  0.0039
 3360W        W18829   1.141   3.804   2.269  0.2577 -0.0716  0.0334
 3361W        W18830   7.396   7.765   1.203  0.2857  0.1122 -0.1390
 3362W        W18831   9.794   6.200  12.223  0.0040  0.1603 -0.0691
 3363W        W18832   0.804  13.254   5.183  0.4948 -0.2690  0.0513
 3364W        W18833   6.462   3.728  12.522  0.0231 -0.2605  0.2851
 3365W        W18834   0.870  12.197   4.486  0.3163  0.0712  0.0607
 3366W        W18835   0.866  15.507   5.661 -0.0832  0.3046  0.0527
 3367W        W18836  14.088  18.376  12.360  0.4916  0.2209 -0.1680
 3368W        W18837   6.592   6.489  11.886  0.0611  0.3572  0.0316
 3369W        W18838   4.131   5.980   4.052 -0.0060  0.2993 -0.0193
 3370W        W18839   5.388   9.125   2.681  0.2822  0.0649 -0.3929
 3371W        W18840   5.451  16.424  10.947 -0.0581 -0.0832  0.0276
 3372W        W18841  14.299   1.171  10.767 -0.1782 -0.1771 -0.1362
 3373W        W18842   5.848   3.641  15.093 -0.3806  0.1567  0.1442
 3374W        W18843  14.117   6.432   0.898 -0.0260  0.2241 -0.1994
 3375W        W18844   8.124   4.488   4.772 -0.0748 -0.4297 -0.0873
 3376W        W18845  15.728   1.773  12.626 -0.0475 -0.0818  0.1494
 3377W        W18846   6.707  11.714  10.816  0.2300  0.0557 -0.1158
 3378W        W18847  14.741   4.861   4.584  0.2566 -0.2667  0.2725
 3379W        W18848  11.048   3.183   5.310  0.0097  0.0253  0.0721
 3380W        W18849  17.844   3.740   1.677 -0.2303 -0.3902 -0.1591
 3381W        W18850  17.563   9.034   2.390 -0.1356  0.2378 -0.1035
 3382W        W18851   5.057   8.084  15.268 -0.0361  0.1226 -0.0311
 3383W        W18852   2.255   6.590   1.063 -0.1045  0.3952 -0.0473
 3384W        W18853  12.602   8.284   1.326  0.0749  0.4702 -0.0732
 3385W        W18854  12.968  16.785  14.680  0.1001  0.1974 -0.0226
 3386W        W18855  15.989   1.903   2.618 -0.1994  0.0951 -0.2709
 3387W        W18856   6.786   9.632  14.875 -0.1248  0.0383 -0.1412
 3388W        W18857  11.905   5.981  14.431 -0.1100  0.3298  0.0696
 3389W        W18858   0.960  11.040  13.701  0.2992  0.1496  0.4905
 3390W        W18859  11.501   6.068  10.947 -0.1848 -0.1177 -0.0925
 3391W        W18860   6.273  12.141   1.870  0.1183  0.4397 -0.1176
 3392W        W18861  16.315  14.662  15.021 -0.0663  0.0813  0.0847
 3393W        W18862  10.741  11.633  14.115  0.3685  0.1507  0.0659
 3394W        W18863  13.845   3.945  14.795 -0.1781 -0.1150  0.1384
 3395W        W18864  18.333   3.410  15.269 -0.2911 -0.1625  0.0881
 3396W        W18865  12.584  12.773  10.963 -0.1696 -0.2261  0.0139
 3397W        W18866   7.227  12.251   0.119 -0.3062 -0.0087 -0.1551
 3398W        W18867  18.392  17.842   4.410  0.0668 -0.1173 -0.0960
 3399W        W18868  16.214  17.570   5.008 -0.0425  0.1244 -0.3445
 3400W        W18869   8.854   0.297   1.300 -0.2223  0.0685 -0.2781
 3401W        W18870   4.431   4.569  14.630  0.0371 -0.0611 -0.0271
 3402W        W18871  15.427  15.148   5.521  0.1209 -0.0455  0.0654
 3403W        W18872   0.961   6.675  13.104 -0.0654  0.0241 -0.0115
 3404W        W18873   6.913   0.615   5.026 -0.2879  0.0583  0.3321
 3405W        W18874   9.925  16.721  13.657  0.1385 -0.0840  0.1199
 3406W        W18875   9.723   6.590   0.471  0.0538 -0.1558 -0.3345
 3407W        W18876   6.354   0.167   1.202  0.0872 -0.4316 -0.0648
 3408W        W18877   8.273  18.602  10.333 -0.3323 -0.0053  0.2531
 3409W        W18878   0.300   5.577  14.326 -0.3984 -0.0819  0.0492
 3410W        W18879  13.962  11.722  13.272  0.1915 -0.1071  0.2871
 3411W        W18880  14.270   3.019   1.960 -0.1461 -0.0958 -0.1004
 3412W        W18881   5.749  12.534  11.188  0.0375 -0.1225  0.2117
 3413W        W18882  10.089  14.028   2.651 -0.0557  0.2014 -0.1506
 3414W        W18883   0.066  13.941   3.265 -0.1043  0.0814  0.1800
 3415W        W18884   9.219   8.891  14.327  0.2123 -0.0138 -0.1351
 3416W        W18885  13.327  16.637   5.672  0.2129  0.2855 -0.1863
 3417W        W18886  14.237   9.359   4.545 -0.0541  0.1092 -0.3603
 3418W        W18887   9.679   2.127   1.387 -0.0052  0.1754 -0.0020
 3419W        W18888  11.295   4.296  15.639 -0.0971  0.0053 -0.4727
 3420W        W18889  15.029   5.376  13.467  0.0782 -0.4095 -0.0783
 3421W        W18890   6.271   6.294   4.564  0.0211 -0.1527  0.0818
 3422W        W18891  17.323  13.348   1.371  0.2445 -0.0263 -0.2999
 3423W        W18892  11.222  15.949   2.524 -0.1179  0.4267 -0.1977
 3424W        W18893   3.871   5.657  11.510 -0.1689 -0.2967 -0.2751
 3425W        W18894  12.934  16.796   3.041 -0.1065 -0.2717 -0.0808
 3426W        W18895  13.806   7.036   1.976 -0.1533  0.1741 -0.0594
 3427W        W18896   7.824   7.188   2.903  0.0581  0.0663  0.1400
 3428W        W18897  14.649  12.310  15.253  0.1439 -0.2316  0.3421
 3429W        W18898  16.610  12.817   0.634  0.2533 -0.2856  0.0677
 3430W        W18899  10.836  12.023   0.903 -0.1183 -0.0584  0.0233
 3431W        W18900   1.275   8.202  15.257  0.1403  0.1721  0.0812
 3432W        W18901  16.920  10.342  11.330 -0.1423 -0.2717 -0.1034
 3433W        W18902  14.921   3.397  13.169  0.0062  0.2226 -0.3075
 3434W        W18903  16.125   4.301   4.641 -0.0067  0.2080  0.2058
 3435W        W18904  13.632   5.466  11.963  0.0245  0.3173  0.0035
 3436W        W18905  16.575  13.640   0.740  0.2989  0.2956  0.1945
 3437W        W18906   3.705   4.628   2.560 -0.0752 -0.2390  0.3321
 3438W        W18907   0.524   7.979   5.395 -0.1831 -0.3702  0.0386
 3439W        W18908   3.797  12.615   4.913 -0.0168  0.2795 -0.1747
 3440W        W18909   3.629  13.830   1.881  0.0129  0.3249  0.2540
 3441W        W18910   8.711   1.493   5.159  0.0390  0.1432 -0.0893
 3442W        W18911  12.924  14.556   4.616 -0.4022  0.1332  0.3613
 3443W        W18912  13.736   3.781   2.948  0.1073  0.3055 -0.2889
 3444W        W18913   8.016   3.253  14.289 -0.0693 -0.0820  0.1885
 3445W        W18914   4.638   3.703   3.027 -0.1015  0.0938  0.0930
 3446W        W18915  12.535  16.717   3.959 -0.2124 -0.1535  0.2768
 3447W        W18916   5.680   5.851  10.985  0.2014 -0.2037  0.1955
 3448W        W18917   3.217   8.187  13.997 -0.5419  0.4916 -0.1793
 3449W        W18918   6.463   7.666  15.147  0.0742 -0.1253 -0.4038
 3450W        W18919  12.073  18.646   3.792  0.0351 -0.0457 -0.1414
 3451W        W18920   4.578  17.061  15.238  0.1959 -0.0030 -0.0267
 3452W        W18921   8.432   9.016   2.771 -0.2674 -0.2406  0.0417
 3453W        W18922   0.618  18.131  15.621 -0.1081  0.1239  0.2552
 3454W        W18923  11.232  18.163   0.325  0.0455  0.1978 -0.1519
 3455W        W18924  15.327   5.004  13.432  0.0396 -0.0172 -0.2092
 3456W        W18925  16.524   2.026  14.767 -0.0983  0.0382 -0.0356
 3457W        W18926  13.098   9.400   4.707 -0.2623  0.0867 -0.0015
 3458W        W18927  10.591   3.201   3.061  0.3002 -0.4154 -0.0159
 3459W        W18928  17.632  14.764   2.968 -0.4508  0.0345  0.1174
 3460W        W18929   3.198  17.827  14.652  0.1445 -0.1428  0.0713
 3461W        W18930   4.072   4.766   5.239  0.0984 -0.1068  0.0794
 3462W        W18931  14.283  10.171   4.385  0.1519 -0.2409 -0.1277
 3463W        W18932  12.065  13.312  13.998  0.2873 -0.0741 -0.0845
 3464W        W18933  14.172  12.190   4.154  0.3052 -0.1116 -0.0724
 3465W        W18934  15.707  11.194  13.126 -0.0353  0.2394  0.0612
 3466W        W18935  12.286  15.742   3.663 -0.3118  0.0163  0.4599
 3467W        W18936   9.466   2.417  11.135  0.1772 -0.2777  0.2383
 3468W        W18937  15.227  10.014   2.839 -0.2453  0.1204  0.2612
 3469W        W18938   3.584   4.249  11.465 -0.3500  0.0364  0.1781
 3470W        W18939   2.858   4.978   3.145 -0.1140 -0.2611 -0.1734
 3471W        W18940  15.265  16.745   0.006  0.2701 -0.0968  0.0738
 3472W        W18941  18.459  17.531  14.312 -0.0986  0.1519  0.1227
 3473W        W18942  16.494  16.312  11.441  0.2092  0.1199 -0.0026
 3474W        W18943   2.045  17.053  14.346 -0.0207  0.0809 -0.2325
 3475W        W18944  17.177   9.851  11.533 -0.3271 -0.0539 -0.2177
 3476W        W18945  17.408  15.151  11.871  0.3233  0.0440  0.2749
 3477W        W18946   8.299  13.369   1.387  0.1067  0.1553 -0.1705
 3478W        W18947   9.418  11.021  11.841  0.1856 -0.1430 -0.0508
 3479W        W18948   9.790   4.765   0.135  0.2817  0.1968 -0.0261
 3480W        W18949  15.162   0.006   5.854 -0.2331  0.1667 -0.0633
 3481W        W18950  17.730  13.150   5.129 -0.2475 -0.0160 -0.2378
 3482W        W18951  12.387  13.677   4.763  0.1251 -0.2819 -0.0769
 3483W        W18952  18.692  15.871  15.261 -0.0384  0.2285 -0.3380
 3484W        W18953  15.007  18.049   1.637 -0.0936  0.0627  0.3221
 3485W        W18954   0.708  13.734   2.426  0.3247 -0.0821 -0.1835
 3486W        W18955   0.347   1.950   0.828 -0.0653  0.2413 -0.1812
 3487W        W18956   6.474   7.807   0.266 -0.0937 -0.0440 -0.1216
 3488W        W18957  16.978   4.411   3.126 -0.3346  0.0677 -0.0505
 3489W        W18958   4.194  11.685  13.802 -0.0474  0.1969 -0.3010
 3490W        W18959  11.489   3.122  12.294 -0.0277  0.0109 -0.1060
 3491W        W18960   3.605  17.960   1.062  0.1201 -0.2242 -0.1879
 3492W        W18961  13.042  11.388   4.411 -0.1710 -0.0497  0.2921
 3493W        W18962  10.992   0.890  14.768 -0.2732  0.0328  0.0866
 3494W        W18963  12.307   0.303  11.282  0.3112  0.1381  0.0794
 3495W        W18964   2.921   2.662  10.899 -0.0157  0.1581  0.1165
 3496W        W18965   4.585   2.258  11.578  0.2508  0.1808  0.2134
 3497W        W18966  12.717  11.641  12.531 -0.0908  0.0735  0.3130
 3498W        W18967   3.342  12.617  11.252  0.1725 -0.0037  0.2691
 3499W        W18968   6.928   1.226   3.247 -0.0086  0.3020 -0.0674
 3500W        W18969   5.410   2.075   2.649 -0.0635 -0.1323  0.4044
 3501W        W18970   9.687   5.016   4.774 -0.1159 -0.0514  0.0003
 3502W        W18971  13.027   3.837   0.012  0.0955 -0.0986 -0.0342
 3503W        W18972   7.447   4.441   0.522 -0.0736  0.3412 -0.2235
 3504W        W18973   5.486   0.056   1.409 -0.0486  0.2211  0.1562
 3505W        W18974   7.122  13.801   2.736  0.0009 -0.2747 -0.2565
 3506W        W18975  10.832   8.495  14.508  0.3096  0.0661 -0.2517
 3507W        W18976   5.298  17.928   1.416  0.1063 -0.0932 -0.1934
 3508W        W18977  15.001   4.771  14.718 -0.0196 -0.0881 -0.0706
 3509W        W18978   5.143   2.541  13.802 -0.4945 -0.0554  0.2311
 3510W        W18979  15.070   4.658  15.489  0.1162 -0.0419  0.1874
 3511W        W18980  12.550  12.464  13.961  0.1956 -0.0027  0.0415
 3512W        W18981   1.842  12.581   1.094 -0.3272  0.1619  0.3579
 3513W        W18982   2.697  16.983   1.397  0.2622 -0.0639 -0.1832
 3514W        W18983  10.861   8.172   2.153 -0.1779  0.1835 -0.0056
 3515W        W18984  15.611   1.542  11.337 -0.0266  0.0474 -0.0422
 3516W        W18985  10.643   7.174   3.768  0.2155  0.0427  0.1389
 3517W        W18986   5.078   8.044   0.917  0.0747 -0.3448 -0.0023
 3518W        W18987  12.540   7.734   4.043 -0.1583 -0.1031  0.0719
 3519W        W18988   6.266  11.981   2.785  0.1174 -0.5659  0.2729
 3520W        W18989  12.652   0.488  14.270  0.0407  0.1370  0.0190
 3521W        W18990  14.441   2.609   1.730  0.0145 -0.0070  0.0816
 3522W        W18991  18.053   4.617   5.073 -0.0185 -0.2541 -0.1039
 3523W        W18992   7.876   4.631   3.154 -0.1026  0.0733  0.1333
 3524W        W18993   4.551  16.194   2.825  0.0499 -0.0744  0.0340
 3525W        W18994   9.212   2.221  11.480 -0.0576  0.1871 -0.2607
 3526W        W18995   3.667   2.785   5.175  0.2961 -0.2928  0.1646
 3527W        W18996  10.102  11.826   0.738 -0.2020  0.1923  0.1758
 3528W        W18997  10.236   1.118   4.319 -0.0789  0.3295 -0.2457
 3529W        W18998   7.614   2.907  11.988 -0.0497 -0.1856  0.1369
 3530W        W18999   0.865  18.461  13.915 -0.1642 -0.0745  0.2509
 3531W        W19000   2.748   6.498  10.611 -0.0176 -0.1768 -0.3111
 3532W        W19001   0.909  16.715   2.123  0.1953 -0.1245  0.0370
 3533W        W19002  10.797  13.694   5.092 -0.0476  0.0675 -0.1454
 3534W        W19003  17.599   0.059  12.854 -0.0570  0.2666  0.4724
 3535W        W19004  10.992  12.805   4.469  0.0356 -0.2798 -0.0719
 3536W        W19005  16.848  12.644   3.115 -0.2880  0.0395  0.1306
 3537W        W19006   3.364  17.349  14.424 -0.1530  0.0162  0.0872
 3538W        W19007  13.637   3.662  14.449  0.3172  0.5041  0.0425
 3539W        W19008  13.485   0.747   1.951 -0.0370 -0.2554 -0.0287
 3540W        W19009   5.992  11.218  11.078 -0.0580  0.3753  0.0558
 3541W        W19010  17.561  11.882   2.384 -0.3646 -0.3207 -0.0285
 3542W        W19011   5.495   2.278   4.025 -0.0230 -0.2368 -0.4358
 3543W        W19012  12.958  12.115  12.647 -0.0951 -0.0118 -0.0283
 3544W        W19013   1.825  10.739   2.521  0.0184 -0.2912 -0.0642
 3545W        W19014  11.102   2.849  12.095 -0.0045  0.0044 -0.1158
 3546W        W19015  14.433   2.034   4.654 -0.0620  0.0031  0.1930
 3547W        W19016   4.327   5.082   4.906  0.0908 -0.2759  0.0398
 3548W        W19017   3.367   3.927   1.066 -0.1445  0.0419  0.1823
 3549W        W19018   9.807  10.218  13.222 -0.0828 -0.0291 -0.0337
 3550W        W19019  16.068  12.096  15.582 -0.1245  0.0331  0.2015
 3551W        W19020   6.301   0.829  13.506  0.0939 -0.2091 -0.0428
 3552W        W19021  10.231   2.772  12.141  0.2289 -0.2053  0.1990
 3553W        W19022   0.926  13.791   4.751  0.1691 -0.3861 -0.0067
 3554W        W19023   1.260   7.035   1.949 -0.2788  0.0227  0.0414
 3555W        W19024   2.963  14.050  13.891 -0.3065 -0.2504 -0.2201
 3556W        W19025   7.354  17.063   1.639 -0.5857  0.0957  0.1110
 3557W        W19026   1.344   3.427  14.915 -0.4178 -0.0640  0.1556
 3558W        W19027  10.290  13.875  15.255 -0.2188 -0.0858 -0.2203
 3559W        W19028   8.054   7.850  14.342 -0.0732 -0.2042  0.0117
 3560W        W19029   8.106   5.828   3.080 -0.1173 -0.0234 -0.1712
 3561W        W19030   3.261  17.544   1.187  0.1014  0.1442  0.1706
 3562W        W19031   2.514   8.010   2.055 -0.1185  0.1727  0.1097
 3563W        W19032  13.260   2.136  11.131  0.0187  0.0252 -0.0483
 3564W        W19033   1.627   4.365   6.062 -0.0270 -0.3000  0.1395
 3565W        W19034   6.449   1.887   2.535  0.0067 -0.2786  0.1394
 3566W        W19035   5.925   7.964   0.504  0.2367  0.4329 -0.1996
 3567W        W19036  15.981  18.072   4.862  0.0972 -0.0661 -0.1151
 3568W        W19037   4.592  10.200   1.351  0.0382 -0.2773 -0.0021
 3569W        W19038   5.882   3.144  13.977  0.4548  0.0574 -0.3446
 3570W        W19039  12.955   0.906   4.824  0.2294 -0.2880 -0.2441
 3571W        W19040  17.122  17.767   4.396 -0.1371 -0.1843 -0.0775
 3572W        W19041   8.081   6.019   1.571 -0.3843  0.0884  0.0829
 3573W        W19042  14.950   8.826   2.597 -0.2499  0.1373  0.1291
 3574W        W19043   6.431   1.105  11.564 -0.1354 -0.1065  0.0001
 3575W        W19044  14.763  15.265   2.748 -0.0551  0.0028 -0.0432
 3576W        W19045  13.337  14.436   4.873 -0.1863 -0.2762  0.1727
 3577W        W19046  10.882  16.890  14.942 -0.3676  0.1139 -0.1681
 3578W        W19047   9.971  14.899   1.441  0.2060 -0.2875  0.0325
 3579W        W19048   5.702  13.488   2.621  0.1865 -0.0803 -0.0610
 3580W        W19049  15.030  11.452  10.875 -0.0660 -0.1333  0.3112
 3581W        W19050   0.786   1.805  13.142  0.0829  0.2381 -0.3564
 3582W        W19051  14.848  10.114   1.648  0.2959  0.1668  0.0787
 3583W        W19052  12.208   8.640   5.032 -0.0553 -0.2510 -0.0071
 3584W        W19053   7.258  13.599  13.272 -0.2948 -0.0817 -0.0517
 3585W        W19054   2.400   4.072   4.133 -0.0773 -0.0430  0.3055
 3586W        W19055   8.858   8.937  15.087 -0.2493 -0.1253 -0.0997
 3587W        W19056   6.197  16.821  10.485 -0.1543 -0.1719 -0.1116
 3588W        W19057  17.375   4.533   1.633  0.3873  0.4172  0.0623
 3589W        W19058   8.237   2.535  11.366 -0.0131  0.2137 -0.1351
 3590W        W19059  12.056  18.745  15.494  0.0391 -0.4209 -0.2674
 3591W        W19060   5.912  17.835   4.742  0.3993  0.0551 -0.0946
 3592W        W19061  17.855   5.711   2.901  0.2379 -0.0134 -0.2047
 3593W        W19062   0.166   7.787   0.735  0.2156  0.1674  0.0277
 3594W        W19063   3.632  17.011   4.340  0.0355  0.1412  0.2569
 3595W        W19064  11.057  15.668  12.564  0.4734  0.0633 -0.3637
 3596W        W19065   9.367   7.977  10.571 -0.0565  0.0825  0.1607
 3597W        W19066   6.498  13.537   0.908  0.0249 -0.1874 -0.1426
 3598W        W19067   0.258  14.854   4.943 -0.0351 -0.2409  0.0871
 3599W        W19068  13.914   4.620  13.922 -0.4295 -0.0138 -0.1934
 3600W        W19069  14.594   4.649  12.371 -0.0341  0.0368 -0.2171
 3601W        W19070  11.461  15.126  13.550 -0.0336 -0.2463 -0.0375
 3602W        W19071   0.273   2.283   0.122  0.0583  0.0222 -0.3199
 3603W        W19072   0.477   6.921   4.700  0.1897 -0.1573 -0.1101
 3604W        W19073  17.636  11.594   0.351  0.0550  0.0992  0.2143
 3605W        W19074  18.549   9.214   3.809  0.0899  0.0696 -0.0824
 3606W        W19075   1.934   3.807   0.974  0.3366 -0.0605 -0.0832
 3607W        W19076   1.979   3.488   2.351 -0.0660  0.1159 -0.1118
 3608W        W19077  13.184  13.936   4.936 -0.0546 -0.0462  0.0175
 3609W        W19078  17.022   6.683   5.891 -0.3452  0.0288  0.0530
 3610W        W19079   7.856  13.677  12.752 -0.0313 -0.0980  0.1264
 3611W        W19080   0.218   8.465   4.651 -0.2487 -0.0950 -0.0679
 3612W        W19081   9.563   9.755   1.295  0.0029  0.0021 -0.0982
 3613W        W19082  10.094  13.455   1.673 -0.4871 -0.3915  0.0200
 3614W        W19083  11.332  14.332  11.171 -0.2348  0.0350 -0.1345
 3615W        W19084  13.991   4.849   2.517 -0.1176 -0.0116  0.4608
 3616W        W19085  10.938  17.658  13.880 -0.0236 -0.3564 -0.2964
 3617W        W19086   7.876  12.956  11.390 -0.2959 -0.1560  0.0237
 3618W        W19087   8.305   2.760  14.738  0.0799  0.5327 -0.0113
 3619W        W19088  17.145  15.145   2.203 -0.2795 -0.0549  0.1726
 3620W        W19089  15.433   6.475   4.412 -0.0393 -0.3417  0.0019
 3621W        W19090   9.318   6.610   4.995  0.1431 -0.0969  0.1418
 3622W        W19091   9.417  16.380   2.127  0.0462  0.0363 -0.0901
 3623W        W19092  18.111  10.816  13.065 -0.1784 -0.1728 -0.2675
 3624W        W19093  10.340   6.349  12.340 -0.0766 -0.0197  0.0524
 3625W        W19094   2.176   1.430  13.560 -0.2295 -0.1994 -0.2755
 3626W        W19095   2.498   7.453   0.954 -0.0295  0.1050  0.0746
 3627W        W19096  17.242   2.783  11.367  0.1869 -0.5713  0.0550
 3628W        W19097  16.522   2.710  10.441 -0.1423  0.0246  0.0296
 3629W        W19098  15.457  10.152  11.849 -0.1666 -0.1308 -0.0444
 3630W        W19099  12.722  17.895   1.480  0.2002 -0.0125 -0.0784
 3631W        W19100   2.012  10.127   4.303  0.0340  0.3392  0.1303
 3632W        W19101   6.173   6.162  12.691 -0.2722  0.0188  0.1000
 3633W        W19102  16.131   8.319  13.455  0.0331  0.2534  0.0322
 3634W        W19103  10.082  17.205  13.901  0.1690  0.1813  0.0138
 3635W        W19104  14.078   4.665   0.819  0.0738 -0.1857  0.1553
 3636W        W19105  17.755  15.493   2.433 -0.0615 -0.2135 -0.4602
 3637W        W19106  10.385  17.725   5.430 -0.1544 -0.5603  0.1024
 3638W        W19107  15.203  10.397  13.125  0.1693  0.3264 -0.1756
 3639W        W19108  12.558   6.481  10.292  0.0117 -0.2263  0.3763
 3640W        W19109  13.175  11.413   4.851  0.1821 -0.0758  0.0752
 3641W        W19110   2.247   8.275  10.667 -0.3542  0.0525 -0.0110
 3642W        W19111   4.024  11.754   0.767  0.0735  0.0850 -0.0819
 3643W        W19112  10.809   0.659  14.356  0.2321  0.4627  0.1145
 3644W        W19113   4.983  13.422  13.142 -0.3692  0.0062 -0.0391
 3645W        W19114  16.766   3.837  12.680  0.3092 -0.2852 -0.1449
 3646W        W19115  11.380  11.781  11.444 -0.2667 -0.1997 -0.0761
 3647W        W19116  11.846   3.329   4.131 -0.1417  0.3201 -0.2270
 3648W        W19117  16.039   3.755   1.202  0.1927  0.2881  0.0705
 3649W        W19118  11.293  10.417  11.972  0.1183 -0.0322 -0.0107
 3650W        W19119   6.788   3.634  15.068  0.1019 -0.0301 -0.3351
 3651W        W19120  10.447  13.627  11.619  0.0020  0.0396 -0.1401
 3652W        W19121  11.968   4.327  12.309  0.1787  0.0413  0.0455
 3653W        W19122   6.272  12.841  14.403  0.1295 -0.0101  0.0410
 3654W        W19123   7.391   7.834  10.554  0.2276 -0.2997 -0.0742
 3655W        W19124  13.487   8.924   4.240 -0.1059 -0.0653  0.1495
 3656W        W19125  18.119   8.119  15.307  0.1098 -0.1461 -0.2747
 3657W        W19126  10.248  11.705  14.008 -0.0022  0.3898  0.2903
 3658W        W19127   1.692  12.420  12.940  0.0289 -0.0929  0.1763
 3659W        W19128   3.438  14.689   2.533  0.1423 -0.2352  0.3485
 3660W        W19129   1.397   4.350   1.478  0.1413 -0.0497 -0.4190
 3661W        W19130  12.015  15.635   2.362  0.2639 -0.2863  0.3084
 3662W        W19131  14.012   8.531   4.763 -0.1142  0.2083 -0.1556
 3663W        W19132   1.259   2.048   0.503  0.0081 -0.1810  0.3704
 3664W        W19133   7.641  14.095  14.037  0.0097  0.0119  0.1062
 3665W        W19134  11.948   1.108   2.005  0.3115 -0.1052 -0.2437
 3666W        W19135   0.517  13.664   4.338 -0.0221  0.4526 -0.1167
 3667W        W19136  18.767   9.329   0.954 -0.4694  0.3976  0.2661
 3668W        W19137  11.078  11.812  15.470 -0.0154  0.2116 -0.0957
 3669W        W19138   8.316  13.174  14.925  0.2099 -0.1588  0.1694
 3670W        W19139  13.771  12.690  11.844 -0.1052  0.1613  0.0070
 3671W        W19140   3.002  14.493  12.720  0.2640 -0.0883  0.1815
 3672W        W19141   5.047   6.668   0.145  0.1774  0.0012 -0.2590
 3673W        W19142  10.957  10.490   1.720  0.1474  0.0007 -0.3663
 3674W        W19143   0.127  10.065  13.980 -0.0756 -0.0472 -0.4474
 3675W        W19144   7.237  11.843   4.220  0.1359  0.0373  0.1126
 3676W        W19145  15.166  15.102   4.277 -0.5266  0.3270 -0.0042
 3677W        W19146   3.779   1.760  11.857 -0.2560  0.0511  0.1286
 3678W        W19147   7.310   8.722  14.810  0.2890 -0.1709  0.1238
 3679W        W19148   8.685   4.411  13.842 -0.1527  0.0724  0.3430
 3680W        W19149  17.499   4.841   3.156  0.0762  0.0536 -0.2957
 3681W        W19150   6.619   9.311  13.337 -0.3611  0.0856  0.0769
 3682W        W19151   8.272   8.486  13.281 -0.1559  0.3339  0.0463
 3683W        W19152  15.294   9.528  12.383 -0.0035 -0.0688  0.0851
 3684W        W19153  16.817  12.405   5.750  0.1195  0.2546  0.2488
 3685W        W19154   8.951  12.133   0.115  0.0589  0.0819 -0.1975
 3686W        W19155   0.901   6.966  11.788  0.1627  0.0513  0.6812
 3687W        W19156   1.364  18.294   4.170  0.0067  0.2417 -0.1044
 3688W        W19157  14.117  13.049   3.437  0.0391  0.1201 -0.2116
 3689W        W19158  17.349  16.937  13.628  0.1967  0.2227  0.3856
 3690W        W19159  12.488  12.026   2.597 -0.5105  0.0886  0.3033
 3691W        W19160  15.267  17.844   3.135 -0.0695 -0.1471 -0.0321
 3692W        W19161  10.684  10.668   4.280 -0.0586  0.0975  0.0798
 3693W        W19162   1.760  12.495  11.378  0.0570  0.0905  0.4035
 3694W        W19163  11.521   1.691   2.104 -0.1736  0.0314 -0.1361
 3695W        W19164  13.811   3.455   3.402  0.0372  0.0135  0.1870
 3696W        W19165   5.905   6.541   3.875 -0.1439 -0.3742  0.2170
 3697W        W19166   3.417  14.136  14.150  0.5320 -0.1733  0.0759
 3698W        W19167   0.462   8.993   0.695  0.4341  0.1845  0.0048
 3699W        W19168  18.242   0.349  14.998  0.0344  0.0754 -0.0678
 3700W        W19169   3.162  17.188  12.541  0.0354  0.3177 -0.2149
 3701W        W19170   7.802   5.239   4.921  0.1331 -0.1636 -0.1972
 3702W        W19171  12.117   9.360   1.239 -0.3537  0.0108  0.0155
 3703W        W19172   9.390  14.944  15.588 -0.0018  0.0579  0.2511
 3704W        W19173   7.062   3.221   2.705  0.1971  0.0882 -0.0049
 3705W        W19174   6.289   8.847   3.214 -0.0090  0.1902  0.1088
 3706W        W19175   4.402  11.853  14.672  0.0620 -0.0041  0.1233
 3707W        W19176  16.767   9.465   2.732 -0.1181 -0.1526  0.1363
 3708W        W19177  13.579  17.709  12.433 -0.1837  0.1140  0.1318
 3709W        W19178   7.300  13.126   0.233  0.1410 -0.0289 -0.0388
 3710W        W19179   8.588   4.231   4.521 -0.0792  0.0166 -0.0392
 3711W        W19180  16.179  13.717  15.257  0.0020  0.2996  0.1354
 3712W        W19181  11.760   9.355  15.534  0.0659  0.1619  0.1669
 3713W        W19182  15.309  11.060  14.301  0.0445 -0.2461  0.4699
 3714W        W19183   5.338  12.116   4.430 -0.0149 -0.0496 -0.0454
 3715W        W19184   9.605  10.129   2.808 -0.1994  0.0067 -0.2580
 3716W        W19185  11.674   6.138   5.687  0.2415 -0.4676 -0.2511
 3717W        W19186   1.074  18.216   1.765  0.2141  0.1587 -0.2101
 3718W        W19187  16.867  16.026  13.200  0.1399  0.0045 -0.1486
 3719W        W19188   2.240   9.097   0.059  0.0420 -0.2257  0.0316
 3720W        W19189  11.029   4.447   4.829 -0.0436  0.2574 -0.4757
 3721W        W19190  10.070   0.472   9.552 -0.0232  0.3045  0.2914
 3722W        W19191  14.375  13.924  14.132 -0.0845  0.1078  0.2031
 3723W        W19192   5.539  17.678   4.379  0.2102 -0.2755  0.2890
 3724W        W19193   4.858   5.581  13.839  0.1463 -0.2545  0.1340
 3725W        W19194   0.032  16.209  11.189 -0.0678  0.0567 -0.2009
 3726W        W19195   9.518  12.988   5.224 -0.0977  0.2782  0.5700
 3727W        W19196  12.642   8.957   2.256 -0.1517  0.2903  0.2020
 3728W        W19197   2.675   3.085  12.530  0.0157 -0.0204 -0.0580
 3729W        W19198  10.414  15.879  12.062 -0.0726  0.0741  0.4040
 3730W        W19199  10.377  17.051   1.820  0.1271  0.2077  0.2805
 3731W        W19200  16.449   7.591   4.015 -0.0238 -0.1011  0.1568
 3732W        W19201   4.047   9.757   3.915 -0.0416 -0.1056 -0.1332
 3733W        W19202  11.697   1.984   5.516 -0.1910  0.1855 -0.1138
 3734W        W19203   6.532  14.358   2.550  0.0498 -0.0959 -0.0389
 3735W        W19204   0.826   5.714  14.180  0.2957 -0.2116  0.1941
 3736W        W19205  17.661   3.331   1.500 -0.1949  0.0276  0.0525
 3737W        W19206  12.074   3.693  10.164  0.2430 -0.3489 -0.1986
 3738W        W19207   2.468   3.498   4.100 -0.1578 -0.0654 -0.1096
 3739W        W19208  10.068   9.317   0.133 -0.0652 -0.3279  0.5879
 3740W        W19209   9.447   5.491   4.915  0.0163  0.3334 -0.0751
 3741W        W19210   3.490  17.503   2.843 -0.1659 -0.0176  0.1894
 3742W        W19211   9.585   8.564   2.746  0.1398  0.0541  0.2371
 3743W        W19212   3.231  10.090  11.909 -0.2450  0.0604 -0.0301
 3744W        W19213   5.575  11.104  14.080  0.1645 -0.0298 -0.0711
 3745W        W19214   3.339   0.065   0.602  0.2457 -0.2108 -0.1491
 3746W        W19215   0.122  11.498  13.551 -0.4587  0.1278 -0.4290
 3747W        W19216   5.012  18.529   2.623  0.1387 -0.0502 -0.2921
 3748W        W19217   5.676  17.241   1.109 -0.0590  0.2410  0.0621
 3749W        W19218   1.634  17.369  14.699 -0.1845 -0.1033 -0.2011
 3750W        W19219  18.159   5.922  14.409  0.2928  0.1847 -0.1041
 3751W        W19220   3.526   9.369   4.711  0.0827 -0.0124  0.0033
 3752W        W19221   8.515   4.960  10.842 -0.2824  0.1952 -0.2205
 3753W        W19222  14.775   7.283  10.554  0.2423  0.1286 -0.1394
 3754W        W19223  18.153  15.694  11.119  0.1929  0.0086 -0.2719
 3755W        W19224  14.057   7.442   3.131 -0.2423 -0.2430 -0.0865
 3756W        W19225   8.494  16.479  10.573 -0.4123 -0.0908 -0.0124
 3757W        W19226  16.076  14.992   3.368  0.0718  0.0093 -0.2242
 3758W        W19227   8.851  17.862  14.154 -0.1787  0.0188  0.2451
 3759W        W19228   8.548  11.098   4.642 -0.2124 -0.2574  0.1677
 3760W        W19229   4.080  10.179   1.285  0.1557 -0.1764  0.0175
 3761W        W19230  14.581   7.242   0.100  0.0217  0.2907  0.0546
 3762W        W19231  17.038  17.889   2.986 -0.0828 -0.1940  0.3424
 3763W        W19232   7.862  12.961  14.594 -0.0805  0.1368 -0.0331
 3764W        W19233  18.066  17.751   1.601 -0.2120  0.2856 -0.1285
 3765W        W19234   4.090   9.138   4.128  0.2047  0.1033  0.1583
 3766W        W19235   0.037  11.199  11.113 -0.0555 -0.0678  0.0355
 3767W        W19236   6.071  16.181  14.205  0.0975  0.1129  0.0284
 3768W        W19237   3.159  15.784  11.360 -0.1348  0.4620  0.0417
 3769W        W19238   4.310  12.168  12.321  0.1115 -0.3328  0.3711
 3770W        W19239  16.619  17.330  12.037 -0.0314 -0.3251  0.0856
 3771W        W19240   5.760  14.460  10.656 -0.4687 -0.5186  0.2833
 3772W        W19241   0.622   0.230   2.733 -0.1729  0.0442 -0.0973
 3773W        W19242   8.403  12.840   5.727 -0.1343 -0.1744  0.1657
 3774W        W19243  16.958  16.490  11.994 -0.5213  0.4223 -0.4229
 3775W        W19244  15.634   4.999   3.353  0.0925 -0.0270 -0.3029
 3776W        W19245  14.611  17.891   2.033 -0.1184 -0.0476  0.1438
 3777W        W19246   3.040  11.184   0.137  0.2464  0.1233  0.2170
 3778W        W19247  13.350   2.845  13.766  0.0534 -0.0760  0.0527
 3779W        W19248  16.776  14.508   2.816 -0.0156  0.4946  0.0897
 3780W        W19249  11.698  18.503  10.753  0.1930  0.0070 -0.0030
 3781W        W19250   8.047   0.577  11.455 -0.4007  0.0856  0.0006
 3782W        W19251   7.801  13.331  13.099  0.0732 -0.1747  0.0556
 3783W        W19252  14.653   1.883  12.722 -0.1031 -0.0333  0.4880
 3784W        W19253   7.724   4.333  10.948  0.1125  0.2056 -0.0777
 3785W        W19254   5.434   8.512  10.551  0.1350  0.0523 -0.1990
 3786W        W19255   7.789   8.586   0.461  0.0578  0.0935 -0.0617
 3787W        W19256   9.826  11.857  12.805  0.2219 -0.0386  0.0849
 3788W        W19257   3.427  13.417   4.900  0.2032 -0.0275 -0.5615
 3789W        W19258   8.872  14.449   4.401 -0.0557  0.2662 -0.1438
 3790W        W19259   9.023   7.430  13.452 -0.3854  0.1600  0.1465
 3791W        W19260  17.280  16.860  14.810 -0.0617 -0.1048  0.2606
 3792W        W19261  10.434   4.452  13.718  0.0502 -0.1652  0.0540
 3793W        W19262  12.818  10.734  12.496  0.2260 -0.0637  0.0289
 3794W        W19263   7.879  12.197  10.417  0.1790 -0.1027 -0.1716
 3795W        W19264   0.828  12.586  12.365 -0.0406 -0.3114 -0.1333
 3796W        W19265  11.905   5.348  15.414  0.2899 -0.1246 -0.1870
 3797W        W19266  13.903  17.728   2.815 -0.2240 -0.0466 -0.1754
 3798W        W19267   9.661   7.071  14.187 -0.0236  0.0316 -0.4523
 3799W        W19268  10.403  17.015  10.337 -0.2145  0.0834  0.2681
 3800W        W19269   6.488  10.391   0.451  0.1039 -0.0037 -0.0482
 3801W        W19270   4.987   8.007   3.905  0.1199  0.1687  0.0530
 3802W        W19271  14.893  17.805   5.543 -0.1210  0.1325  0.3210
 3803W        W19272   2.680  11.299   1.719  0.0615 -0.0835  0.0102
 3804W        W19273  12.390   3.518   0.984  0.0404  0.0691 -0.0456
 3805W        W19274  13.490   6.420  10.501  0.1252 -0.1140  0.2485
 3806W        W19275   7.020   5.591   0.201 -0.1170 -0.0658  0.1073
 3807W        W19276   8.834  16.519  15.113 -0.1959 -0.1072  0.3071
 3808W        W19277  11.888  15.796   0.051  0.1667  0.2333  0.0669
 3809W        W19278   7.442   9.803  12.394 -0.0508  0.0418 -0.0735
 3810W        W19279  11.113   7.871   4.226 -0.0295 -0.0709  0.0405
 3811W        W19280   0.932  11.279  12.544 -0.2361  0.0887 -0.2791
 3812W        W19281   3.457   4.482  12.575 -0.0099  0.0213 -0.1043
 3813W        W19282  17.942   0.979  12.842 -0.2657  0.3248  0.0400
 3814W        W19283   0.545   2.863   0.487  0.0069  0.0230  0.0361
 3815W        W19284  17.241   1.386  12.058  0.1015  0.0378 -0.0240
 3816W        W19285  14.617  12.881   3.216  0.1240  0.5039  0.0595
 3817W        W19286  16.818   7.254  11.579 -0.2825 -0.0804  0.2754
 3818W        W19287   9.909   8.265   0.023  0.3269 -0.1295 -0.1729
 3819W        W19288   9.899  14.070   0.558 -0.3266  0.2405  0.0884
 3820W        W19289   8.059  11.576  14.629 -0.0105  0.0878 -0.1182
 3821W        W19290   1.502  16.280   5.306  0.2637  0.0018 -0.3749
 3822W        W19291   6.118  17.864  13.459  0.4262  0.0945 -0.2671
 3823W        W19292  16.157   6.545   0.866  0.1449  0.4073 -0.0708
 3824W        W19293   3.944   0.260  15.210  0.1010 -0.2172 -0.0792
 3825W        W19294   3.284  12.956   4.809  0.2233  0.1648  0.1707
 3826W        W19295  13.685   0.817   0.382 -0.1084  0.1778 -0.0637
 3827W        W19296  18.007  18.617   3.808  0.0357 -0.5794  0.3076
 3828W        W19297   0.110   0.013  12.382  0.2588 -0.1379  0.0530
 3829W        W19298   3.543  17.673  11.649  0.1920  0.1652  0.0080
 3830W        W19299   9.703  13.676  14.965 -0.1219  0.1792 -0.1421
 3831W        W19300   6.961  11.729   3.784 -0.1900 -0.0747 -0.0979
 3832W        W19301   6.576   3.582  13.045 -0.1354  0.1221  0.1090
 3833W        W19302   1.662  14.157   4.138 -0.0324 -0.3337 -0.3264
 3834W        W19303   4.813  13.627   9.777 -0.1553 -0.0959 -0.1478
 3835W        W19304  18.507   6.539   3.516  0.1494  0.0507  0.0025
 3836W        W19305  17.018  15.144   1.238  0.0242  0.1975 -0.2431
 3837W        W19306   9.556  11.649   1.923  0.2313 -0.3676 -0.1333
 3838W        W19307  17.049  16.245  14.668 -0.3629  0.2545 -0.0404
 3839W        W19308  17.192  15.656   5.268  0.1772 -0.3720  0.1905
 3840W        W19309   8.316  17.166   2.408  0.0087  0.2471  0.3439
 3841W        W19310  11.929   8.850  15.297 -0.0122 -0.0680  0.1777
 3842W        W19311   9.921   2.578  13.884 -0.0238 -0.0269 -0.1488
 3843W        W19312   8.979   2.756  13.441  0.0198  0.1148  0.4772
 3844W        W19313   8.167  10.160  12.683 -0.1189 -0.0922 -0.3356
 3845W        W19314   9.535  16.717  12.217  0.2402  0.0468 -0.2554
 3846W        W19315  11.812  16.607   0.503  0.1016 -0.3784  0.3745
 3847W        W19316   8.049   7.816  13.528  0.0512 -0.4961 -0.2385
 3848W        W19317  13.351  14.043  14.464 -0.0186 -0.0747  0.0234
 3849W        W19318   4.426   0.611   0.818 -0.4256  0.1435 -0.1049
 3850W        W19319   8.187   2.314   2.587  0.2243 -0.0162 -0.1644
 3851W        W19320  10.595   6.178   5.151  0.2986  0.1284 -0.1214
 3852W        W19321   3.219   3.475   2.025  0.0990 -0.0698 -0.0001
 3853W        W19322   9.041  12.594  13.196  0.3193  0.2723  0.2348
 3854W        W19323   3.628   2.785  12.282 -0.2411 -0.2334 -0.0172
 3855W        W19324  11.340  11.648   4.391 -0.0091  0.1543  0.4276
 3856W        W19325  15.141  11.018   3.232 -0.1026 -0.2785  0.1519
 3857W        W19326   9.240  15.895  11.209  0.4148  0.1407  0.1658
 3858W        W19327  17.541   9.536  13.415 -0.1536  0.0119 -0.2131
 3859W        W19328  15.853  12.876   4.724  0.1250  0.0567  0.0129
 3860W        W19329  14.849   5.710  11.674 -0.2082 -0.1828  0.0632
 3861W        W19330   3.601   3.440  15.012 -0.1744  0.1384  0.1089
 3862W        W19331   6.910  13.748   1.780  0.0524 -0.0611 -0.0089
 3863W        W19332   6.592  10.668   4.386 -0.1970  0.1249  0.0397
 3864W        W19333   8.500   0.097  12.328  0.1803  0.4763  0.1039
 3865W        W19334  12.313   4.589   1.960 -0.2826  0.1201 -0.3307
 3866W        W19335  11.821   1.786  12.507 -0.1042 -0.1795  0.4229
 3867W        W19336   3.901   5.383  10.603 -0.1276 -0.2600  0.0976
 3868W        W19337  12.744  14.537   5.727  0.0026  0.0331  0.0308
 3869W        W19338  13.269   8.238  10.763  0.1237  0.2650  0.0984
 3870W        W19339  18.142  18.006  15.136  0.3400 -0.0135  0.0805
 3871W        W19340  14.471  18.090  14.644 -0.2972 -0.1379  0.0982
 3872W        W19341   0.588  15.882   1.711 -0.2005 -0.0229  0.0164
 3873W        W19342   2.894   4.710  11.130 -0.1550 -0.0037 -0.0049
 3874W        W19343   9.818   6.665   0.954  0.1347 -0.0959  0.1439
 3875W        W19344  11.057   1.367   4.502 -0.2321 -0.0519  0.1825
 3876W        W19345  11.494   6.105  11.449  0.1890 -0.4239 -0.0127
 3877W        W19346   6.151  17.153  15.657 -0.1983 -0.2233  0.1976
 3878W        W19347   3.677  14.330  13.750 -0.4252 -0.0320 -0.2551
 3879W        W19348  13.069   8.217   0.153  0.3348 -0.2897 -0.0621
 3880W        W19349   4.458  12.282  15.571 -0.0744 -0.2650  0.1414
 3881W        W19350   8.546   7.235  14.685  0.4145 -0.0464 -0.1077
 3882W        W19351   0.681   5.319   4.389 -0.2422  0.0313  0.0332
 3883W        W19352   5.113   1.583   0.407 -0.0530 -0.1543  0.1687
 3884W        W19353   0.147  16.207   1.791 -0.1814  0.0829 -0.0821
 3885W        W19354  12.551   6.541  12.727  0.1109 -0.0142 -0.4001
 3886W        W19355  11.558  15.253  12.363  0.0406 -0.1208 -0.1448
 3887W        W19356   5.718   2.146   5.425  0.0679  0.0098  0.0849
 3888W        W19357  13.621  13.140  14.952 -0.0819 -0.1697 -0.0254
 3889W        W19358   7.590   3.715   3.820  0.2203  0.0076  0.0588
 3890W        W19359  17.097   5.974   1.802 -0.4789  0.1618 -0.1064
 3891W        W19360   1.013  14.750   5.170  0.1857 -0.0607  0.0849
 3892W        W19361  17.181  17.658  15.137 -0.2517 -0.0108  0.0355
 3893W        W19362  15.465   2.913  11.553 -0.0412  0.2468  0.2197
 3894W        W19363  10.212   8.186   3.857  0.1705  0.1362  0.0593
 3895W        W19364   7.616  12.781   1.008 -0.1446 -0.0090  0.0210
 3896W        W19365  12.039  15.615  10.783  0.0740  0.1027  0.1674
 3897W        W19366   8.325  14.077  12.961 -0.3186 -0.3460 -0.1422
 3898W        W19367   8.209   5.847  15.428 -0.0530 -0.0734  0.0885
 3899W        W19368  16.107  10.936   4.237  0.2738  0.1551 -0.1651
 3900W        W19369   5.804  15.570   1.169  0.1299  0.0821 -0.0683
 3901W        W19370   0.344  18.646   2.977  0.0864  0.1876  0.1767
 3902W        W19371   0.128   5.240  13.449 -0.2100 -0.1089 -0.1759
 3903W        W19372  13.894   9.389   4.910 -0.1081  0.1928 -0.2471
 3904W        W19373  18.016   5.837  11.426 -0.0023 -0.3489  0.2365
 3905W        W19374  12.759  10.289   4.626  0.2888  0.0092 -0.1257
 3906W        W19375  15.662   5.658   3.122  0.1567  0.1799 -0.2267
 3907W        W19376  17.154   6.975  10.839  0.0208  0.4326 -0.0970
 3908W        W19377  12.668   0.222   5.340  0.2580  0.0057 -0.1608
 3909W        W19378  13.642   5.453  11.435 -0.3772  0.0944 -0.2637
 3910W        W19379   7.754   5.048   4.161  0.0683  0.1856 -0.1342
 3911W        W19380   6.025   3.333   1.609  0.0491  0.0645  0.0347
 3912W        W19381   8.363   9.219   3.903  0.2748 -0.2483  0.1265
 3913W        W19382   9.631   0.118   1.866 -0.1975  0.0212  0.2238
 3914W        W19383  11.518   5.457  15.076 -0.1109  0.1531  0.0311
 3915W        W19384  14.924   7.637  11.383  0.3883 -0.2916  0.1257
 3916W        W19385  13.370   6.940  11.271 -0.4073 -0.2274 -0.2559
 3917W        W19386   9.918   8.922  15.020  0.2389  0.1443 -0.0523
 3918W        W19387   9.177   9.440   2.269  0.2550  0.0082  0.0231
 3919W        W19388  18.185   2.198   1.449 -0.1471  0.0064 -0.0374
 3920W        W19389  12.439   6.757  14.665 -0.1017 -0.1088  0.0416
 3921W        W19390  10.114  13.689  12.994 -0.2497 -0.0750  0.0116
 3922W        W19391   1.512  10.271   5.014 -0.2166 -0.0423 -0.2230
 3923W        W19392   3.162  12.553   1.731 -0.0460 -0.3288  0.3522
 3924W        W19393  12.182   2.751   2.072 -0.2648  0.1257 -0.0223
 3925W        W19394   4.059   2.590   5.404 -0.1906  0.1240 -0.2585
 3926W        W19395  17.392  11.223  10.332  0.5810  0.1036 -0.2699
 3927W        W19396   4.750   8.550   0.285 -0.1405  0.1372 -0.0836
 3928W        W19397   2.703  17.005   3.178  0.0204 -0.2104 -0.1858
 3929W        W19398   1.677   3.867   2.439 -0.1783  0.0185  0.2766
 3930W        W19399   4.737  13.193  10.590  0.0715 -0.1118 -0.1190
 3931W        W19400   2.047   4.499   4.962  0.0371 -0.2573  0.0680
 3932W        W19401  10.781   1.743  13.426  0.1195 -0.1922 -0.1350
 3933W        W19402   8.848   3.802   5.434  0.0639  0.0196 -0.0172
 3934W        W19403   8.928   6.811  13.121  0.1111 -0.0105  0.2787
 3935W        W19404   1.367   7.903  10.620  0.1970  0.0443 -0.1242
 3936W        W19405  11.916  15.102  12.056 -0.0447  0.0817  0.1116
 3937W        W19406   7.053   0.071   2.353 -0.2793  0.1251  0.3802
 3938W        W19407   1.218   0.762  10.729 -0.1726 -0.4705  0.1849
 3939W        W19408   4.975  16.843  15.648  0.1382  0.1531 -0.2851
 3940W        W19409   4.171  18.622  14.153 -0.3700  0.1960  0.1633
 3941W        W19410  12.085   5.022   1.691  0.1583 -0.1661 -0.3933
 3942W        W19411   6.249  12.892  15.141  0.2293 -0.0123 -0.1117
 3943W        W19412  18.021   1.949   2.856  0.2299  0.0157  0.0105
 3944W        W19413  16.037   7.975  10.382  0.0878 -0.0683 -0.2603
 3945W        W19414  11.792  10.581  13.232  0.0205  0.2817  0.2370
 3946W        W19415   6.558   7.257   1.809 -0.0804 -0.0514  0.2690
 3947W        W19416   3.119  16.768  14.287 -0.0623 -0.0246  0.0846
 3948W        W19417  14.415  18.746  14.198  0.4440  0.1792 -0.0241
 3949W        W19418   6.698   7.094  10.663  0.2994  0.2083 -0.0666
 3950W        W19419   3.650  18.553   4.348  0.2496 -0.2689  0.3359
 3951W        W19420   5.251   6.031  12.495  0.0656  0.0254 -0.1714
 3952W        W19421  13.875   3.280   2.125 -0.1138 -0.0994  0.3481
 3953W        W19422  14.098  12.377  12.203  0.0459  0.1669 -0.1070
 3954W        W19423  12.669   1.098  12.866  0.0979 -0.1531 -0.2919
 3955W        W19424  15.252   2.404   3.606  0.0827 -0.1830  0.1267
 3956W        W19425   8.087  11.839   1.393 -0.0668  0.0779 -0.2069
 3957W        W19426   4.058   3.936   0.408  0.1327  0.3100  0.3040
 3958W        W19427  12.980  11.608   3.296 -0.0992 -0.0507 -0.0402
 3959W        W19428   6.230   3.399   4.160  0.1600  0.1553  0.2023
 3960W        W19429   3.026   2.004   3.176  0.4338 -0.5438  0.1420
 3961W        W19430   6.477   9.118   4.012 -0.1044  0.4072  0.1597
 3962W        W19431   6.779  13.404   2.089 -0.0022  0.2140  0.0974
 3963W        W19432   6.340  12.134  14.850  0.1094  0.0391 -0.0523
 3964W        W19433  11.731   7.762   4.923  0.0413  0.2334 -0.0037
 3965W        W19434  16.692   6.746   0.802 -0.0875 -0.1773 -0.2095
 3966W        W19435   9.048   9.585   3.155  0.1528  0.1135 -0.3581
 3967W        W19436  18.015  15.294  11.809  0.2598  0.0737 -0.2596
 3968W        W19437  15.901   6.609   3.628 -0.1912 -0.1095 -0.0159
 3969W        W19438   8.172   4.487  15.458  0.2602  0.1607 -0.2154
 3970W        W19439   1.273   1.412  14.242  0.3447  0.2073 -0.0135
 3971W        W19440   4.653  17.980   0.579 -0.2479  0.1384 -0.0466
 3972W        W19441   2.347   9.720  13.183  0.1231 -0.1543  0.1619
 3973W        W19442   3.893   4.731  12.497  0.1180  0.1259  0.1225
 3974W        W19443   7.855   9.678  12.886 -0.0519 -0.3178 -0.1207
 3975W        W19444  14.580   1.055  14.248 -0.1532 -0.0470 -0.0753
 3976W        W19445   6.107   8.387   3.014 -0.1250  0.1905 -0.0890
 3977W        W19446   5.686   4.878   4.643 -0.0334 -0.2341 -0.2618
 3978W        W19447  12.880   1.273   0.796 -0.2700  0.0974 -0.1851
 3979W        W19448   8.843   5.939  12.646  0.0902 -0.1906 -0.1664
 3980W        W19449  13.929   5.936  11.250 -0.2338  0.1210  0.2868
 3981W        W19450   5.140  12.723   2.200  0.0964  0.2256  0.1188
 3982W        W19451   9.508  17.440  10.555 -0.1508 -0.1253 -0.0505
 3983W        W19452  13.535  17.342  11.452 -0.0044  0.0695  0.0926
 3984W        W19453  14.573  14.926   5.302 -0.4109 -0.0280 -0.1990
 3985W        W19454  18.566   0.874  12.672  0.0094  0.0581  0.1088
 3986W        W19455  11.325   3.640  12.402 -0.1352 -0.0026  0.2524
 3987W        W19456   5.606   7.086   2.097 -0.2254 -0.1601  0.1337
 3988W        W19457  14.386  15.975   3.373  0.3453 -0.0811 -0.4075
 3989W        W19458   9.916   1.884   3.327  0.2736 -0.2636  0.0993
 3990W        W19459   7.069   6.456   2.443  0.1291  0.1614 -0.1189
 3991W        W19460  18.486  18.011  15.648  0.2422 -0.3489 -0.2227
 3992W        W19461  17.391  11.782  13.408 -0.1498  0.0081 -0.1775
 3993W        W19462  15.714  17.831  14.470  0.0219 -0.2145  0.2769
 3994W        W19463   6.621   9.255   0.415 -0.2386  0.2227 -0.3306
 3995W        W19464   0.906   9.811   2.481  0.0933 -0.0626  0.2488
 3996W        W19465   2.927   9.886  13.194 -0.1287  0.2467  0.0313
 3997W        W19466   4.089  13.311   1.044 -0.1374  0.1730 -0.2154
 3998W        W19467  14.545  14.467   5.142 -0.0457  0.0860  0.2438
 3999W        W19468   6.108  11.283   3.783 -0.1757 -0.2235 -0.0080
 4000W        W19469   5.418   9.630   3.545 -0.2022 -0.0677 -0.2828
 4001W        W19470  17.344   5.310  12.760  0.0458 -0.1826 -0.0238
 4002W        W19471   2.269   0.912   5.320 -0.1110 -0.4690  0.1025
 4003W        W19472   5.696   9.668  14.241  0.0950  0.0773  0.1069
 4004W        W19473  17.498   7.832   1.248  0.0737  0.1768 -0.0399
 4005W        W19474  10.616   1.391  13.806  0.0136  0.1887 -0.2407
 4006W        W19475   4.097  11.097   1.418  0.1216 -0.4390  0.0201
 4007W        W19476   6.914  16.857  10.812  0.1647 -0.1877  0.0731
 4008W        W19477  17.770  16.451   5.600  0.1833  0.4560  0.0237
 4009W        W19478  12.678   3.868   5.458  0.1310 -0.1522 -0.0163
 4010W        W19479   3.917  15.973   1.782  0.0278 -0.2545  0.1722
 4011W        W19480  18.104  17.079   3.642  0.0656 -0.0115 -0.3129
 4012W        W19481   1.125   2.592  10.809 -0.1196  0.1814  0.0186
 4013W        W19482   8.281   5.460   5.180 -0.3025 -0.1421 -0.1590
 4014W        W19483  15.474   6.561  12.852 -0.0495 -0.0771 -0.0104
 4015W        W19484   6.634   8.394  13.043  0.0692 -0.2453  0.0590
 4016W        W19485   4.208   5.525   3.762  0.1357 -0.1650 -0.0472
 4017W        W19486  13.685   8.006  11.006 -0.0048  0.0826 -0.4287
 4018W        W19487  11.708   1.434  13.301 -0.1668  0.0293 -0.1259
 4019W        W19488  12.378  10.363  15.669  0.1899 -0.1130  0.1357
 4020W        W19489  15.708   4.821  10.933  0.0216 -0.1375  0.0808
 4021W        W19490  14.025  11.322   5.215 -0.1634  0.0705  0.0463
 4022W        W19491  14.840   5.159   5.928 -0.4224 -0.0754 -0.2094
 4023W        W19492   2.691   8.079  12.728 -0.1962 -0.3486 -0.0131
 4024W        W19493   0.007  17.301  12.656 -0.0144 -0.3293  0.2369
 4025W        W19494  11.387  16.129  13.927 -0.0806  0.2719  0.0673
 4026W        W19495   8.043   6.332  10.771  0.0192  0.2920 -0.2954
 4027W        W19496   0.911  16.665   4.996 -0.0501  0.1847 -0.1333
 4028W        W19497  11.803   5.215  12.629 -0.0893  0.1750  0.3134
 4029W        W19498   7.163   3.583   3.429 -0.1508 -0.0066  0.0943
 4030W        W19499  12.251   0.650   3.008 -0.1371 -0.0018 -0.3435
 4031W        W19500   5.269  12.307   2.527 -0.2061  0.2701 -0.0962
 4032W        W19501  16.020   3.788   4.793  0.0423 -0.0400 -0.2105
 4033W        W19502   8.742  15.375   2.220 -0.1991  0.0694 -0.2790
 4034W        W19503   5.826  12.511  12.617  0.3990  0.3130  0.1843
 4035W        W19504   6.989  16.590  10.318  0.0123  0.1620 -0.1352
 4036W        W19505   1.588  16.495   4.193 -0.2757  0.1372 -0.1829
 4037W        W19506   4.376   3.025  11.542  0.2595  0.0990 -0.1649
 4038W        W19507   1.225   0.687  11.778  0.2222 -0.2845  0.0198
 4039W        W19508   2.783  10.403   2.401 -0.0050  0.3811  0.2478
 4040W        W19509  16.901  11.014   5.307 -0.0942  0.0539  0.0989
 4041W        W19510  18.499  16.294  15.062 -0.0404  0.2038 -0.1381
 4042W        W19511  10.700   4.909   3.610  0.2513 -0.0506  0.0021
 4043W        W19512  15.677   3.079  12.728  0.0987  0.1692  0.0132
 4044W        W19513   9.296  11.815  10.991  0.2631  0.2497  0.1270
 4045W        W19514  14.042   8.641   2.324 -0.2725 -0.1190  0.1249
 4046W        W19515   1.485   4.026   0.909  0.1109  0.2683  0.2881
 4047W        W19516  11.390   5.059   3.509  0.1782 -0.0184  0.0804
 4048W        W19517  18.723  14.299  14.667 -0.1620  0.3707 -0.3516
 4049W        W19518  13.664   2.651  10.993  0.0201 -0.1566  0.0137
 4050W        W19519   8.689   2.311  15.485  0.3013  0.1188  0.0429
 4051W        W19520   2.950   6.241  13.207  0.0050  0.0589  0.3025
 4052W        W19521   5.486   8.083  14.984  0.0842 -0.1613 -0.3190
 4053W        W19522  15.298  18.060  13.678 -0.1733 -0.3755  0.2572
 4054W        W19523   6.474   0.681   0.530 -0.1297 -0.2167 -0.0492
 4055W        W19524   7.094  17.045  14.705 -0.1057 -0.0059  0.0243
 4056W        W19525   4.595  18.690   2.927 -0.1121  0.2095 -0.1495
 4057W        W19526  17.297  16.076   3.334  0.2247 -0.1384 -0.0541
 4058W        W19527   4.699   6.009  13.534 -0.2206  0.3891  0.0650
 4059W        W19528   8.317  12.763  11.293  0.2698 -0.1762  0.0140
 4060W        W19529   4.408  14.086   4.888  0.5285 -0.2907 -0.2262
 4061W        W19530   3.379   8.449  15.478 -0.0615  0.0312 -0.1649
 4062W        W19531  17.275  13.949  12.774 -0.0872  0.2048  0.0590
 4063W        W19532   8.353   0.405   4.895 -0.0956 -0.2817 -0.0260
 4064W        W19533  15.430   6.819  11.385 -0.2033  0.0136  0.2224
 4065W        W19534   7.867   4.798   0.663  0.0457 -0.1390  0.0850
 4066W        W19535   4.851   0.251  14.779  0.1070 -0.1674  0.2140
 4067W        W19536   0.855   0.918   4.074  0.1801  0.2135 -0.4864
 4068W        W19537   1.927   8.169   2.930  0.2639 -0.0387  0.3805
 4069W        W19538  10.542   4.963  13.479  0.1547 -0.1838 -0.1341
 4070W        W19539  17.221  15.333   1.676  0.2414  0.0212  0.0994
 4071W        W19540   1.001   0.749   0.448 -0.0622  0.2174  0.0003
 4072W        W19541  13.687   9.672   5.365  0.2695 -0.0419 -0.3516
 4073W        W19542  10.012   5.986  11.369  0.1335  0.0160  0.0063
 4074W        W19543   5.473   9.598  15.421  0.0418  0.1050 -0.0345
 4075W        W19544   5.057  15.945   3.019  0.2041  0.4248  0.6223
 4076W        W19545  14.006   0.109  10.818 -0.2299  0.0131 -0.0248
 4077W        W19546  11.260  13.053   3.476 -0.1693 -0.4597 -0.1272
 4078W        W19547  14.768   7.850  14.613  0.1115  0.0740 -0.0139
 4079W        W19548  16.160   0.300   5.803  0.0058  0.1017  0.1044
 4080W        W19549   2.257  13.596   0.269 -0.3222 -0.1035  0.2138
 4081W        W19550   9.243  10.578   1.335  0.0375  0.0171  0.0755
 4082W        W19551  17.068   9.773   3.883 -0.0023 -0.1453  0.0917
 4083W        W19552  16.216   3.127   1.831  0.0247 -0.0439  0.0829
 4084W        W19553   3.587  11.662   2.181  0.1430 -0.2174 -0.3124
 4085W        W19554   8.480   0.488  12.854  0.5296  0.3153 -0.3514
 4086W        W19555  12.522   1.291   2.401  0.1339  0.5450  0.0545
 4087W        W19556   8.380   4.111   1.960 -0.1274 -0.2914 -0.0692
 4088W        W19557  14.741   6.392   2.455 -0.0136 -0.1174 -0.1755
 4089W        W19558  15.615   0.668  14.364  0.1845 -0.3183 -0.2349
 4090W        W19559  10.266  17.523   1.806  0.1618 -0.3245  0.1479
 4091W        W19560  11.718  15.211   2.674  0.0093 -0.0810 -0.0427
 4092W        W19561   8.861  15.856   3.745 -0.3228  0.1001  0.0340
 4093W        W19562  11.287  10.659  13.470  0.1897  0.0487 -0.2076
 4094W        W19563   4.550  10.819   3.926 -0.3514 -0.0159 -0.1138
 4095W        W19564  15.555  11.721   2.604  0.2348  0.4162 -0.1562
 4096W        W19565  16.818  17.954  13.537 -0.0138  0.0569  0.2649
 4097W        W19566   8.920  18.729  14.402 -0.1881  0.0303 -0.0226
 4098W        W19567  16.738   3.979   3.050 -0.1597 -0.1515 -0.2122
 4099W        W19568  13.789   3.114  13.120 -0.0352  0.0943  0.1212
 4100W        W19569  16.852   2.537  11.513 -0.1160  0.3610  0.1405
 4101W        W19570   0.825   9.473  10.843  0.0942  0.0120  0.1581
 4102W        W19571  12.326   5.739   3.751 -0.3285  0.0092  0.0988
 4103W        W19572   6.549  17.766  13.119  0.0284  0.1665 -0.2115
 4104W        W19573   3.251   4.768   2.816 -0.1472 -0.2610  0.1727
 4105W        W19574   3.378  14.441  10.975 -0.0918  0.3122 -0.0875
 4106W        W19575  14.661  14.697  15.527 -0.1787 -0.2241  0.1780
 4107W        W19576  16.993   9.000   1.584  0.2264 -0.0183 -0.1075
 4108W        W19577   4.284   8.251  13.354 -0.2584 -0.0127  0.0607
 4109W        W19578   1.013  14.772  15.492  0.1130  0.0814  0.0981
 4110W        W19579   2.275  11.267   3.488  0.4901  0.4576 -0.0832
 4111W        W19580  15.514  12.971  12.486  0.0191 -0.0134 -0.2140
 4112W        W19581  18.024   0.617   3.269 -0.1805  0.1959 -0.2370
 4113W        W19582   5.572   3.114  11.334 -0.1055 -0.1367 -0.2288
 4114W        W19583  18.481  12.899   2.185  0.0885 -0.2613  0.1704
 4115W        W19584   7.156  17.830   2.781  0.0679 -0.0346 -0.1459
 4116W        W19585   6.635  14.283   0.241  0.1551  0.2127  0.1682
 4117W        W19586   1.329  15.986  10.766  0.1778 -0.0421  0.1492
 4118W        W19587   1.050   9.488   4.305 -0.1683  0.2501 -0.0002
 4119W        W19588   3.289  18.186   4.440 -0.3125 -0.0235  0.0685
 4120W        W19589   1.447   5.661  11.524  0.0638  0.3943  0.1722
 4121W        W19590  15.006   9.907   3.697 -0.3142  0.2015 -0.1811
 4122W        W19591  13.017  12.300   5.539 -0.0198 -0.0337  0.0350
 4123W        W19592  12.137   2.255  11.704  0.0784 -0.0564 -0.5086
 4124W        W19593  14.291  14.429  15.018  0.1973 -0.0143  0.0338
 4125W        W19594   3.699   9.826  15.566 -0.2885 -0.1200 -0.1052
 4126W        W19595   2.315   4.445   5.362  0.0308  0.1201  0.2623
 4127W        W19596   2.010  10.391   1.212  0.1028  0.0016  0.2468
 4128W        W19597   2.654   5.204  11.177  0.1466  0.0245 -0.0429
 4129W        W19598   2.573   0.739  14.887  0.1480 -0.0595  0.3363
 4130W        W19599  17.446   0.718   3.087 -0.0203  0.0486  0.1360
 4131W        W19600   7.290   6.094   4.402 -0.2316  0.0823  0.4082
 4132W        W19601   7.443   5.568  14.101 -0.0423  0.0233 -0.0470
 4133W        W19602   2.010   1.409   4.226  0.0539 -0.2470  0.1211
 4134W        W19603  11.841  15.469   3.788 -0.0137 -0.2524 -0.0367
 4135W        W19604  10.257  10.093  15.281  0.0625 -0.0546 -0.1016
 4136W        W19605  12.030   9.051   0.885  0.1555 -0.1776 -0.2277
 4137W        W19606   1.980  14.802  13.704  0.1785 -0.2150  0.0897
 4138W        W19607  14.971  12.608  12.087 -0.0039 -0.1418  0.0583
 4139W        W19608   0.379  18.527   3.492  0.3255 -0.1414  0.1768
 4140W        W19609   6.179   7.387   5.190  0.2041 -0.5230 -0.1826
 4141W        W19610  14.205  18.557   2.466 -0.3705  0.0268  0.4540
 4142W        W19611   9.614   0.475  13.444  0.0553 -0.1525 -0.0777
 4143W        W19612   2.989   4.093  14.670 -0.3246 -0.2690  0.1828
 4144W        W19613   8.806  16.344   4.342 -0.0958 -0.2839 -0.1429
 4145W        W19614  17.535  17.501   5.382 -0.1245  0.0810  0.0371
 4146W        W19615   9.177   3.649   0.290  0.2740 -0.2717 -0.2703
 4147W        W19616   8.860  13.460   4.689 -0.1071  0.2937 -0.1883
 4148W        W19617   2.221  12.555  12.252 -0.1357  0.0811  0.5760
 4149W        W19618   1.898   6.760   2.560  0.2642 -0.3539 -0.1804
 4150W        W19619  17.811  11.683  13.689 -0.0620  0.0653 -0.3112
 4151W        W19620   2.921   5.420   0.824 -0.3479 -0.1656  0.4334
 4152W        W19621  11.630   8.033   0.023 -0.1178 -0.1333 -0.0240
 4153W        W19622  17.510   0.274  11.439  0.2272 -0.0038  0.0338
 4154W        W19623  15.872   0.811  13.918  0.0092 -0.3612  0.2710
 4155W        W19624   0.148   3.521  13.654  0.2886 -0.2008  0.0357
 4156W        W19625  13.421  16.389  12.528  0.1188  0.0669 -0.0436
 4157W        W19626   4.609   8.768  14.962  0.0330 -0.2458 -0.3876
 4158W        W19627   5.922  11.339   2.230 -0.4956 -0.0402  0.2682
 4159W        W19628  14.866  12.594  13.358 -0.0144  0.1060  0.1758
 4160W        W19629  11.743  12.601  13.392 -0.1511 -0.0459 -0.0256
 4161W        W19630   7.774  13.380  14.897  0.2225 -0.0259  0.2858
 4162W        W19631   3.395  11.661  12.268 -0.4020  0.1463 -0.1406
 4163W        W19632   0.831  10.774   2.535 -0.1814 -0.1152 -0.0797
 4164W        W19633   4.753   7.688  12.889  0.3921 -0.2187 -0.0314
 4165W        W19634  10.139  12.674  10.976 -0.0209  0.2398 -0.3927
 4166W        W19635  18.477  14.821  13.245  0.1409 -0.4832  0.1415
 4167W        W19636  10.979   1.821  15.343 -0.0775 -0.1470 -0.1409
 4168W        W19637  12.196   0.703   1.752  0.3058 -0.0439  0.0169
 4169W        W19638   2.544   0.583  12.288 -0.1354  0.0133  0.0887
 4170W        W19639   8.826   1.635   2.290 -0.0774 -0.1250  0.0073
 4171W        W19640   2.981   9.769   0.172  0.2832  0.2702  0.2130
 4172W        W19641  13.528   9.754  13.956  0.4213  0.0166 -0.1641
 4173W        W19642  18.258  13.339   3.443 -0.0740 -0.0307  0.0333
 4174W        W19643  18.229   6.419  13.496  0.0263  0.1075  0.2318
 4175W        W19644  15.277   4.088  13.668  0.1733  0.0098  0.1042
 4176W        W19645   1.493  15.501  10.860 -0.0814 -0.0014  0.0632
 4177W        W19646   3.820   7.325   3.506  0.1677 -0.1466  0.1920
 4178W        W19647  17.320   8.975  10.430 -0.1912 -0.0452 -0.2970
 4179W        W19648   8.088  11.987  10.870 -0.2621  0.2633 -0.0023
 4180W        W19649   4.158  17.312   0.201 -0.0968  0.2265 -0.0024
 4181W        W19650  10.366  11.624  11.748  0.2024  0.0194 -0.0629
 4182W        W19651  16.594   1.995  14.235 -0.1354  0.0324  0.3348
 4183W        W19652   0.025   1.474  15.528  0.1388 -0.0213  0.3749
 4184W        W19653  10.680  12.987  12.446  0.0656 -0.0270  0.1804
 4185W        W19654   5.352  17.984  14.245  0.3246 -0.0749 -0.1008
 4186W        W19655   0.512  15.505   2.397 -0.0250  0.0086  0.1900
 4187W        W19656   6.186   5.778  14.822  0.1115  0.0215  0.1227
 4188W        W19657   5.639  15.917  10.746  0.2644  0.1092  0.2532
 4189W        W19658   9.812  14.981  13.720 -0.1510  0.0649 -0.2601
 4190W        W19659  11.474   3.212   0.641  0.1548 -0.0220  0.0193
 4191W        W19660   2.780   3.036  11.778  0.0456 -0.3268 -0.1083
 4192W        W19661  16.932   0.656   0.346 -0.2032 -0.0288 -0.0352
 4193W        W19662  14.164  16.275  10.225  0.5417 -0.0535 -0.3453
 4194W        W19663   7.117   8.909   2.952 -0.1079 -0.0449  0.2175
 4195W        W19664   2.744   2.087  15.187 -0.0899 -0.0258  0.3867
 4196W        W19665   6.711  15.712  14.279  0.1012 -0.2050  0.1882
 4197W        W19666   6.321   4.789   4.134  0.1989  0.2982  0.1533
 4198W        W19667  15.589  15.478   1.254 -0.0898  0.3197  0.0965
 4199W        W19668   2.168   2.926   4.826  0.2209 -0.0636 -0.2101
 4200W        W19669   7.562  17.942   3.808  0.1879  0.0623  0.0622
 4201W        W19670   8.349  18.139   3.457  0.0185  0.0850  0.6432
 4202W        W19671   3.596   5.582  12.973 -0.2547 -0.1991  0.0903
 4203W        W19672  13.803  15.134  10.874  0.1485  0.0187  0.0631
 4204W        W19673  14.299  15.686  14.182 -0.0481 -0.0550 -0.2176
 4205W        W19674  17.783  12.355  13.846 -0.0805  0.3658 -0.1923
 4206W        W19675   1.000  11.796  15.581  0.1056 -0.1440 -0.1196
 4207W        W19676  12.689  17.266  14.442  0.1353  0.2337  0.2236
 4208W        W19677  12.409   5.686  15.184  0.0674  0.1433  0.3532
 4209W        W19678   8.544  16.694  15.430 -0.0633  0.1756  0.4043
 4210W        W19679   1.248  15.012  12.443 -0.0220 -0.0498 -0.0455
 4211W        W19680  13.241   5.975   4.609 -0.0888 -0.0624 -0.3073
 4212W        W19681   7.673   6.854  13.689  0.0946 -0.0764 -0.0567
 4213W        W19682  14.955   4.226  11.055  0.2311 -0.1474  0.0171
 4214W        W19683  17.160   3.017   1.239 -0.0434 -0.0678 -0.1641
 4215W        W19684   9.021  12.418   1.028 -0.0075 -0.3817 -0.1600
 4216W        W19685  12.575   9.363   4.692 -0.0879 -0.2058  0.1344
 4217W        W19686  16.274   0.299   3.200  0.0651 -0.1729 -0.1739
 4218W        W19687   2.428   4.927   2.975 -0.2641  0.0931  0.2752
 4219W        W19688  12.697   7.040   2.299  0.0417 -0.1247 -0.0303
 4220W        W19689  16.738   4.561  11.798  0.0790 -0.2345  0.0843
 4221W        W19690   2.377   9.720  11.505  0.1186 -0.1195 -0.0892
 4222W        W19691   2.986  14.038  11.062  0.0408 -0.2075 -0.1876
 4223W        W19692  17.400   6.681  11.134 -0.0898  0.1344 -0.1101
 4224W        W19693  14.916   1.647   4.148 -0.2176  0.0656 -0.1807
 4225W        W19694  15.720   8.799   5.336 -0.1225 -0.1058 -0.3271
 4226W        W19695  16.625   1.289  11.417  0.0354 -0.2650  0.1845
 4227W        W19696  17.528   8.877  13.159 -0.2456 -0.1604  0.2317
 4228W        W19697   8.697   3.213   1.755 -0.2224  0.1214 -0.0261
 4229W        W19698   2.131   8.722  15.363 -0.3657 -0.3342  0.0799
 4230W        W19699   8.561  15.170   1.123 -0.1547  0.3233  0.2482
 4231W        W19700   3.917  13.335  12.411  0.0579 -0.1318  0.2277
 4232W        W19701   9.447   0.045   5.003  0.0144  0.0041  0.4375
 4233W        W19702   2.950   3.796   0.775  0.2608  0.0340 -0.1708
 4234W        W19703   7.161  13.112  14.910  0.3665  0.2526  0.1250
 4235W        W19704  12.216   0.093  12.338 -0.1057 -0.0338 -0.0119
 4236W        W19705   9.950  13.616  15.479 -0.0437 -0.0098 -0.1039
 4237W        W19706  14.033   2.087  14.120  0.1012 -0.2011 -0.2692
 4238W        W19707   1.433  10.123  14.150  0.1179 -0.3874 -0.1478
 4239W        W19708  10.737   3.198  14.195  0.0442 -0.0871  0.0289
 4240W        W19709  13.026  13.466  11.454  0.0115  0.4161 -0.0719
 4241W        W19710   7.639   4.058   0.090  0.1625  0.0247  0.3078
 4242W        W19711  16.047   2.763  10.535 -0.2162 -0.2194 -0.1770
 4243W        W19712   6.608  18.367  12.567 -0.0611  0.0071  0.0222
 4244W        W19713   4.236   4.911  11.601  0.1245 -0.2622  0.2609
 4245W        W19714  12.625   8.441   3.116 -0.0143  0.0754  0.3001
 4246W        W19715  17.163   4.823   0.239  0.0741  0.0455 -0.2051
 4247W        W19716  14.282  13.028   0.575 -0.4006 -0.2988  0.1862
 4248W        W19717   0.395  17.035  12.517 -0.1517  0.3194  0.1978
 4249W        W19718  12.571   0.435   9.910 -0.2383  0.0894 -0.1468
 4250W        W19719  10.211   7.947   4.838 -0.0539 -0.2542  0.1681
 4251W        W19720   9.144  17.393   5.495  0.2298 -0.2140 -0.3136
 4252W        W19721   6.018   9.425   1.499 -0.1978  0.0681  0.2078
 4253W        W19722  10.855  18.220   3.110  0.3286  0.1128 -0.0446
 4254W        W19723  11.668  12.993   0.333  0.0606 -0.0696  0.3611
 4255W        W19724  14.358   5.605   3.421  0.1669  0.0937  0.0531
 4256W        W19725   8.881  13.905   0.545  0.1466 -0.1600  0.2230
 4257W        W19726  12.067   5.548  12.964 -0.0143  0.0157 -0.0706
 4258W        W19727   5.166  13.682  10.881 -0.2124  0.0858 -0.2310
 4259W        W19728   3.301   5.748   2.108  0.0451 -0.1503 -0.0223
 4260W        W19729   4.874  14.482  14.724  0.1134 -0.0975  0.2318
 4261W        W19730   8.191   6.023   5.964  0.2965  0.0998  0.1195
 4262W        W19731   0.320   0.473   1.183  0.0747 -0.3236 -0.3894
 4263W        W19732   6.271   6.836  10.731  0.1115  0.2019  0.0704
 4264W        W19733  11.772  13.965  15.144  0.2176  0.0526 -0.0159
 4265W        W19734  14.856   5.798   3.416  0.3037  0.1292  0.0595
 4266W        W19735  10.706  10.608   0.218  0.2097  0.0101 -0.2733
 4267W        W19736  16.515   3.781   3.459  0.3384 -0.0629 -0.1049
 4268W        W19737   6.703  14.712  14.269 -0.0412 -0.2401  0.1967
 4269W        W19738   7.017  11.811  13.511  0.0726 -0.1953  0.0222
 4270W        W19739   5.737  11.950  12.787  0.1193 -0.4287 -0.1467
 4271W        W19740  14.943  11.433   0.608  0.1459  0.0500  0.0873
 4272W        W19741  15.180  14.242  13.054  0.0984 -0.3182 -0.1008
 4273W        W19742  17.129   7.227   2.858  0.0436 -0.1085 -0.2752
 4274W        W19743  18.228  10.111  13.107 -0.0503 -0.0098 -0.2474
 4275W        W19744   1.098   2.425  12.490 -0.1839 -0.0604 -0.0655
 4276W        W19745  12.350   6.044  10.498 -0.0340 -0.1504 -0.2362
 4277W        W19746  13.281   9.577   0.861  0.2062 -0.3255 -0.0440
 4278W        W19747   1.145   8.194  12.675 -0.3699  0.0649 -0.2798
 4279W        W19748   7.157  15.104   2.832 -0.0455 -0.0385  0.0810
 4280W        W19749  17.130   3.196   2.033  0.0173  0.1191  0.0800
 4281W        W19750  11.623   3.448  13.727  0.0005 -0.0508 -0.2822
 4282W        W19751  13.298   3.361   4.039  0.0606  0.0379  0.2891
 4283W        W19752   6.814   6.611  12.965  0.2672  0.4383 -0.0978
 4284W        W19753  15.934   1.809  13.124 -0.2927  0.1141 -0.0586
 4285W        W19754   9.486   5.895   0.762  0.0479  0.0590  0.3502
 4286W        W19755  15.451   1.898  13.074  0.2610  0.1333 -0.0889
 4287W        W19756  17.961   4.886   3.607 -0.2061 -0.1792 -0.3384
 4288W        W19757  11.110   7.474   3.854  0.1157 -0.0295 -0.0654
 4289W        W19758   1.845   2.973  12.048  0.1217 -0.0300  0.0833
 4290W        W19759   6.734  17.018   4.006  0.0246 -0.0069 -0.1090
 4291W        W19760  12.833  12.517   1.150  0.3418 -0.0907  0.0055
 4292W        W19761   9.630   0.337  12.513 -0.0343 -0.1653 -0.1382
 4293W        W19762  14.592   2.473   0.697  0.2409  0.0904 -0.1539
 4294W        W19763   1.061  12.080  14.957 -0.0147  0.0663  0.1051
 4295W        W19764   5.997   4.825  14.363 -0.0221 -0.0206 -0.0564
 4296W        W19765   7.476   1.489   2.755 -0.2840  0.1545 -0.0559
 4297W        W19766  10.247   3.736   5.398 -0.2301 -0.0626  0.1059
 4298W        W19767  14.953   9.153   1.491  0.1952  0.0341 -0.1560
 4299W        W19768  12.525   4.008  11.015 -0.3635  0.1796 -0.1664
 4300W        W19769   4.645   4.966   5.427  0.1897  0.0020 -0.5112
 4301W        W19770   4.280  10.575  10.590 -0.4274  0.1696  0.3860
 4302W        W19771   0.249  10.363  13.458  0.1245 -0.3836  0.1968
 4303W        W19772  16.816   4.034  15.518  0.1697  0.0088 -0.2062
 4304W        W19773   0.181  12.107  14.225  0.2584  0.2245  0.2609
 4305W        W19774   1.842   0.541   3.252 -0.1090  0.2870 -0.0724
 4306W        W19775   8.427   3.716   4.296  0.1744  0.0512  0.1383
 4307W        W19776  16.266  11.990   1.305  0.0827  0.1124 -0.0809
 4308W        W19777  15.253  16.982  11.646  0.0700 -0.0847  0.3613
 4309W        W19778  11.652  10.948   4.536 -0.0051 -0.1466 -0.0531
 4310W        W19779   5.376  10.718   1.598  0.2648  0.0716  0.3427
 4311W        W19780   6.094  17.055  12.543  0.0746 -0.1988  0.0655
 4312W        W19781  17.731   1.103  13.854 -0.2027  0.0989 -0.1471
 4313W        W19782   7.093   5.785  10.084 -0.1377 -0.2517 -0.4461
 4314W        W19783   1.138   6.606   3.697 -0.0183 -0.1348 -0.1936
 4315W        W19784   4.042   3.968   3.073 -0.0291 -0.3080  0.0236
 4316W        W19785   3.521  18.269   2.114 -0.0517 -0.2189 -0.0507
 4317W        W19786  18.428  18.103   3.992  0.0184  0.1639 -0.3350
 4318W        W19787  16.681  11.621   1.601 -0.3522 -0.1018  0.2732
 4319W        W19788   8.048   6.791   3.486 -0.0898  0.1583 -0.4421
 4320W        W19789   6.510   7.636   5.568 -0.2225 -0.8137  0.4341
 4321W        W19790   3.641  15.268   1.223 -0.5268 -0.2173 -0.2959
 4322W        W19791   6.081  18.380  14.166 -0.0625  0.3786  0.1220
 4323W        W19792   2.965  15.401   1.941 -0.1399 -0.0548  0.0098
 4324W        W19793  10.444  14.986   1.617  0.1778  0.2420 -0.0649
 4325W        W19794   9.805  17.986   4.574 -0.3380  0.2690 -0.0056
 4326W        W19795  15.542   0.578   2.251  0.1347 -0.1255  0.2439
 4327W        W19796   8.578  10.567   0.523 -0.1563  0.2608 -0.1192
 4328W        W19797   3.930  13.236  14.444  0.3169  0.1727 -0.3245
 4329W        W19798   4.802   2.294   1.044  0.2562  0.0043  0.1351
 4330W        W19799  10.269   4.949   3.904  0.1731 -0.1504  0.0700
 4331W        W19800   6.619  12.514  15.340  0.2661 -0.2036 -0.0095
 4332W        W19801   3.096   1.350   0.154 -0.1918  0.0456 -0.0044
 4333W        W19802   5.700  17.887   0.975  0.1288  0.2091  0.3841
 4334W        W19803   3.952   6.361   2.020 -0.5038 -0.2438 -0.0307
 4335W        W19804   2.031  14.379  14.495  0.0140  0.1855  0.0857
 4336W        W19805  13.298  16.071   3.896  0.1384  0.0135  0.1318
 4337W        W19806   1.798  13.956  14.502 -0.0121  0.0575  0.1330
 4338W        W19807   3.363  13.983   4.951  0.1019  0.0622  0.2260
 4339W        W19808   2.570   4.158   5.669 -0.0675 -0.2568  0.1352
 4340W        W19809  17.982   4.482  10.831 -0.0337 -0.1128 -0.1529
 4341W        W19810   8.230   2.540   9.747 -0.0208 -0.0499 -0.1039
 4342W        W19811   3.755   5.914  15.253 -0.0364  0.1773 -0.3149
 4343W        W19812   5.910  17.059  11.321 -0.1317 -0.1145 -0.2268
 4344W        W19813   8.049  11.213   1.917 -0.3831 -0.0654  0.2832
 4345W        W19814  17.782  18.583   3.325  0.1477 -0.0666  0.0713
 4346W        W19815   7.502   3.915  13.447  0.1776 -0.1605  0.0095
 4347W        W19816   6.086  15.836   4.784 -0.2509  0.0469 -0.3809
 4348W        W19817   4.978   7.858  14.799  0.0175  0.1452  0.3023
 4349W        W19818   4.322   0.717   1.400  0.2016  0.0270  0.0609
 4350W        W19819  12.281   5.339   3.167 -0.3918  0.0045 -0.1165
 4351W        W19820  15.521   7.782   0.192 -0.0982 -0.0065  0.0814
 4352W        W19821  16.790  12.371   3.849 -0.1607 -0.1591  0.3794
 4353W        W19822  14.886  13.165   0.903 -0.1855 -0.1907 -0.0420
 4354W        W19823   4.963  11.347   9.891 -0.0296  0.1178 -0.0745
 4355W        W19824   3.455   5.205   4.972  0.0046  0.2002 -0.1216
 4356W        W19825   4.021   7.627  14.087 -0.2243  0.2659  0.1054
 4357W        W19826  16.266  12.532   3.276 -0.1093 -0.2407 -0.2903
 4358W        W19827  10.293  10.771  11.839 -0.0861  0.0014  0.1591
 4359W        W19828   7.375  16.261   0.903  0.4957 -0.3588  0.1580
 4360W        W19829   5.556   4.566   3.704 -0.3187  0.1208 -0.4592
 4361W        W19830   0.189  16.198   3.217 -0.1326  0.1755  0.0582
 4362W        W19831   9.077  10.393   2.460  0.1372  0.3343 -0.2238
 4363W        W19832  14.540   7.114   1.892 -0.2604  0.3227  0.1199
 4364W        W19833  11.232   1.921  14.795  0.2047 -0.1063  0.1483
 4365W        W19834   4.996   7.318  12.988  0.2228  0.0205 -0.2517
 4366W        W19835  10.408   8.637  10.199 -0.0417  0.4375  0.4575
 4367W        W19836   3.295  15.961  11.829  0.1428  0.0174 -0.0940
 4368W        W19837  17.098  14.443  13.109 -0.0998  0.2488 -0.2870
 4369W        W19838   3.703  14.412   1.841 -0.0895  0.2280 -0.3350
 4370W        W19839   2.487   3.077   5.411 -0.0562 -0.3320 -0.1142
 4371W        W19840  10.480   1.996   4.323 -0.0300 -0.0241  0.0148
 4372W        W19841   3.579  12.935  14.209 -0.2091  0.0775 -0.0545
 4373W        W19842  16.418   9.540   1.124 -0.4784 -0.3343  0.0772
 4374W        W19843   2.862  17.051  15.039 -0.1474 -0.0350 -0.0429
 4375W        W19844  14.471  12.614   0.343  0.0701 -0.1495 -0.4476
 4376W        W19845   5.205   4.692  11.914 -0.1789 -0.3208  0.3718
 4377W        W19846  14.809  16.740   0.236 -0.0830  0.1416  0.5305
 4378W        W19847  11.598  14.027   0.373  0.1153 -0.0210  0.1667
 4379W        W19848  17.750   4.245   4.479 -0.0542  0.0592  0.1442
 4380W        W19849   0.805   8.927   2.386 -0.2060  0.1309 -0.2807
 4381W        W19850  12.906  15.106   3.068 -0.1926 -0.0624  0.0350
 4382W        W19851  12.116   4.578  14.166  0.2981  0.0771 -0.0652
 4383W        W19852  13.069  17.754  12.358  0.1121  0.3522 -0.0698
 4384W        W19853  12.575   2.827   2.724 -0.3430  0.2272  0.1722
 4385W        W19854   6.683   8.202  14.377 -0.0504  0.1469  0.0609
 4386W        W19855  11.838  18.158  11.893  0.0451 -0.0248 -0.2246
 4387W        W19856  15.294   9.446   2.123 -0.1689  0.1847  0.1103
 4388W        W19857  14.695  13.583  14.411 -0.0454 -0.1220  0.0172
 4389W        W19858   5.870   5.821  14.397  0.0955 -0.2448 -0.0652
 4390W        W19859  12.400  18.035  11.196 -0.1889  0.1834 -0.0747
 4391W        W19860  17.168   6.999   0.706  0.1469  0.0933 -0.3407
 4392W        W19861  15.663   5.819  15.517  0.1714 -0.1695  0.1851
 4393W        W19862   9.530  13.539   2.892  0.1404  0.0407 -0.0903
 4394W        W19863   3.244  12.122   3.126 -0.1528  0.1103 -0.2040
 4395W        W19864   9.184  17.557  12.055 -0.0711  0.1866 -0.0955
 4396W        W19865   7.609   4.693  14.378 -0.0316 -0.1484  0.2452
 4397W        W19866   0.784  10.870  14.194 -0.0543 -0.0367  0.0273
 4398W        W19867  16.514   1.106  15.174 -0.3801  0.5071 -0.0117
 4399W        W19868   7.556   7.240   5.124  0.0876 -0.0789 -0.4370
 4400W        W19869  11.949   0.596  11.589 -0.0180 -0.0248 -0.0053
 4401W        W19870  15.016  10.210   3.276 -0.1225 -0.0590 -0.0200
 4402W        W19871  13.748  13.803  12.158 -0.3061 -0.0350  0.0074
 4403W        W19872   1.165   4.047   1.801  0.0852  0.0543 -0.0676
 4404W        W19873  15.034  14.448   0.218  0.0443  0.0872  0.0581
 4405W        W19874   2.121  15.000   3.736 -0.3869 -0.1640  0.0788
 4406W        W19875   6.713   5.152  15.594  0.1047  0.0079  0.4255
 4407W        W19876  15.995  10.569  14.595 -0.1333 -0.0900 -0.3716
 4408W        W19877  14.497  14.637   6.126  0.2590  0.0704 -0.0099
 4409W        W19878  14.024   9.366   0.488 -0.0295  0.0323 -0.1323
 4410W        W19879  17.302  15.692  13.031  0.2039  0.3883 -0.0753
 4411W        W19880  13.494   5.649   1.570  0.0184 -0.2247 -0.1005
 4412W        W19881   7.690  11.338  13.851  0.1880  0.2708  0.2135
 4413W        W19882  18.764  17.909  13.196 -0.3702 -0.1188 -0.1771
 4414W        W19883  15.126  15.557   5.183  0.3523  0.0755 -0.0076
 4415W        W19884  13.545  11.140  15.618  0.2849 -0.0727 -0.0989
 4416W        W19885  16.919  12.709  14.821  0.3706 -0.0713 -0.1119
 4417W        W19886  15.817   7.821   1.734 -0.1228 -0.0334 -0.0640
 4418W        W19887  15.522  17.597  14.985 -0.3539  0.2819  0.3027
 4419W        W19888  16.232   3.165  13.525  0.0123  0.3017  0.0149
 4420W        W19889  12.662  17.990  12.049  0.3159  0.0303 -0.1024
 4421W        W19890   0.066  11.045   4.197  0.1819  0.1252  0.0743
 4422W        W19891   4.102  16.921   3.447 -0.0764 -0.1386 -0.1153
 4423W        W19892   8.495  17.734  11.390 -0.1569  0.1884 -0.0032
 4424W        W19893   1.356   4.958   0.305 -0.0299 -0.0118 -0.2729
 4425W        W19894   6.094  12.435  11.977 -0.0060  0.0362  0.4244
 4426W        W19895  18.152   1.741  11.864  0.3063 -0.2531 -0.0651
 4427W        W19896   8.817  17.242  12.452 -0.0720  0.4087  0.0294
 4428W        W19897   2.319   4.474   2.678 -0.1663 -0.2494 -0.0086
 4429W        W19898   3.087   5.090  13.378  0.1860  0.2522 -0.1198
 4430W        W19899   8.976   5.883  11.754  0.1531 -0.2345 -0.0611
 4431W        W19900  12.577   0.155  10.331  0.0290 -0.2132 -0.1043
 4432W        W19901  15.742  10.814   3.447  0.0713  0.2255 -0.2128
 4433W        W19902   1.890   2.376  13.805 -0.1436 -0.2397  0.1786
 4434W        W19903  15.418   7.347  11.363  0.2276  0.0159  0.0745
 4435W        W19904   3.718   8.451   1.544 -0.0529 -0.0755 -0.0816
 4436W        W19905   6.211  17.826   2.482 -0.2555  0.3989  0.1235
 4437W        W19906  13.708  15.903  14.698 -0.1314  0.2290 -0.1335
 4438W        W19907   7.385   7.787   2.856  0.1035 -0.1478 -0.5398
 4439W        W19908  16.041  15.947  13.864  0.4172  0.1793  0.2596
 4440W        W19909   6.801   0.962   1.656  0.1249 -0.3769 -0.0338
 4441W        W19910   0.101   3.283   0.686  0.1459  0.0092  0.1631
 4442W        W19911   7.864   4.700  12.311  0.0580 -0.2197 -0.1401
 4443W        W19912  14.727   2.305   2.098  0.1620  0.0145  0.4510
 4444W        W19913  13.703  12.236  15.007 -0.0840  0.1995  0.0960
 4445W        W19914  16.009   0.331  12.991  0.0386 -0.2950 -0.0853
 4446W        W19915  11.151  18.674   0.227 -0.0498 -0.2780  0.1102
 4447W        W19916  17.777   2.624   4.980  0.2696 -0.2645  0.3072
 4448W        W19917  18.668   6.379   2.914  0.0245  0.0091  0.1534
 4449W        W19918  17.530  11.796   3.739  0.1965 -0.1959 -0.0343
 4450W        W19919  10.725  15.074  11.944  0.0419  0.1563  0.1674
 4451W        W19920  13.667   8.707   3.783 -0.1577  0.0015 -0.0277
 4452W        W19921  10.794  17.671   1.962  0.0090  0.1087 -0.4514
 4453W        W19922  10.521  17.077  14.659 -0.0246 -0.1831 -0.1386
 4454W        W19923  14.778  18.611  12.968 -0.0556 -0.2060  0.1488
 4455W        W19924  12.279   0.519  12.621 -0.0655 -0.2483 -0.1581
 4456W        W19925   0.201   3.381   2.550 -0.3644 -0.1564 -0.0025
 4457W        W19926  14.206   4.682  15.575  0.1569  0.2354  0.1268
 4458W        W19927  18.639  13.533   0.935  0.2363  0.1112 -0.5289
 4459W        W19928   8.448   1.050  14.651  0.0478 -0.0946  0.0615
 4460W        W19929  10.317  17.094  12.312 -0.1167 -0.2790  0.0665
 4461W        W19930   4.087   2.499   2.659  0.1408  0.3632  0.0585
 4462W        W19931  14.173  12.829  10.151  0.1536  0.0667  0.0393
 4463W        W19932  14.248  18.203   0.237 -0.3016 -0.0602 -0.1299
 4464W        W19933  11.823  11.003   0.748 -0.1818  0.2782  0.0857
 4465W        W19934   1.492  13.480   2.041 -0.1409 -0.0593 -0.0439
 4466W        W19935  13.666   1.662   0.662 -0.1554  0.3187 -0.2424
 4467W        W19936   9.302   5.200   4.455 -0.2237  0.0149 -0.3154
 4468W        W19937  12.974   2.838  15.152 -0.0769 -0.0135 -0.1192
 4469W        W19938  11.873   2.403  11.339 -0.0678 -0.2246 -0.0635
 4470W        W19939  16.692   9.377   3.627  0.0285 -0.1696  0.2504
 4471W        W19940   3.395  11.147   2.853  0.1569  0.2494  0.0430
 4472W        W19941  16.643   0.182  13.691 -0.4682  0.1873 -0.0853
 4473W        W19942   7.842  18.404   3.612 -0.4110  0.3880  0.0032
 4474W        W19943   0.225   7.787  13.005  0.0703  0.2990 -0.0081
 4475W        W19944  14.222   5.198   0.057 -0.1317 -0.0670 -0.1853
 4476W        W19945  11.470   5.649   0.512  0.4197  0.2966  0.1482
 4477W        W19946   5.781   9.336  15.630 -0.2816  0.0777 -0.0246
 4478W        W19947   7.267   6.942   1.060 -0.0438 -0.0029  0.2350
 4479W        W19948  15.602   0.943  12.118  0.1048 -0.1171 -0.1512
 4480W        W19949   1.269   1.478   3.751  0.2464 -0.1334  0.1368
 4481W        W19950  15.442   3.652   3.960  0.2102  0.2105  0.0696
 4482W        W19951  15.033  14.368   2.490  0.1311 -0.1161  0.1381
 4483W        W19952  15.612   7.643  10.282  0.2850  0.1526 -0.2349
 4484W        W19953   7.314   3.964   4.275 -0.0579  0.0876  0.0644
 4485W        W19954   3.663  14.898   5.616 -0.0262 -0.1432 -0.0667
 4486W        W19955   6.495   8.882  10.443 -0.0187 -0.2229 -0.1576
 4487W        W19956   7.437   9.057  12.237 -0.1863 -0.2175 -0.0536
 4488W        W19957   9.318   7.639   4.829 -0.2414  0.0824 -0.3239
 4489W        W19958  16.388   4.644  12.705  0.1577  0.4517  0.1072
 4490W        W19959  15.921   2.552  14.288 -0.0456  0.2129  0.0960
 4491W        W19960   7.714  13.535  11.030 -0.0745 -0.1841  0.1583
 4492W        W19961   0.482   0.884  15.347  0.0014  0.1347 -0.1340
 4493W        W19962   1.051   9.513   1.937 -0.0699  0.0748  0.0667
 4494W        W19963  14.140   9.384   5.340 -0.1589 -0.2404  0.0957
 4495W        W19964   1.046   0.531  12.463 -0.0355  0.1335  0.0102
 4496W        W19965  12.203  10.839   1.229 -0.0858  0.0732 -0.0449
 4497W        W19966  14.020   9.945   6.011  0.2444  0.0039  0.0094
 4498W        W19967  12.183  10.453  15.238  0.2108  0.0367  0.1147
 4499W        W19968   2.528  14.455  11.178  0.2766  0.2488 -0.1792
 4500W        W19969   9.776   2.113  11.922  0.1322  0.2567  0.2038
 4501W        W19970  12.422   3.043  14.320  0.0194 -0.1639  0.3058
 4502W        W19971  11.350  10.857   4.963  0.1949  0.2160  0.0441
 4503W        W19972   5.055   6.717  12.169 -0.1232 -0.0871  0.0080
 4504W        W19973  15.069   2.317  11.941  0.0648  0.0235 -0.1877
 4505W        W19974  17.926  18.157  13.596 -0.0194 -0.0607 -0.3219
 4506W        W19975  18.132   0.194  15.443  0.0254  0.1554 -0.0772
 4507W        W19976   5.114   7.799  11.979 -0.0558  0.0542  0.0413
 4508W        W19977   5.859  14.022   1.331 -0.3042 -0.1644 -0.2560
 4509W        W19978  16.786   0.552   2.070 -0.0473  0.0640  0.0720
 4510W        W19979  13.463  12.604   2.263 -0.0909  0.0079  0.0961
 4511W        W19980  17.611   6.776   4.903 -0.0306 -0.4283  0.2153
 4512W        W19981  14.636   3.334   0.374  0.0937 -0.0534 -0.3162
 4513W        W19982   5.476  18.567   3.716 -0.2997 -0.1087 -0.0719
 4514W        W19983   3.541   1.862  10.568 -0.0676 -0.0756  0.0240
 4515W        W19984  14.663  17.559  15.350  0.0092  0.0052 -0.0310
 4516W        W19985  11.017  16.028  11.355 -0.0253 -0.3333  0.0739
 4517W        W19986   7.035  14.858   0.955 -0.3914  0.3591 -0.1702
 4518W        W19987   8.666  18.516  14.920  0.1749  0.0966 -0.1651
 4519W        W19988   6.397   1.213  10.446 -0.1265 -0.0674 -0.1134
 4520W        W19989   8.866  13.166   2.269  0.0848 -0.0376 -0.4734
 4521W        W19990   7.752   4.481   2.382 -0.0945 -0.1544 -0.0437
 4522W        W19991   6.427  18.700  12.940  0.1207 -0.1023 -0.0326
 4523W        W19992  17.227  14.986   0.812  0.2214  0.0860  0.1529
 4524W        W19993   1.044   2.259   3.082  0.1423  0.0625  0.1357
 4525W        W19994  18.656   3.059  13.646 -0.0050 -0.0501  0.0098
 4526W        W19995   1.195  13.396  13.966 -0.4474  0.0088 -0.1669
 4527W        W19996   9.826  14.496  14.578  0.2795 -0.0837  0.2655
 4528W        W19997   7.073   3.992   1.272 -0.2276  0.0914 -0.4967
 4529W        W19998  16.201  17.056  12.042 -0.1485 -0.2673 -0.1822
 4530W        W19999  15.049   3.052  14.129 -0.1787 -0.1263 -0.1478
 4531W        W20000  17.006   4.687   3.813 -0.1743 -0.1961 -0.1354
 4532W        W20001   7.242   5.324   5.047  0.1315  0.4379 -0.1035
 4533W        W20002   5.532  11.955   0.632  0.3019  0.2350 -0.2107
 4534W        W20003   2.889  10.335   5.279  0.0161 -0.1607  0.0028
 4535W        W20004  15.170  14.694  14.390  0.2148  0.1657  0.1290
 4536W        W20005  10.251   4.781  14.396 -0.1860  0.0186 -0.2734
 4537W        W20006  16.674  12.788  15.435  0.2204 -0.0451 -0.4090
 4538W        W20007   7.524  12.506   3.996 -0.1811 -0.2096  0.0053
 4539W        W20008  17.208   7.782   3.806  0.0907 -0.0103  0.1563
 4540W        W20009  12.738   3.745   0.414  0.0434  0.0902  0.0122
 4541W        W20010  13.852   6.727   4.645 -0.4708 -0.0143  0.0632
 4542W        W20011  18.326   6.919  14.334  0.0207 -0.1588 -0.0194
 4543W        W20012   4.981  13.119  11.041  0.2156  0.0923  0.2848
 4544W        W20013   7.163   0.768  12.836 -0.3329 -0.0255 -0.0997
 4545W        W20014  18.593   7.455   3.376 -0.1805 -0.0462 -0.0562
 4546W        W20015  14.156   9.469  14.295  0.0751 -0.4820  0.1608
 4547W        W20016  16.710   1.981   3.867 -0.0740 -0.1527 -0.2994
 4548W        W20017  13.552   2.375  14.750 -0.0720  0.3018 -0.0436
 4549W        W20018   2.146   1.536  13.006 -0.0988 -0.3002  0.2929
 4550W        W20019   8.430   0.478   0.925  0.1751  0.0783  0.1305
 4551W        W20020  17.068   7.200   5.135 -0.2109  0.1087 -0.3426
 4552W        W20021   1.641   1.214  13.058  0.2442 -0.1703  0.0199
 4553W        W20022  15.447  15.642   0.812  0.1640  0.0101  0.1762
 4554W        W20023   3.536  18.441  13.616  0.0976  0.3006 -0.3772
 4555W        W20024   2.598   7.451   3.261  0.0205 -0.3082  0.0336
 4556W        W20025   6.336   3.463  11.907  0.3047  0.0011  0.1249
 4557W        W20026  13.553   2.676   1.158 -0.0622  0.0211  0.0653
 4558W        W20027  16.999   0.036  11.607 -0.0287 -0.0165  0.0876
 4559W        W20028   0.793   5.051  12.105 -0.0167 -0.0745 -0.0944
 4560W        W20029   1.431  17.970   1.265 -0.1614 -0.1793  0.0450
 4561W        W20030   2.724   4.426  13.854 -0.0098 -0.1952  0.1864
 4562W        W20031   8.684   3.593  13.837 -0.1130  0.3137  0.0306
 4563W        W20032  15.774  11.889   0.643 -0.1966  0.1116  0.1371
 4564W        W20033  16.459  12.301  14.734 -0.2965  0.0190 -0.1059
 4565W        W20034  16.264  12.408   3.729  0.0244  0.1244 -0.0393
 4566W        W20035  13.121  15.314  11.793  0.2007  0.0291  0.2759
 4567W        W20036  16.448   6.019  11.114  0.1074 -0.0755  0.3101
 4568W        W20037   6.107   8.629   4.081 -0.0005 -0.1644  0.1849
 4569W        W20038   4.264   6.312   0.119  0.4673  0.0958 -0.3845
 4570W        W20039  17.426  18.651   0.613 -0.0585 -0.0426  0.0173
 4571W        W20040   6.113   8.657   9.495  0.2410 -0.0315 -0.2125
 4572W        W20041   0.418   6.423  11.612 -0.2557 -0.3555 -0.3179
 4573W        W20042   2.420  18.103   4.175 -0.0145 -0.0889 -0.2320
 4574W        W20043  13.872  11.409  15.390  0.3015 -0.1638 -0.2589
 4575W        W20044   2.404  16.236  12.414 -0.0335 -0.2210 -0.4760
 4576W        W20045  11.795   6.952   3.419 -0.0098  0.0395 -0.2252
 4577W        W20046   9.146   6.302  11.489 -0.0376  0.2594  0.2351
 4578W        W20047   1.041  15.001   6.108 -0.2870  0.0861 -0.0260
 4579W        W20048  10.259  12.764  12.447  0.0027  0.0164  0.2304
 4580W        W20049   0.883   6.109   4.111 -0.1001  0.1121  0.3872
 4581W        W20050  10.384   6.092  14.805 -0.0596  0.3362  0.0267
 4582W        W20051  15.462  13.713  14.588  0.0234  0.1725 -0.1590
 4583W        W20052  18.472  15.628   4.030  0.3914 -0.3430  0.2156
 4584W        W20053  14.134   3.018  10.557 -0.1636  0.0734  0.0353
 4585W        W20054  17.749  13.182   1.563  0.3444  0.1626 -0.1284
 4586W        W20055  16.956   5.471  12.493 -0.2893  0.2529 -0.0868
 4587W        W20056  10.002   9.436   5.827  0.0945  0.0404  0.0056
 4588W        W20057  13.704   5.969   3.942 -0.3120 -0.1834  0.0040
 4589W        W20058  12.141   8.207  12.442 -0.1442 -0.0392 -0.0023
 4590W        W20059   3.188   7.340  11.929  0.2313  0.0111  0.2063
 4591W        W20060  11.736   1.870   1.158 -0.1055  0.2039  0.0344
 4592W        W20061   5.777  13.648   2.114  0.4435  0.1147 -0.1493
 4593W        W20062   8.174   2.387  10.839  0.0131 -0.2440 -0.0268
 4594W        W20063   6.946  15.026   1.868  0.0725 -0.0158 -0.0545
 4595W        W20064  16.456   6.028   0.534  0.2072 -0.1075  0.1597
 4596W        W20065   8.694  15.408   1.564 -0.0387 -0.0788 -0.2455
 4597W        W20066   9.831   4.315   3.233  0.1909 -0.1475 -0.0203
 4598W        W20067  15.438   4.270   1.865 -0.2105 -0.0709  0.1886
 4599W        W20068  16.552   8.608   4.782  0.0624  0.1530 -0.1801
 4600W        W20069   9.775  16.704   3.486 -0.1636 -0.0378  0.1482
 4601W        W20070  16.794   1.563   2.791  0.0331 -0.0460 -0.0660
 4602W        W20071  17.179   5.138  13.267 -0.1034  0.1261  0.2342
 4603W        W20072   1.922   3.516  11.851 -0.1010 -0.2506  0.1942
 4604W        W20073   3.785  14.170  12.403 -0.0858 -0.2354 -0.0969
 4605W        W20074  16.400  13.586   3.081 -0.2110  0.0268  0.1993
 4606W        W20075  13.462   7.869   0.041 -0.2216  0.1034  0.0517
 4607W        W20076  16.623   9.813   1.926 -0.1235  0.2055 -0.0854
 4608W        W20077   8.138   2.614  13.180 -0.1639  0.1325 -0.0188
 4609W        W20078   4.869   6.760  13.124  0.1849  0.1549  0.1426
 4610W        W20079   6.646   8.695   0.548 -0.0801  0.1492 -0.1195
 4611W        W20080   6.042   2.874   0.302 -0.2427  0.1550  0.3122
 4612W        W20081   6.076  18.309  12.671 -0.1034 -0.0310  0.0377
 4613W        W20082  11.635  10.184  15.174 -0.2179  0.0926 -0.0034
 4614W        W20083   8.235   6.476   1.657  0.0351 -0.2324  0.1045
 4615W        W20084  13.112  14.576   0.736  0.0918 -0.1539  0.0514
 4616W        W20085  14.381  10.269   3.401  0.0783 -0.1312 -0.0414
 4617W        W20086   1.631  11.920  14.745 -0.0918  0.0677  0.1077
 4618W        W20087  16.868  17.437  11.547  0.0985 -0.2312  0.0909
 4619W        W20088   1.320  10.706   2.232 -0.1040  0.0235  0.0962
 4620W        W20089  13.606   1.074   4.175 -0.2022 -0.2129 -0.3039
 4621W        W20090   4.093   7.224   4.784 -0.1308 -0.0788 -0.0187
 4622W        W20091  13.922  11.161   5.657 -0.0167 -0.0311  0.2948
 4623W        W20092   5.685  12.937  10.310  0.5023 -0.0793 -0.0357
 4624W        W20093   5.970   4.120   1.412 -0.3827  0.0106  0.0183
 4625W        W20094   2.806   6.232   1.805  0.0161 -0.0737  0.0008
 4626W        W20095   6.990   4.940   2.691 -0.0135 -0.2714  0.2590
 4627W        W20096  17.504  11.127   6.036  0.0133  0.2522 -0.0013
 4628W        W20097  18.743  18.657  14.651  0.0915  0.1396 -0.5283
 4629W        W20098   5.644   7.330  13.828  0.2395  0.1723  0.3124
 4630W        W20099   7.870  17.420  12.617  0.0218 -0.1863  0.0026
 4631W        W20100   0.147   0.491  12.661 -0.2943  0.1425 -0.1363
 4632W        W20101   1.248  16.798  13.907 -0.1763 -0.0496 -0.1821
 4633W        W20102  11.701   7.044   0.597  0.1144  0.5327 -0.0370
 4634W        W20103   7.258  12.253  11.195  0.0185  0.0697  0.2289
 4635W        W20104  15.183   1.273   0.458  0.0337  0.1171 -0.1411
 4636W        W20105   6.860   9.283  11.191  0.1148 -0.1190 -0.4729
 4637W        W20106   7.578   1.943  11.488 -0.1066 -0.0925  0.0528
 4638W        W20107  15.303   4.455   1.216  0.5092 -0.2280 -0.0657
 4639W        W20108   8.691   9.823   1.147  0.2989  0.4664  0.0772
 4640W        W20109   5.182  14.742   4.537  0.1208 -0.0650  0.5241
 4641W        W20110   2.109   0.468   0.081 -0.0132 -0.2111  0.1534
 4642W        W20111   3.906   3.134   1.345 -0.1361  0.1964  0.3797
 4643W        W20112   8.834  17.821   1.708  0.0329 -0.1258  0.0468
 4644W        W20113  10.627  11.848  12.672 -0.2226 -0.4201  0.2855
 4645W        W20114  11.398   1.930  13.250 -0.3189 -0.2837 -0.2353
 4646W        W20115   9.187   9.660   4.034  0.0248  0.0344  0.0178
 4647W        W20116   3.829   5.312   1.416  0.0245 -0.3432  0.1232
 4648W        W20117  12.467   6.835   1.795 -0.2826  0.1969 -0.1355
 4649W        W20118   3.493  15.949   0.855 -0.2351  0.0512 -0.1624
 4650W        W20119  15.412  18.083  14.816 -0.0292  0.1439 -0.1297
 4651W        W20120   8.035  15.528   1.007  0.0014 -0.1337  0.0469
 4652W        W20121   2.354  17.623  12.398  0.2774 -0.4140 -0.2063
 4653W        W20122   5.565   1.714   1.847  0.1003  0.0714 -0.1261
 4654W        W20123  12.157   9.229  14.353 -0.0454 -0.3531 -0.3588
 4655W        W20124  12.877  11.007   2.526 -0.1061 -0.0205  0.0659
 4656W        W20125   4.013  10.364  13.730 -0.0703  0.0157  0.2523
 4657W        W20126   0.709  17.375   3.882 -0.0301 -0.2819  0.1541
 4658W        W20127   1.783  15.787  11.741  0.1770  0.3576 -0.0080
 4659W        W20128   5.345  17.936   2.354 -0.1497  0.2245 -0.2929
 4660W        W20129  14.568  11.410   1.448  0.0141  0.0515 -0.0590
 4661W        W20130   0.872  15.806  14.194 -0.1071  0.1413  0.2794
 4662W        W20131   5.805  12.161   3.663 -0.1386 -0.3162 -0.2867
 4663W        W20132  10.937  12.968  14.567 -0.5706  0.4296  0.2184
 4664W        W20133   0.498   2.572   2.822  0.1080  0.0678 -0.2925
 4665W        W20134   3.382  10.463  14.891 -0.1642 -0.0030  0.0045
 4666W        W20135  15.497  10.372   3.198  0.2915 -0.1681 -0.0013
 4667W        W20136   7.092  18.408  10.192  0.1906  0.6572  0.1855
 4668W        W20137  17.977  10.450   3.219 -0.0827  0.2353  0.0284
 4669W        W20138   1.875   3.206   0.338  0.0771 -0.0940  0.3435
 4670W        W20139   7.623  11.662   2.170  0.0441 -0.0577  0.3146
 4671W        W20140   3.658  11.704   9.801  0.1743  0.0219 -0.0129
 4672W        W20141   3.629  16.724   3.421 -0.0616  0.0523 -0.1131
 4673W        W20142  18.033  14.576   5.143 -0.6426  0.1183 -0.0907
 4674W        W20143   3.212   9.584   4.286  0.2071  0.0200  0.0045
 4675W        W20144  11.609  16.966   5.556  0.0984 -0.2242  0.3605
 4676W        W20145  10.707   2.491   1.677 -0.0458 -0.1039  0.1476
 4677W        W20146   5.156  11.952   5.181  0.2141 -0.1478  0.3224
 4678W        W20147  12.715   9.843  14.855 -0.0260  0.2954 -0.1511
 4679W        W20148  18.200   4.397   4.628 -0.0358 -0.2222  0.0650
 4680W        W20149  14.051   4.366  13.503 -0.1570  0.2714  0.3094
 4681W        W20150   3.806  14.421  14.482 -0.1576  0.0158  0.4232
 4682W        W20151   3.605  10.628   3.429  0.2278 -0.2186  0.2265
 4683W        W20152   6.790   3.666  11.748  0.1436  0.0256 -0.0075
 4684W        W20153   1.324  17.031   0.504 -0.0435 -0.2372  0.2794
 4685W        W20154   7.151   2.456   0.951  0.0924 -0.0636 -0.0055
 4686W        W20155  12.050  18.773  12.808 -0.0474 -0.2002 -0.1427
 4687W        W20156  16.270   2.046   2.171 -0.1146  0.3594  0.0233
 4688W        W20157  14.684  10.498   2.030 -0.1706  0.2338  0.1043
 4689W        W20158   5.779  13.007  11.344  0.1775 -0.3359  0.2287
 4690W        W20159   4.584  16.437   1.730 -0.0417 -0.3984 -0.0088
 4691W        W20160   0.956  18.767  12.991  0.0123 -0.2392 -0.0374
 4692W        W20161  13.148  10.818   0.104  0.0877  0.0293 -0.1301
 4693W        W20162   0.013  18.378  12.707  0.2866  0.1192  0.2149
 4694W        W20163   6.104   3.738  13.091 -0.2937  0.2959 -0.5090
 4695W        W20164   8.818   3.499   2.934 -0.1240 -0.2686  0.2317
 4696W        W20165   9.040  13.145  13.605 -0.1732 -0.0932 -0.0734
 4697W        W20166  11.293  10.619  14.918  0.2930  0.1345 -0.1364
 4698W        W20167   8.082   4.355  11.411  0.0744 -0.0468  0.1850
 4699W        W20168   0.019   8.115   5.462  0.2966  0.5503 -0.2224
 4700W        W20169  11.893  13.582   4.694 -0.1357 -0.0912 -0.2218
 4701W        W20170   5.639   4.459  11.912  0.3600  0.5123  0.1050
 4702W        W20171  12.497   0.676  14.794 -0.1215 -0.2027  0.1567
 4703W        W20172   5.588  14.600  11.661 -0.1184 -0.2671 -0.0513
 4704W        W20173  17.636  11.355  14.241 -0.1698  0.2543 -0.0496
 4705W        W20174   9.664  15.776  11.475  0.0196  0.0456  0.2441
 4706W        W20175  15.328  11.124   0.321 -0.3567  0.1511  0.2875
 4707W        W20176   4.555  15.557   1.536  0.2401  0.1749 -0.3998
 4708W        W20177  11.718  18.066   0.421  0.1140 -0.0906  0.3793
 4709W        W20178   5.952  13.857   4.419  0.1406 -0.0533  0.0438
 4710W        W20179   9.522   0.385  11.486 -0.2946 -0.3123  0.3550
 4711W        W20180   5.639  17.702  12.146  0.0090 -0.0177  0.0554
 4712W        W20181  10.548   4.191  13.043 -0.0801 -0.2690  0.3546
 4713W        W20182  13.176  17.981  11.491  0.0806  0.0932 -0.2989
 4714W        W20183   4.979  15.976   1.624 -0.0204 -0.1822  0.0093
 4715W        W20184   1.599   5.080  15.149 -0.1349  0.1959  0.1511
 4716W        W20185   1.240   0.896   3.742  0.1332 -0.1373 -0.1676
 4717W        W20186  10.016   2.909  13.118  0.0176 -0.1970  0.2334
 4718W        W20187   1.305   9.250  10.876  0.0921  0.0120 -0.1067
 4719W        W20188   0.414  16.862  13.688 -0.1377 -0.2747  0.2934
 4720W        W20189  14.300  11.803  14.134  0.1515  0.0404  0.2669
 4721W        W20190  14.536   5.823  10.983 -0.2847  0.0300 -0.1237
 4722W        W20191   8.350  15.651   4.780 -0.0351  0.1489  0.0188
 4723W        W20192  13.820   9.986  12.750 -0.0375  0.0010  0.1112
 4724W        W20193   8.424   5.565  14.882 -0.1297  0.2483 -0.4968
 4725W        W20194   3.696   1.840   0.882 -0.1409  0.0455  0.0865
 4726W        W20195   6.336  16.081   4.459  0.0491 -0.0541  0.2086
 4727W        W20196  18.375  15.774  10.164 -0.1424 -0.0499  0.1929
 4728W        W20197   1.775  11.790   4.012  0.1792 -0.2196  0.0504
 4729W        W20198  13.431  15.900   4.327  0.0037  0.1023 -0.0414
 4730W        W20199  14.292   7.808   4.508  0.1129  0.1942  0.1248
 4731W        W20200   7.450  12.312  14.761 -0.0005 -0.0985 -0.1062
 4732W        W20201  17.491   5.107   0.559  0.1759 -0.2275 -0.1300
 4733W        W20202  14.969  11.920  11.011 -0.0758  0.1248  0.1631
 4734W        W20203  13.464   4.897  15.333 -0.0878  0.0345 -0.0743
 4735W        W20204   8.439  17.753  10.499 -0.3023  0.2563  0.0840
 4736W        W20205   5.694   4.687  13.943  0.1544 -0.1024 -0.0996
 4737W        W20206   9.987  17.201  10.575  0.0282 -0.0044  0.2148
 4738W        W20207  13.224   0.751   2.828  0.2864 -0.1066  0.0558
 4739W        W20208  10.027  16.770  11.183  0.0526 -0.1255  0.0681
 4740W        W20209   9.148   1.867  13.032 -0.1873 -0.0334  0.0508
 4741W        W20210  11.686   9.883   3.677 -0.0674 -0.1542 -0.0322
 4742W        W20211   5.637  11.285  12.072 -0.2009  0.0232  0.3574
 4743W        W20212  17.536  14.714   1.102  0.1775  0.0568 -0.1680
 4744W        W20213   9.846  17.740   3.414  0.2705 -0.1708 -0.0105
 4745W        W20214   3.384  18.618   1.804  0.0023 -0.3512 -0.0307
 4746W        W20215   4.425  13.376   1.408  0.1238 -0.0055  0.2413
 4747W        W20216  10.754  15.584  11.810  0.1689  0.0954  0.0940
 4748W        W20217   5.523  12.788  10.802 -0.0405  0.2186  0.5837
 4749W        W20218   3.878  13.497   3.492 -0.1325 -0.0158  0.1630
 4750W        W20219   8.006  18.108  11.872  0.2127  0.1386  0.1341
 4751W        W20220  12.095  11.050   4.197 -0.1473  0.0392 -0.0452
 4752W        W20221   0.498   4.119   0.989 -0.0327 -0.2599 -0.1368
 4753W        W20222  15.430   7.784   1.169  0.2561 -0.0838 -0.4798
 4754W        W20223  10.922   1.871  10.595  0.1771  0.0654 -0.1229
 4755W        W20224  13.346  10.569   4.308  0.0379 -0.2192 -0.1106
 4756W        W20225  10.757  18.159   2.117 -0.1294  0.1535 -0.0311
 4757W        W20226   6.460   6.607   2.591 -0.0115 -0.4595 -0.0121
 4758W        W20227   7.559  10.428   9.420 -0.0651  0.1642  0.0749
 4759W        W20228   0.096   7.425   0.113  0.3364 -0.3717  0.0502
 4760W        W20229   3.812   5.521  15.541 -0.1202 -0.0938  0.0485
 4761W        W20230   2.558   7.750  14.231  0.0729  0.0912  0.4097
 4762W        W20231  10.614  15.914  14.239  0.1866 -0.0005  0.1050
 4763W        W20232   1.139  15.288  11.587  0.2191 -0.0233 -0.0676
 4764W        W20233  17.382   5.758  10.157  0.0638 -0.1836 -0.1541
 4765W        W20234   3.385   6.141  15.003  0.3357 -0.0811  0.1481
 4766W        W20235  10.996  15.421   3.128 -0.2192 -0.3457 -0.0506
 4767W        W20236   2.669   4.355   2.260  0.2015 -0.3884  0.2252
 4768W        W20237  14.049   1.606   5.404  0.2373 -0.0842  0.1409
 4769W        W20238   8.024  18.048  13.748 -0.3201  0.1742  0.1079
 4770W        W20239   6.010  10.550  13.390 -0.0421  0.3118 -0.0518
 4771W        W20240   7.406  16.697   1.165  0.1445  0.2628 -0.3429
 4772W        W20241  13.267   3.005   4.374 -0.2424 -0.2292  0.0226
 4773W        W20242   6.323  16.495  13.324  0.1842 -0.0414 -0.0139
 4774W        W20243   7.246   0.834   1.724 -0.0120  0.1185  0.0269
 4775W        W20244   3.877  13.095  10.709  0.1602 -0.1591  0.0239
 4776W        W20245  14.891   6.520   0.233 -0.0050  0.2575  0.0946
 4777W        W20246  15.276   9.397   3.945  0.0587  0.0914 -0.0983
 4778W        W20247   1.940   5.631  11.487 -0.2087  0.2918 -0.1001
 4779W        W20248  14.553   0.297  11.776  0.2547 -0.1693 -0.0879
 4780W        W20249   8.365   3.195  13.921 -0.0838 -0.3211 -0.3990
 4781W        W20250  18.423   2.659  12.732 -0.0528 -0.1577 -0.4256
 4782W        W20251  17.285   5.703  13.141  0.1126  0.2289  0.1970
 4783W        W20252  12.220   9.601  13.006  0.5026 -0.1279  0.2735
 4784W        W20253  10.745  11.356  14.622  0.3717  0.2322  0.2906
 4785W        W20254  11.637   0.886   0.318 -0.0266 -0.0246 -0.0772
 4786W        W20255   8.389  17.754   9.817  0.0140 -0.1426 -0.3551
 4787W        W20256  14.377  10.988  12.074  0.5628 -0.0615  0.1686
 4788W        W20257   5.286  10.939  11.575 -0.2307  0.1465 -0.3183
 4789W        W20258  15.524   3.287  14.264 -0.0580  0.1406 -0.0112
 4790W        W20259   4.614   3.618  12.124 -0.0402  0.2471 -0.3180
 4791W        W20260  17.216  12.127   3.857  0.1671  0.4150 -0.1137
 4792W        W20261  17.709  16.021   4.418  0.1703 -0.2434  0.0567
 4793W        W20262   3.308   5.114   0.560  0.1655 -0.1937 -0.2728
 4794W        W20263   1.689  14.826  13.275 -0.1909  0.0440 -0.1220
 4795W        W20264  15.173   3.812   5.277  0.2212 -0.2826  0.0311
 4796W        W20265  11.497   0.453   3.354  0.1107 -0.3446  0.0380
 4797W        W20266   3.914  14.062   4.796  0.3282 -0.1845  0.1343
 4798W        W20267   1.606   7.423   1.826  0.0341  0.2534 -0.0233
 4799W        W20268  14.388   6.296   1.685 -0.0742  0.1071  0.0317
 4800W        W20269   6.335  10.707  14.614 -0.0409  0.1707  0.2222
 4801W        W20270   4.038   8.418  12.880 -0.0015  0.2502  0.2671
 4802W        W20271   9.209  16.651  11.777 -0.1632 -0.0626 -0.4907
 4803W        W20272   2.647  17.989   2.235 -0.3033  0.2196 -0.2484
 4804W        W20273  13.796   4.035   3.773  0.4712 -0.1956 -0.1372
 4805W        W20274  14.874  10.062  12.425  0.3000  0.2400  0.2020
 4806W        W20275  14.319  14.292   1.312  0.0630 -0.0872  0.0172
 4807W        W20276   4.026   0.530  10.474 -0.4916  0.1804 -0.1393
 4808W        W20277  10.608  11.589   0.739 -0.2526  0.2729 -0.0599
 4809W        W20278  18.733   4.595   2.363  0.1562 -0.1309  0.1790
 4810W        W20279  14.670  15.504   0.886  0.1281 -0.3203  0.2496
 4811W        W20280  15.121  17.925   5.059 -0.0683  0.2786 -0.1923
 4812W        W20281  16.055   8.849  14.643 -0.2123  0.0629  0.5489
 4813W        W20282  12.594  15.066   1.598  0.4551 -0.2561 -0.0671
 4814W        W20283   1.204  14.648   4.538 -0.0515 -0.1192  0.0398
 4815W        W20284   7.700   4.800  13.775  0.0987 -0.0748  0.1735
 4816W        W20285  12.571  14.912   0.814 -0.2124 -0.2180 -0.0650
 4817W        W20286   4.956   6.440  12.724  0.3735 -0.1237  0.0426
 4818W        W20287  12.212   9.448   2.213  0.1090  0.0761 -0.0178
 4819W        W20288   9.109   8.664   2.954  0.0507 -0.1175 -0.5392
 4820W        W20289  15.641  14.695   4.199  0.0508  0.0871 -0.2072
 4821W        W20290  16.816  12.965   5.029  0.3843 -0.3431 -0.0800
 4822W        W20291   1.041   7.989   2.480 -0.1321  0.1424  0.0865
 4823W        W20292   5.606   4.385   2.295 -0.1934 -0.0452 -0.2932
 4824W        W20293  10.500   5.771   3.916  0.0283 -0.2493  0.0308
 4825W        W20294   8.912   5.600  14.803 -0.1870 -0.1744  0.0953
 4826W        W20295   5.111   8.213   1.450 -0.1516  0.0750  0.1162
 4827W        W20296   9.009   5.525   3.422 -0.1145  0.3918  0.1872
 4828W        W20297  11.922   7.793  10.628  0.1006  0.1401 -0.3171
 4829W        W20298  14.328   4.816  14.891 -0.2193  0.1178  0.1248
 4830W        W20299  17.580   6.026   2.189  0.1638 -0.3922  0.0299
 4831W        W20300  12.593   1.309  12.359 -0.3223  0.1795 -0.0927
 4832W        W20301  12.834   5.917   3.839 -0.2617  0.3692  0.0774
 4833W        W20302  14.393   9.443  13.760  0.1527  0.1132  0.0086
 4834W        W20303  18.040   4.017   0.399 -0.4763  0.0879 -0.1217
 4835W        W20304  12.635  16.526  15.620  0.1364 -0.2272  0.0626
 4836W        W20305   1.620  11.748   0.042 -0.1101  0.0055 -0.1492
 4837W        W20306   8.495   5.648  11.596  0.3387  0.1425  0.1320
 4838W        W20307  18.544   1.559  13.288  0.1055  0.0048  0.0259
 4839W        W20308   9.646  15.740  10.328  0.0617  0.0031  0.2415
 4840W        W20309   7.303   6.888   9.679  0.0772  0.0556 -0.0799
 4841W        W20310  15.258   0.485   5.475  0.2058  0.2522 -0.1522
 4842W        W20311  18.329  11.137   4.123  0.1170  0.1154  0.1431
 4843W        W20312  14.785   9.705  10.302 -0.1655 -0.1850 -0.2963
 4844W        W20313  16.729   7.613   0.552 -0.2045 -0.1121  0.0747
 4845W        W20314   9.231  13.986   1.435 -0.0670 -0.6333  0.0049
 4846W        W20315  16.483  11.100  13.629  0.2723 -0.0160 -0.1743
 4847W        W20316   4.262  17.402   2.040  0.0489  0.3568 -0.1384
 4848W        W20317   3.973   8.848  13.164  0.1446 -0.0817 -0.0004
 4849W        W20318   4.575   2.526   1.613  0.0303 -0.0427 -0.0265
 4850W        W20319  15.151  12.177  14.478  0.0346  0.0204  0.0063
 4851W        W20320   2.010  17.754   4.264 -0.0920  0.5581 -0.0006
 4852W        W20321  10.714   8.309   0.793  0.0493 -0.1544  0.0327
 4853W        W20322   9.985  11.020  14.433 -0.1755  0.0371  0.1286
 4854W        W20323  10.393   2.152   5.811 -0.2819 -0.5561  0.0774
 4855W        W20324  12.384   9.352   0.620  0.3120  0.1738  0.1126
 4856W        W20325  18.254   8.660  12.224 -0.1936 -0.3138 -0.2189
 4857W        W20326  13.289   7.907   3.539 -0.0245  0.1282  0.0761
 4858W        W20327  10.820   1.581  14.951  0.1219 -0.1480  0.1118
 4859W        W20328  15.509   8.976   2.860 -0.1025  0.0279 -0.1272
 4860W        W20329   0.017   3.453   2.116 -0.0761 -0.1328  0.0002
 4861W        W20330   6.740  14.270  12.086 -0.0327  0.0135 -0.3969
 4862W        W20331   0.214   5.289  11.339 -0.0813  0.0131  0.0220
 4863W        W20332   5.831   2.698   3.940  0.0295  0.1023  0.2097
 4864W        W20333   9.105  16.786  12.542 -0.1820 -0.0255  0.0545
 4865W        W20334   7.870   5.078  14.196 -0.0153 -0.0696 -0.0631
 4866W        W20335   0.029  16.308  12.145 -0.2426  0.0230  0.0981
 4867W        W20336   6.903  17.706  12.200 -0.1185  0.1990  0.0428
 4868W        W20337   9.214   0.410  12.922 -0.0070  0.1869  0.0357
 4869W        W20338   2.351   4.410   1.388  0.2123  0.1682  0.1966
 4870W        W20339  11.323   8.894   1.522 -0.0097 -0.0048  0.3910
 4871W        W20340  10.867  13.020   2.067  0.0233  0.1156  0.0787
 4872W        W20341  15.368   9.967  13.356  0.2807  0.0973  0.1548
 4873W        W20342  12.686  11.664   0.834 -0.0406  0.3344  0.0641
 4874W        W20343   8.102  16.184   1.111  0.0266  0.1080  0.1624
 4875W        W20344   7.411  14.498   2.280  0.0337 -0.0519  0.2986
 4876W        W20345   3.044   3.333  10.537  0.1811  0.0461  0.0818
 4877W        W20346   2.859  15.266   3.692  0.0034 -0.3742  0.3109
 4878W        W20347  16.637   9.389  13.034 -0.0051  0.0807 -0.4440
 4879W        W20348  10.406  13.858   3.944  0.0884  0.0079 -0.3333
 4880W        W20349  17.860  13.331  11.648 -0.1031  0.0179  0.0159
 4881W        W20350  10.762   6.246   9.593 -0.0697 -0.2190 -0.2904
 4882W        W20351  13.822   2.319   2.237 -0.1651 -0.0961  0.0777
 4883W        W20352  16.949  14.638   1.077  0.4033  0.1433 -0.0622
 4884W        W20353   8.293  10.644  10.906 -0.1225 -0.4413  0.2429
 4885W        W20354   5.438   1.621   3.442 -0.1446  0.1864 -0.0053
 4886W        W20355   9.841  12.700   0.666 -0.1569  0.3380  0.2995
 4887W        W20356   3.239   9.365  11.845  0.1504  0.1710 -0.3704
 4888W        W20357   3.385   4.991   5.965 -0.0090  0.1717 -0.3483
 4889W        W20358  12.214   3.512   5.847  0.2074  0.0982  0.0241
 4890W        W20359  13.149   5.653   3.195  0.2434 -0.0803  0.0932
 4891W        W20360  13.509   2.973   3.482 -0.1662 -0.0746 -0.2101
 4892W        W20361  14.449  10.594   0.879  0.1412  0.4456 -0.0846
 4893W        W20362  15.323   8.956  10.440  0.3336  0.0455  0.1017
 4894W        W20363   0.581   3.669   2.337 -0.0948  0.2219  0.3016
 4895W        W20364   5.831   1.481   4.459  0.0330 -0.3642  0.3501
 4896W        W20365  12.429   2.393  15.335  0.1211  0.0237  0.4943
 4897W        W20366  15.620  10.364   1.813 -0.0573  0.0675 -0.2537
 4898W        W20367   8.306  15.063  12.907 -0.1721  0.0217  0.1726
 4899W        W20368  14.528  15.909   1.116  0.0324 -0.2132  0.0740
 4900W        W20369   7.465   1.338  12.769 -0.2524  0.0152  0.1513
 4901W        W20370  15.791   6.504  11.226  0.0690  0.0009  0.1385
 4902W        W20371  16.362  17.383   1.307  0.0233 -0.1959  0.0475
 4903W        W20372   5.762   6.937  15.396  0.0878  0.0369  0.1471
 4904W        W20373  18.460  14.569  14.167  0.3022 -0.4142  0.1005
 4905W        W20374   0.212   3.602   4.027 -0.2158 -0.0648 -0.0548
 4906W        W20375   5.862   8.201  13.588 -0.0937 -0.1875 -0.0456
 4907W        W20376   6.201   1.981  13.177  0.3001 -0.0576 -0.2007
 4908W        W20377   6.620  17.606  10.308 -0.1330 -0.1205 -0.0998
 4909W        W20378  17.451   2.482  12.260 -0.3388  0.2424 -0.3492
 4910W        W20379   8.949   4.021  13.643  0.2001  0.1547 -0.0311
 4911W        W20380   5.702   5.352   2.348  0.1920 -0.0374  0.3277
 4912W        W20381   1.543  17.570   4.347 -0.0282 -0.3169  0.1442
 4913W        W20382   6.336  17.916  10.518  0.1394  0.1353  0.1057
 4914W        W20383  12.547  17.737   0.243 -0.0577 -0.0611  0.0925
 4915W        W20384   3.923   2.310   3.588  0.1220 -0.4096 -0.1872
 4916W        W20385   5.593  18.095  12.675 -0.2062 -0.2326 -0.1676
 4917W        W20386   5.778   9.838   1.490  0.2758  0.2837  0.0959
 4918W        W20387   3.046   8.795  10.587 -0.1908 -0.0153 -0.1255
 4919W        W20388  12.736   5.484   2.399 -0.0239 -0.1334 -0.2214
 4920W        W20389  12.371   3.975   5.809 -0.1960 -0.1070  0.2542
 4921W        W20390  18.341   0.481   0.667 -0.0238  0.1414  0.2165
 4922W        W20391   1.932  10.398   0.650  0.0209 -0.2965 -0.2926
 4923W        W20392  17.924   3.544   3.351  0.1862  0.3362  0.1244
 4924W        W20393  11.558   8.751   2.367 -0.2824  0.0032 -0.0200
 4925W        W20394   6.329  14.130   4.803 -0.0903  0.2810 -0.1656
 4926W        W20395  12.474   7.719   5.868 -0.2192  0.2225  0.0360
 4927W        W20396  10.887   0.116   0.681 -0.0765  0.2542 -0.2364
 4928W        W20397  17.089   6.079  11.834  0.0319  0.0335 -0.0545
 4929W        W20398   6.362   1.793  14.491  0.4134  0.0079 -0.3763
 4930W        W20399   3.991   9.957   1.740  0.1212  0.5877 -0.1413
 4931W        W20400  11.252   1.130  11.846 -0.1539 -0.6860 -0.2389
 4932W        W20401   9.362   9.146   4.587 -0.0482  0.1740  0.0815
 4933W        W20402  17.708   5.411  11.900  0.1036  0.4740  0.3972
 4934W        W20403  17.044   6.061   2.467 -0.1485 -0.1188  0.0009
 4935W        W20404  12.359   8.765  13.616 -0.0418  0.2544  0.1841
 4936W        W20405   5.507  10.454  13.165 -0.2022 -0.1001 -0.2034
 4937W        W20406   9.845  13.148  12.619  0.0646 -0.1847 -0.1475
 4938W        W20407   6.421  13.171  12.882 -0.2677 -0.1588  0.2625
 4939W        W20408  18.169   4.843  13.697 -0.1427 -0.3460  0.1244
 4940W        W20409  16.077   1.939   1.289 -0.2996 -0.0061 -0.0076
 4941W        W20410   5.485  15.422  13.061 -0.4178  0.1568  0.3335
 4942W        W20411  17.422  14.420   0.697 -0.0343  0.0467 -0.1979
 4943W        W20412  13.984   4.747  11.466 -0.0479  0.1473  0.4005
 4944W        W20413  14.266  16.146  13.945 -0.0648  0.2709  0.0965
 4945W        W20414  13.271   0.437  15.225  0.1238  0.0706  0.0344
 4946W        W20415   2.562   6.375   3.622 -0.0909 -0.0486 -0.1244
 4947W        W20416   2.160  11.237   2.996  0.1691 -0.0873  0.0152
 4948W        W20417   4.796  15.244  13.688 -0.2776 -0.0534 -0.2171
 4949W        W20418  10.749  12.973  13.469 -0.0700  0.0347 -0.2528
 4950W        W20419  16.764   8.065   2.456 -0.0502  0.2338 -0.1407
 4951W        W20420  18.176  12.609   0.740 -0.1059  0.3771 -0.1326
 4952W        W20421  18.021   5.624   1.219 -0.1363  0.2997  0.1839
 4953W        W20422  11.309   2.635  13.600 -0.0558  0.0201 -0.1378
 4954W        W20423  18.571  16.457   3.468  0.2736 -0.2512  0.2710
 4955W        W20424   9.783   1.220  10.350  0.2532  0.2461  0.1489
 4956W        W20425   2.754   8.534   0.522  0.0812  0.1626  0.1383
 4957W        W20426   7.610   9.772   4.121 -0.0734  0.0700 -0.2515
 4958W        W20427  14.659   9.676  12.671  0.0980 -0.0242 -0.0084
 4959W        W20428  15.609  11.808  13.614  0.1881  0.1276 -0.2374
 4960W        W20429  10.823   5.205   1.923 -0.0089 -0.2689  0.0918
 4961W        W20430   4.607   6.244  10.953 -0.0004 -0.6415 -0.1128
 4962W        W20431  12.751   7.799   0.796 -0.1569  0.0614  0.0618
 4963W        W20432   2.374   8.149   0.344  0.3049  0.1687  0.1137
 4964W        W20433   6.642   4.203  12.404  0.0761  0.0775  0.1181
 4965W        W20434  15.506   8.553  13.752 -0.2271  0.3009 -0.3072
 4966W        W20435   1.193   4.637  12.085  0.2383 -0.0143 -0.3388
 4967W        W20436   8.936  15.271   4.083 -0.3216  0.1009 -0.1354
 4968W        W20437  12.395  16.435  11.073 -0.2527 -0.1579 -0.0218
 4969W        W20438  11.158   7.461   9.496 -0.0590 -0.1737 -0.1333
 4970W        W20439  15.962   9.815  15.462 -0.0132 -0.1343  0.2000
 4971W        W20440   1.594  12.902  11.089  0.0147 -0.0456  0.3107
 4972W        W20441   4.427  12.331  12.812  0.0490 -0.1166  0.0942
 4973W        W20442  11.713   7.054   1.316 -0.0406  0.0961 -0.1013
 4974W        W20443  15.428   3.672  13.559 -0.1283  0.0364  0.3429
 4975W        W20444  15.702  12.044  12.671 -0.2450 -0.2185 -0.2466
 4976W        W20445   4.113  15.497   1.921 -0.0754  0.2624 -0.1074
 4977W        W20446   1.246  14.000  14.513 -0.2248  0.1804  0.0423
 4978W        W20447  16.628   8.926   2.522  0.0793 -0.3737  0.2705
 4979W        W20448   0.499   1.853   3.417 -0.2198  0.1789 -0.0529
 4980W        W20449   7.079  11.889   4.898 -0.2117  0.2568 -0.2467
 4981W        W20450   5.394   5.267   3.096  0.3756  0.0783  0.3380
 4982W        W20451  17.941   6.785  12.912  0.4653 -0.0114  0.0566
 4983W        W20452   1.244  11.852  10.497 -0.2124  0.1754 -0.0066
 4984W        W20453  12.630  13.100  11.732  0.1115  0.3203  0.1410
 4985W        W20454  11.667  13.742   3.239  0.0970  0.0812  0.1910
 4986W        W20455  15.692  15.104   0.691 -0.2842 -0.2226 -0.2269
 4987W        W20456  10.393   9.121   1.742 -0.1837  0.2218 -0.0381
 4988W        W20457   2.355   0.591   0.505 -0.0855 -0.0773  0.3514
 4989W        W20458   6.657   5.097  11.287 -0.0038  0.1521 -0.0300
 4990W        W20459  16.580   2.950   2.163  0.1276 -0.2041 -0.3181
 4991W        W20460   8.428   2.096  11.151 -0.1925  0.1680 -0.0311
 4992W        W20461   9.632  13.317  14.177  0.1340  0.3306 -0.0786
 4993W        W20462   2.641  12.006  11.796 -0.3461 -0.1685 -0.1663
 4994W        W20463   2.029  11.856  12.282 -0.0073  0.2125  0.0296
 4995W        W20464   7.138   1.803   1.848  0.0069 -0.1873 -0.1187
 4996W        W20465  15.037  17.927  11.076  0.1827  0.1243 -0.0127
 4997W        W20466  17.377   6.656  15.600  0.1294 -0.0166  0.0852
 4998W        W20467   0.105   3.245  15.611  0.0824  0.2354  0.4270
 4999W        W20468  14.930   8.378   0.171 -0.5175  0.1132 -0.1468
 5000W        W20469  14.322   9.046   4.954  0.0914  0.1186 -0.0086
 5001W        W20470   8.532   6.649   3.307  0.0436  0.1953 -0.1230
 5002W        W20471  16.909  16.525  10.950 -0.0713  0.3155  0.0345
 5003W        W20472  16.457   0.867  11.645  0.0680 -0.2558  0.1552
 5004W        W20473  10.838  17.805   0.389  0.2986  0.2033 -0.1735
 5005W        W20474   7.781   6.898  12.937  0.0805  0.3446  0.0785
 5006W        W20475  15.447  18.021   0.067  0.1741 -0.0473 -0.1858
 5007W        W20476   9.599   3.037  12.693 -0.4091  0.1248 -0.0338
 5008W        W20477   3.116   8.161  13.069 -0.2954  0.0253  0.0487
 5009W        W20478   0.131   4.843  12.980  0.5434 -0.1574  0.1480
 5010W        W20479   8.310   2.898   4.191  0.2086 -0.1195 -0.1799
 5011W        W20480   6.886   0.080  11.682  0.1884 -0.0283  0.1154
 5012W        W20481   4.336   1.164  14.065 -0.2027  0.0272  0.0554
 5013W        W20482   8.818  17.586  11.699 -0.1331 -0.0268 -0.0381
 5014W        W20483  14.618  11.425  14.736  0.0445 -0.5001  0.0451
 5015W        W20484  18.165  17.699   5.227  0.0303 -0.2813  0.0060
 5016W        W20485  17.575  12.220  14.340 -0.1619 -0.0664  0.2618
 5017W        W20486  17.999   7.890  14.329  0.2028  0.0569  0.0524
 5018W        W20487  16.585  16.805  15.000  0.0235  0.1950  0.1514
 5019W        W20488  10.973   9.285  12.311 -0.2382 -0.0807 -0.2022
 5020W        W20489   3.226  10.023   0.604 -0.1433 -0.3114 -0.2436
 5021W        W20490  12.356   5.197   2.605 -0.1678  0.0935 -0.0654
 5022W        W20491  11.683  18.088   4.126 -0.0855  0.0824  0.1195
 5023W        W20492   5.755  16.095   5.120  0.1297 -0.0527 -0.0577
 5024W        W20493  12.275  17.401  13.049 -0.0461 -0.2496 -0.1721
 5025W        W20494   4.288   2.499  11.869  0.0700  0.0859 -0.0713
 5026W        W20495  11.475   4.304   4.326 -0.1400 -0.1348  0.1170
 5027W        W20496   1.412  11.514  10.903 -0.4419 -0.2297  0.1863
 5028W        W20497   1.542   7.810   0.495  0.2196 -0.3064 -0.0173
 5029W        W20498  15.962   8.057   2.772 -0.1084  0.1740  0.0230
 5030W        W20499   7.505   1.316   0.127 -0.1062 -0.1333  0.1609
 5031W        W20500   8.710   2.892  12.986  0.2443  0.1478  0.0037
 5032W        W20501  15.729  16.574   4.271 -0.4905  0.4064 -0.3192
 5033W        W20502   6.161   3.889  15.418 -0.3982 -0.1755  0.1919
 5034W        W20503   6.493   6.269   3.563  0.0432  0.0153 -0.1527
 5035W        W20504  18.778  14.928  10.473 -0.0964 -0.3287 -0.0721
 5036W        W20505  15.072  11.404  11.346 -0.0284  0.4239  0.4086
 5037W        W20506  14.428  12.132   1.629  0.1618  0.1856 -0.0438
 5038W        W20507   2.969  13.264   0.220 -0.3052 -0.1084 -0.0226
 5039W        W20508  14.715  10.131   4.125 -0.0558  0.1248  0.0914
 5040W        W20509   6.239   3.541  10.988  0.0958 -0.2363 -0.0789
 5041W        W20510   0.200  17.685   1.797  0.2164  0.1689  0.0194
 5042W        W20511   2.739   0.295  10.621  0.0518 -0.4859  0.0481
 5043W        W20512   1.721   1.550   5.145 -0.3005  0.4235  0.0805
 5044W        W20513  11.669   9.352   3.059 -0.0973  0.0628  0.1928
 5045W        W20514  10.748  16.480   0.985  0.0858 -0.0339 -0.0087
 5046W        W20515  13.650  15.551   3.914  0.0695  0.2080 -0.0593
 5047W        W20516  10.874   8.834  11.208  0.1445  0.1691  0.0265
 5048W        W20517   0.160  15.156   1.627  0.1061 -0.2229 -0.0689
 5049W        W20518  18.695   0.197   3.355  0.3115 -0.0656 -0.0322
 5050W        W20519  14.322  10.722   0.423  0.1902  0.2100  0.2527
 5051W        W20520  18.772  16.044  11.716 -0.0732 -0.0911  0.0822
 5052W        W20521  18.629  17.548   0.113 -0.2056 -0.0786  0.1767
 5053W        W20522  10.442   3.405   4.241 -0.1385 -0.1650 -0.2021
 5054W        W20523   6.004  17.336  13.320  0.1164  0.0988 -0.1261
 5055W        W20524   8.509  15.474   2.725  0.5320 -0.0787  0.1136
 5056W        W20525  13.078  10.891  12.953 -0.2610  0.0346 -0.0191
 5057W        W20526  13.626   6.047  11.865 -0.1927 -0.0338  0.2704
 5058W        W20527   0.713  16.556  12.930 -0.3766 -0.2757  0.1501
 5059W        W20528   2.897  14.876   2.124 -0.1409  0.3267 -0.2916
 5060W        W20529   2.938   1.420  11.390  0.3088  0.0762 -0.1400
 5061W        W20530   0.348   7.760   1.225  0.3299  0.1351 -0.3245
 5062W        W20531   6.799   4.928  11.761 -0.2919 -0.1881 -0.4360
 5063W        W20532  12.437   2.561  10.265  0.1865 -0.2994  0.2439
 5064W        W20533   5.292   7.140  15.567 -0.0500 -0.2560  0.0460
 5065W        W20534   3.897  16.683  12.394 -0.0314  0.2948 -0.2511
 5066W        W20535  10.813   0.532   0.347 -0.0436  0.2242 -0.1770
 5067W        W20536   6.574  15.860   1.375  0.0987 -0.2527 -0.3149
 5068W        W20537   3.430   5.800   1.154  0.0687  0.1406 -0.0246
 5069W        W20538   6.771   4.526  10.410 -0.1114 -0.2426 -0.2067
 5070W        W20539   5.181   1.513  10.336 -0.1189  0.0999  0.2785
 5071W        W20540   4.240   7.793  13.254 -0.0198 -0.0143  0.1397
 5072W        W20541   4.521  15.318   3.101  0.0644 -0.1940 -0.0006
 5073W        W20542   1.203  17.951  14.193 -0.2468  0.1057  0.0899
 5074W        W20543  11.887  13.814  10.498 -0.2359  0.2002 -0.0265
 5075W        W20544   2.979   3.062   4.542  0.3378 -0.1517  0.0338
 5076W        W20545   3.052  10.667  14.013 -0.0391  0.1117  0.0501
 5077W        W20546   9.510  18.047  11.880 -0.0403  0.2508 -0.1563
 5078W        W20547  11.167   2.593  14.683 -0.1216 -0.0235 -0.1641
 5079W        W20548   7.328  14.425  11.177  0.1227  0.0189 -0.3290
 5080W        W20549  10.674   7.591  14.027 -0.2526 -0.0586  0.1008
 5081W        W20550   0.606  18.510   5.040 -0.2550 -0.3074 -0.0077
 5082W        W20551   9.945  16.252   1.376 -0.1816  0.0901 -0.0086
 5083W        W20552   7.808  13.609  15.382  0.0700  0.2053  0.2820
 5084W        W20553   8.288   4.651   0.366 -0.0456  0.0039 -0.0563
 5085W        W20554   1.846   2.884  10.688  0.0617  0.1577 -0.0771
 5086W        W20555  16.303  13.606   5.403  0.3531  0.1083 -0.1429
 5087W        W20556   7.109   1.389  14.216 -0.0659 -0.0553  0.0194
 5088W        W20557   8.256   7.012   4.002 -0.3751 -0.0184  0.2981
 5089W        W20558  13.215  15.290   1.336  0.1532  0.2378 -0.2100
 5090W        W20559   7.536  10.190   1.076  0.3343  0.1802 -0.1740
 5091W        W20560  16.790   9.862  12.217  0.0721  0.1431  0.0388
 5092W        W20561   2.447  15.735   3.006  0.2832  0.2009 -0.2245
 5093W        W20562   3.591   2.758   0.379 -0.0238 -0.1483  0.0742
 5094W        W20563   3.750  12.340  11.190  0.2091  0.4320 -0.2444
 5095W        W20564  13.794   3.183   2.970  0.3321  0.0048  0.2080
 5096W        W20565   6.380  13.291   0.370 -0.2578  0.0962 -0.3868
 5097W        W20566  14.886   9.191  15.291  0.2598 -0.0102  0.2434
 5098W        W20567  17.028  10.675   3.406 -0.0928  0.1582 -0.1409
 5099W        W20568   1.177  16.378  13.521  0.1531 -0.1401 -0.2889
 5100W        W20569  16.077   3.628   1.697 -0.1454  0.1047 -0.0185
 5101W        W20570   0.134   5.288  13.974 -0.1024  0.2463 -0.0204
 5102W        W20571  11.689  16.997   2.837 -0.2302  0.1069  0.2272
 5103W        W20572  12.138   3.658   0.140  0.1027 -0.0916 -0.0260
 5104W        W20573  17.915   0.871  13.426 -0.1696  0.1819 -0.1539
 5105W        W20574   7.582  18.142  11.021  0.0112  0.2257  0.1565
 5106W        W20575  17.576  16.388  12.758 -0.2431  0.2791  0.0433
 5107W        W20576   0.233  16.380  15.275  0.0705 -0.0932 -0.2869
 5108W        W20577  12.366  16.506   0.451 -0.2517  0.2322  0.1907
 5109W        W20578   0.440  17.714   0.418  0.2247 -0.2066 -0.0184
 5110W        W20579  12.232   6.125  14.976 -0.1374  0.3037  0.0148
 5111W        W20580   9.880   2.919  14.220  0.2062 -0.0693  0.2078
 5112W        W20581  12.357   5.357   0.408  0.0877 -0.0267 -0.2009
 5113W        W20582   9.574   2.018  14.263 -0.1501 -0.0450 -0.0431
 5114W        W20583  16.554   4.425  15.184  0.3430  0.1425  0.1252
 5115W        W20584  16.173  16.646  11.608 -0.0793  0.0783  0.2846
 5116W        W20585   3.087  10.629   0.001  0.0507 -0.1778  0.4446
 5117W        W20586  18.066  16.287  14.869  0.2289  0.1613 -0.4005
 5118W        W20587   7.561  13.679  14.431  0.0609  0.1451  0.0453
 5119W        W20588   8.775   0.903  13.721  0.0360  0.1274  0.4329
 5120W        W20589  15.218  17.589  13.149  0.0560 -0.1377  0.1354
 5121W        W20590   5.895   1.887  13.572 -0.1088 -0.0819 -0.0090
 5122W        W20591  14.508   9.426   1.324  0.1268  0.0115  0.2390
 5123W        W20592  15.376  14.705  13.927  0.2038 -0.1695 -0.3307
 5124W        W20593   0.630  16.956  12.065  0.0015  0.1840 -0.2192
 5125W        W20594  13.444  13.710  10.823  0.4070 -0.2157  0.0795
 5126W        W20595   6.316  13.634   4.101  0.0002  0.0176  0.0061
 5127W        W20596   9.306  13.242   3.265  0.0928 -0.1036 -0.0348
 5128W        W20597   0.979  18.681  13.491  0.1299  0.1386 -0.0795
 5129W        W20598  17.861  17.238   0.295 -0.3397 -0.1581 -0.0612
 5130W        W20599   8.260   2.252  13.510  0.1051 -0.4324  0.1243
 5131W        W20600   0.597  11.388  14.433 -0.2419 -0.1115 -0.0214
 5132W        W20601   6.240   7.834   2.422 -0.1701  0.1423  0.0895
 5133W        W20602   1.020   2.516   2.606 -0.3370  0.1996 -0.0456
 5134W        W20603  15.387  16.561   1.766  0.0805 -0.0303 -0.2819
 5135W        W20604  15.417  11.976  12.263 -0.1335 -0.0067 -0.0552
 5136W        W20605  15.643   8.099  14.103 -0.0004 -0.2940  0.3331
 5137W        W20606   3.189   5.336  12.768  0.1279 -0.1903 -0.0213
 5138W        W20607   2.232  18.105   2.481 -0.0445 -0.0451 -0.0418
 5139W        W20608   8.292  14.533   5.110  0.0339 -0.0862  0.1600
 5140W        W20609  14.511   9.906   3.753 -0.3223  0.0404  0.0557
 5141W        W20610   2.987  18.647  15.277 -0.1510 -0.0106 -0.1335
 5142W        W20611   4.163  14.378   4.496 -0.0071  0.1532 -0.0858
 5143W        W20612  14.702   2.011  11.237  0.0961 -0.0021  0.0432
 5144W        W20613   8.110  14.331  14.083 -0.1377  0.0430 -0.0950
 5145W        W20614   5.749   4.326  10.555 -0.0880  0.1113  0.0877
 5146W        W20615   9.343  16.780  14.276  0.1426 -0.1122  0.0664
 5147W        W20616  10.838   1.662   3.385  0.0441  0.2955  0.1299
 5148W        W20617   1.273  13.073   4.280  0.1165 -0.1457  0.0326
 5149W        W20618   2.700  11.556   3.469  0.0111  0.0190  0.0477
 5150W        W20619   7.264   4.128   3.682 -0.0504  0.0995 -0.0825
 5151W        W20620  17.298  16.970   1.555  0.1872 -0.1964  0.0925
 5152W        W20621   7.644   3.221   3.618 -0.3032 -0.1517  0.3474
 5153W        W20622   6.264   1.747   2.035 -0.1724  0.3835 -0.1352
 5154W        W20623  16.571  14.811  10.845 -0.1305  0.2561  0.1931
 5155W        W20624  17.783  13.361   0.587  0.0602 -0.0363  0.0059
 5156W        W20625  17.843  18.069   5.067  0.1446 -0.0289 -0.0176
 5157W        W20626   6.025   6.982   1.836 -0.1318  0.1381  0.0788
 5158W        W20627   4.751   6.211   0.368  0.3135  0.0005  0.3989
 5159W        W20628  16.713   4.750  13.515 -0.0286  0.1206 -0.2752
 5160W        W20629  13.908  13.053  11.020  0.1299 -0.0452 -0.1436
 5161W        W20630   6.604   4.605   0.774  0.2544 -0.2072  0.0626
 5162W        W20631   6.594   9.075   0.864  0.1798 -0.2505  0.3616
 5163W        W20632   0.989   0.549  12.979 -0.2908  0.2897 -0.2336
 5164W        W20633  18.369  13.258  11.050 -0.0194  0.0099 -0.1069
 5165W        W20634   2.937  10.433   5.822 -0.3247  0.0103 -0.2756
 5166W        W20635   6.723  15.962   4.207 -0.0672 -0.1338 -0.0522
 5167W        W20636   3.371  10.676  10.698  0.2159 -0.1889  0.3289
 5168W        W20637   3.913   3.202   5.497  0.0533 -0.0046  0.0618
 5169W        W20638   3.911   1.756   5.257  0.2251  0.1297  0.2107
 5170W        W20639   0.387  12.309   4.137 -0.0836 -0.0467 -0.0987
 5171W        W20640   6.510   1.322   2.470 -0.2436 -0.2903 -0.0640
 5172W        W20641  11.421  11.215  13.655 -0.0380 -0.2685  0.1429
 5173W        W20642  16.300  15.586   5.265  0.2287  0.1357  0.1094
 5174W        W20643  14.705   2.453   3.732  0.1852  0.2446  0.0393
 5175W        W20644  15.890  10.393  13.690  0.0753 -0.1401 -0.1367
 5176W        W20645  12.633  14.334   4.257 -0.1499  0.2450  0.0559
 5177W        W20646   0.265   7.742  14.498  0.1444  0.2615 -0.1468
 5178W        W20647   1.220   5.533   5.372 -0.0768  0.0891  0.0799
 5179W        W20648  17.901   4.838  14.198 -0.2670 -0.0857  0.4569
 5180W        W20649   3.250   0.887   0.456 -0.2050 -0.0503 -0.2266
 5181W        W20650   0.673   9.051  10.594 -0.1713 -0.0549 -0.3615
 5182W        W20651  10.677  14.552  11.622 -0.1161  0.1999  0.1481
 5183W        W20652  16.041  16.171  10.744 -0.0842  0.1179 -0.0640
 5184W        W20653   9.583   3.361   1.784 -0.5129  0.0193 -0.2680
 5185W        W20654  12.886  10.040  11.263 -0.0058  0.1304  0.1559
 5186W        W20655   2.255   6.519  10.879 -0.0063 -0.2498 -0.1616
 5187W        W20656   5.840  15.291  14.528 -0.1584 -0.0866 -0.6803
 5188W        W20657   8.211  13.828  15.186  0.1277  0.1894 -0.0247
 5189W        W20658  16.961  10.977   3.823  0.4660  0.1714 -0.0200
 5190W        W20659   7.150   5.088   0.187  0.0399  0.1979 -0.2521
 5191W        W20660   1.973  13.085   2.692  0.2162  0.0750  0.0240
 5192W        W20661   1.884   1.870   0.287 -0.2353 -0.0528 -0.0051
 5193W        W20662   4.004   9.363  14.299 -0.1063 -0.0616 -0.0566
 5194W        W20663   8.409   3.676   2.620 -0.1962  0.0220  0.0326
 5195W        W20664   1.299   2.555   0.233 -0.0287 -0.0507  0.0593
 5196W        W20665   3.508  18.265  14.572  0.1141  0.2688 -0.2238
 5197W        W20666   9.140  14.223   0.249  0.0865  0.1063 -0.1189
 5198W        W20667   0.220   6.855   5.916  0.0236  0.3718  0.1237
 5199W        W20668   6.356   6.791   3.716  0.0135  0.1589  0.0043
 5200W        W20669   0.186  15.439   3.880  0.3117 -0.1260  0.1216
 5201W        W20670   1.970   3.209   5.338 -0.1191  0.1500 -0.1298
 5202W        W20671  17.822   0.821  12.373  0.0550 -0.2963 -0.2052
 5203W        W20672   5.302   9.666  12.711  0.1911  0.0101 -0.3052
 5204W        W20673   8.787   5.989   4.274  0.0551 -0.0086 -0.0840
 5205W        W20674   9.338   4.687   4.520  0.4048  0.2133  0.4370
 5206W        W20675   9.686  13.977   0.126 -0.3076  0.0625  0.1330
 5207W        W20676   4.718   5.495   4.015 -0.0706 -0.2536  0.0104
 5208W        W20677   0.557   1.026  13.246 -0.0275  0.1784  0.3793
 5209W        W20678   0.185  17.641  14.094  0.1836 -0.0936  0.1002
 5210W        W20679  10.003  14.521   0.348  0.1211 -0.1700  0.0293
 5211W        W20680  16.641   7.352  12.379  0.3358 -0.0148 -0.3885
 5212W        W20681  17.056   1.331   1.882 -0.1846 -0.0165  0.0389
 5213W        W20682   6.370   5.527   4.668 -0.1008  0.2456  0.1256
 5214W        W20683   1.175   4.629  13.068 -0.1543 -0.0820 -0.2344
 5215W        W20684   0.540  11.954  11.150  0.0786  0.1605  0.0469
 5216W        W20685  12.615   4.639  11.501  0.2293 -0.0021 -0.1996
 5217W        W20686  18.680   8.347   4.275 -0.0332 -0.2033  0.0169
 5218W        W20687   4.243   4.493   1.505  0.1058 -0.0089  0.0645
 5219W        W20688  15.025   2.107   0.996 -0.1934  0.0254 -0.0566
 5220W        W20689   2.427   9.973  15.667 -0.2244  0.1699  0.3900
 5221W        W20690  17.727  12.328  11.533 -0.2244 -0.1667 -0.2413
 5222W        W20691   2.456   4.060   1.777  0.1403 -0.0034 -0.3424
 5223W        W20692  14.011   7.017   4.280  0.0344  0.2679 -0.2436
 5224W        W20693  13.105   6.247  14.689  0.1152 -0.3360 -0.3796
 5225W        W20694  14.564   5.738  12.428 -0.1146  0.2627  0.0942
 5226W        W20695  16.461   8.005   0.368  0.2331 -0.2643 -0.5822
 5227W        W20696  13.246  12.370   5.105  0.2591 -0.4003 -0.0954
 5228W        W20697   6.418  18.764  15.044 -0.3071  0.1149 -0.3615
 5229W        W20698   3.156   1.820   4.881 -0.0517 -0.0119  0.0340
 5230W        W20699   9.158  17.540  13.425 -0.0309 -0.0083 -0.2997
 5231W        W20700  13.924   4.025  12.548  0.1466  0.1081 -0.0193
 5232W        W20701  16.898  11.672   4.778 -0.2643  0.0381 -0.1647
 5233W        W20702   3.239  12.647   9.779 -0.0021 -0.0817 -0.3659
 5234W        W20703   4.988  12.513   2.945 -0.2757  0.1985  0.1606
 5235W        W20704   3.228   2.446   0.385 -0.2620 -0.1789  0.0703
 5236W        W20705   6.635  11.485  13.706  0.3723  0.1246  0.1538
 5237W        W20706  15.307   5.617  12.496  0.0968 -0.5833 -0.0083
 5238W        W20707  12.554  17.873   3.870 -0.0592  0.1230 -0.2674
 5239W        W20708  13.508  11.918  13.215  0.1456 -0.1361 -0.0410
 5240W        W20709   5.955   6.974  14.554  0.0260 -0.1028  0.0409
 5241W        W20710  13.690   5.776  14.030 -0.1279 -0.3255  0.2499
 5242W        W20711   2.591  18.732   3.265 -0.1817 -0.1555  0.1584
 5243W        W20712  13.074   2.262   1.411  0.1145 -0.0667  0.0827
 5244W        W20713  14.202  17.305   0.408  0.4305  0.0404  0.1724
 5245W        W20714   1.419  18.590  13.714  0.1039 -0.0766 -0.0122
 5246W        W20715  11.681   0.267   1.650  0.2165  0.1192 -0.1097
 5247W        W20716  18.771   2.249   0.867 -0.1544  0.1855 -0.2296
 5248W        W20717   9.382  17.229  12.439  0.0826 -0.1420  0.2959
 5249W        W20718  12.451  16.383   5.160  0.3729  0.0387  0.1857
 5250W        W20719  17.743  16.197  15.269  0.0618  0.0136 -0.1257
 5251W        W20720   6.269   1.135   1.364 -0.2815  0.1411 -0.0253
 5252W        W20721   4.191  17.614  11.120 -0.0878  0.1173  0.0828
 5253W        W20722   5.685  15.476   0.720  0.1503  0.2324 -0.0279
 5254W        W20723   6.765  17.020  11.281  0.1742  0.2831  0.0405
 5255W        W20724   8.089   4.932  11.350 -0.3793  0.3619 -0.1650
 5256W        W20725   0.290   1.544   3.772  0.1560 -0.1263  0.0439
 5257W        W20726   9.674  10.610  11.958 -0.1666  0.0450  0.3153
 5258W        W20727  17.444  11.179   0.215 -0.0547  0.1635 -0.1006
 5259W        W20728  12.482   4.824   2.916 -0.0658  0.0007 -0.0423
 5260W        W20729  11.175   9.199  11.129  0.2827 -0.2253 -0.1773
 5261W        W20730  18.444   7.254  13.464  0.2567 -0.0498 -0.0697
 5262W        W20731   0.658  16.498  13.401 -0.1267  0.0962 -0.0643
 5263W        W20732  16.682   6.404   2.599 -0.1619 -0.0987 -0.0187
 5264W        W20733  11.777  14.834  15.475 -0.0884  0.0007  0.1071
 5265W        W20734   6.739  17.886  15.297 -0.2020  0.0018  0.0250
 5266W        W20735  11.032   2.466  11.123  0.0329  0.0520 -0.2228
 5267W        W20736   3.434  17.570  12.559 -0.0799 -0.3437  0.1812
 5268W        W20737   8.351   7.900   3.530 -0.0107  0.3424  0.2890
 5269W        W20738  12.062  10.197  13.730  0.2369 -0.1377  0.1713
 5270W        W20739   9.609   2.614  15.100 -0.2049 -0.2253  0.0846
 5271W        W20740  16.466  14.037   0.483  0.0466 -0.0171 -0.0155
 5272W        W20741   5.748   3.269  11.784  0.0476 -0.0294 -0.2754
 5273W        W20742   9.740   5.524  15.139 -0.1158 -0.0421  0.0106
 5274W        W20743   2.846   8.414  11.656 -0.0798  0.2126 -0.1008
 5275W        W20744   0.256  13.372   3.165 -0.1036  0.1652 -0.1980
 5276W        W20745  16.983  18.328  11.494  0.0246  0.1194 -0.1675
 5277W        W20746   3.013  12.308   5.247 -0.0259  0.0486  0.0297
 5278W        W20747   5.528  11.821   0.095  0.3095  0.0443  0.3970
 5279W        W20748   2.223   1.682   0.628 -0.1409 -0.0526 -0.0390
 5280W        W20749   7.649   8.159   2.463 -0.0512 -0.1042  0.2018
 5281W        W20750   5.701  15.263   0.263 -0.1967  0.0716 -0.1912
 5282W        W20751   9.410  17.497   4.798  0.1363  0.0376 -0.2803
 5283W        W20752  11.635   8.662  10.723  0.0007  0.0998  0.2819
 5284W        W20753   2.298  16.115  10.257  0.0371  0.1670  0.1798
 5285W        W20754  13.051   6.116   1.224  0.1339 -0.2241 -0.4101
 5286W        W20755   5.477  17.576  14.035  0.2004 -0.1573 -0.1853
 5287W        W20756   0.098  15.598   0.083 -0.2444 -0.2052  0.0616
 5288W        W20757  10.918  17.521  12.038 -0.1611 -0.0226  0.1072
 5289W        W20758   6.379  14.850   2.319  0.0618  0.0816  0.1439
 5290W        W20759   6.873  12.234   0.548 -0.0129  0.1999 -0.1772
 5291W        W20760   5.132   5.539   0.626 -0.0003  0.2253 -0.0924
 5292W        W20761   7.209   7.628  13.090 -0.0226  0.4278 -0.0147
 5293W        W20762  11.319   6.736   4.966  0.0226  0.0224  0.0026
 5294W        W20763  16.438  18.579  14.364 -0.2699 -0.4749  0.0233
 5295W        W20764   6.534   2.632   2.011 -0.4510 -0.0196 -0.0828
 5296W        W20765  13.569   8.965   0.835 -0.1058 -0.0956 -0.1490
 5297W        W20766  16.828   8.250  11.224 -0.0039 -0.0237  0.1968
 5298W        W20767  12.103  11.056  14.072 -0.1549  0.2787 -0.0596
 5299W        W20768   3.982   4.083  13.891 -0.3610 -0.0450 -0.0082
 5300W        W20769   5.429  16.041   1.816 -0.2689 -0.0458  0.0338
 5301W        W20770   3.115  10.254  10.865  0.0498 -0.5931  0.2001
 5302W        W20771  14.728  11.133   1.783  0.1919 -0.1004 -0.0820
 5303W        W20772   8.599   1.753   3.579  0.0968 -0.0464 -0.0271
 5304W        W20773   2.781   2.170  12.028 -0.2420  0.4632  0.2872
 5305W        W20774  14.562   5.567   5.007  0.0977 -0.1436  0.1292
 5306W        W20775   5.442  17.295  15.418  0.0808  0.0862 -0.1316
 5307W        W20776  16.622  18.666  11.332 -0.0890 -0.4966 -0.1270
 5308W        W20777   5.600  14.216  13.764  0.0945  0.1510 -0.3192
 5309W        W20778   5.917   9.860  11.291 -0.0849  0.0445 -0.3607
 5310W        W20779   2.844   1.592   4.555  0.0465  0.0266 -0.1689
 5311W        W20780   2.993   9.691  12.228  0.0572  0.0587 -0.0812
 5312W        W20781  14.845  11.871   3.386 -0.0253  0.0689  0.4475
 5313W        W20782  18.183   7.198   5.495 -0.1468  0.2258  0.0213
 5314W        W20783   3.021  14.571  11.355  0.1545 -0.3683  0.1662
 5315W        W20784   5.346   4.357   0.719  0.3466  0.0700 -0.1939
 5316W        W20785  11.802   2.858   4.095 -0.0507 -0.0734 -0.1330
 5317W        W20786   0.593  15.872  14.628  0.4261  0.1979 -0.2009
 5318W        W20787  18.323   3.804   1.289  0.0465 -0.2040  0.0048
 5319W        W20788   7.667  12.624   0.475  0.0142  0.0931 -0.0750
 5320W        W20789   6.679  15.341   2.837 -0.1935  0.0197 -0.0950
 5321W        W20790  16.732   9.639   4.632  0.1092 -0.1369 -0.1207
 5322W        W20791   2.494  18.285   0.208 -0.2218 -0.0084 -0.0265
 5323W        W20792  12.493  13.327   1.749  0.3261  0.0711 -0.1778
 5324W        W20793   1.124   2.735   4.534 -0.0538  0.4223 -0.0481
 5325W        W20794  16.101  11.860  15.173  0.1947  0.2389 -0.1320
 5326W        W20795  11.747  17.951  12.365 -0.0137  0.0931  0.0533
 5327W        W20796   7.796   0.509  12.733 -0.1573  0.2232 -0.0482
 5328W        W20797  14.812  17.992  13.747  0.1035  0.2838  0.2179
 5329W        W20798   5.282  16.109  14.764  0.2332 -0.1421  0.3198
 5330W        W20799   2.250  15.945   4.392  0.3532 -0.3680 -0.2810
 5331W        W20800   2.391  15.967   5.009  0.6086  0.0060  0.0354
 5332W        W20801  12.435   1.538  14.900  0.0059  0.0120 -0.1147
 5333W        W20802   0.566  15.735   3.760  0.0074 -0.1173 -0.1913
 5334W        W20803   6.467  18.235   2.208  0.6027  0.0410 -0.2673
 5335W        W20804  18.751  16.157   0.035 -0.0366  0.2890 -0.0336
 5336W        W20805  12.270   9.079   1.835  0.1716 -0.1076 -0.3276
 5337W        W20806   6.999   4.067  14.229  0.1123 -0.1244 -0.1276
 5338W        W20807   3.696   3.707   3.762 -0.2210  0.2013 -0.2228
 5339W        W20808   2.503   6.930  13.750  0.0345  0.0457  0.0450
 5340W        W20809  12.231  10.782   3.387 -0.0793 -0.1088  0.1034
 5341W        W20810   8.674  10.463   3.267  0.0578 -0.0736 -0.1221
 5342W        W20811   4.277  12.000   0.323 -0.1271 -0.0216  0.1110
 5343W        W20812  12.157  10.429   2.667  0.2018  0.0058 -0.2980
 5344W        W20813   3.877   9.142   2.105 -0.0438  0.0758  0.1629
 5345W        W20814  18.002  12.927   2.323  0.4712  0.1018 -0.2183
 5346W        W20815   9.506   8.785   1.454  0.0941 -0.0426  0.2301
 5347W        W20816   2.694   0.160  14.906  0.1950  0.0596 -0.0376
 5348W        W20817  11.122  13.912   2.356  0.2987 -0.1230  0.1130
 5349W        W20818  15.545  13.818   2.041 -0.1698  0.0237 -0.1721
 5350W        W20819  12.685   8.790   1.795  0.1508 -0.1776  0.3118
 5351W        W20820   4.175   4.677  13.396  0.2321  0.0621  0.0728
 5352W        W20821   1.699   1.475  12.047 -0.1692  0.3359  0.2867
 5353W        W20822   7.348   6.282   3.650  0.2057  0.1286 -0.1562
 5354W        W20823  15.623   4.414  11.723  0.3254 -0.0532  0.2007
 5355W        W20824  17.338  18.163  15.068 -0.0670 -0.0701  0.5190
 5356W        W20825  12.875  18.263  15.171 -0.0194  0.1602  0.2459
 5357W        W20826  17.545   8.659   0.956  0.2222 -0.0455  0.2851
 5358W        W20827  15.458   1.362   2.967 -0.1233  0.1096 -0.1161
 5359W        W20828  18.188  10.117   4.792  0.1834  0.0802  0.0889
 5360W        W20829  16.958  12.417   4.347 -0.1058  0.0613  0.1237
 5361W        W20830   6.710   6.622  10.460  0.1633 -0.0758 -0.0425
 5362W        W20831   9.810  11.049  12.105 -0.1100  0.3598 -0.0642
 5363W        W20832  12.162   4.136  15.436 -0.4151  0.0510 -0.1847
 5364W        W20833  12.421  18.726   2.408 -0.2215 -0.2507 -0.1342
 5365W        W20834  15.077  15.222  10.320  0.1895 -0.0749  0.1563
 5366W        W20835   9.974  18.297   5.969 -0.0986 -0.0441 -0.0017
 5367W        W20836   2.573  12.755  10.981  0.2914  0.2558  0.0949
 5368W        W20837  10.178   6.465  11.890  0.3568 -0.0557  0.1517
 5369W        W20838  14.937  16.436   4.773  0.0671 -0.2257 -0.1613
 5370W        W20839  14.359   3.445   4.715  0.1953 -0.1243  0.4738
 5371W        W20840  13.031  13.978  10.564 -0.0656 -0.2802  0.0001
 5372W        W20841  11.388   3.052  14.858 -0.2356 -0.3072  0.1161
 5373W        W20842   7.537  16.302  14.464  0.1000  0.0835  0.2156
 5374W        W20843  13.048   0.991   1.258  0.1083  0.2125 -0.3601
 5375W        W20844   2.952  14.926  10.916 -0.2354  0.1456  0.1071
 5376W        W20845   8.187   4.858  10.502  0.1645 -0.3186  0.1155
 5377W        W20846  17.602  11.385   1.304 -0.0721 -0.1718 -0.0637
 5378W        W20847   0.810  16.022   6.140  0.1051  0.1123 -0.1866
 5379W        W20848  18.269  11.412   3.106  0.0587  0.3639  0.1203
 5380W        W20849  13.209   4.707  14.254  0.1532 -0.1049 -0.0454
 5381W        W20850  14.261  11.351  14.398  0.0552  0.0054  0.1053
 5382W        W20851  14.080   5.068   4.028 -0.1114 -0.2817  0.0040
 5383W        W20852  15.983   3.220   2.804 -0.1503 -0.1859 -0.2292
 5384W        W20853   1.604   1.041  15.114  0.0103  0.0878  0.0387
 5385W        W20854  14.114  15.025  14.781 -0.0419  0.2435 -0.1963
 5386W        W20855   9.328  15.243  14.913  0.0124  0.2129 -0.1490
 5387W        W20856   0.771  11.086   2.970  0.1156  0.0834  0.0229
 5388W        W20857  13.674  17.471   0.627 -0.1715 -0.1873 -0.3585
 5389W        W20858  18.597  12.237   3.492 -0.2749 -0.3033 -0.0235
 5390W        W20859   2.883   0.190   5.696  0.3262  0.0298 -0.2775
 5391W        W20860   4.546   0.975  11.670 -0.2408  0.2169  0.0436
 5392W        W20861  18.616  13.079  11.759  0.0411 -0.3095  0.0062
 5393W        W20862   3.684  17.718   4.976 -0.1536  0.1707  0.0491
 5394W        W20863  12.001  12.122   1.382 -0.0341  0.1241  0.2576
 5395W        W20864   6.296   8.730   2.121  0.0945 -0.4234 -0.2448
 5396W        W20865  18.489  11.106   0.013  0.0871  0.2020 -0.1227
 5397W        W20866   6.574   7.908  12.138 -0.1838  0.0230 -0.2569
 5398W        W20867   7.661   9.880   2.088  0.0565 -0.1234  0.0289
 5399W        W20868   9.217   9.384  11.062  0.1037 -0.1690  0.0799
 5400W        W20869   6.914   4.804   1.237  0.2147 -0.2288  0.0087
 5401W        W20870  12.970   0.996  11.048 -0.0822 -0.0336  0.3356
 5402W        W20871   6.108  17.813   5.238  0.3448 -0.0928  0.2613
 5403W        W20872  11.006   5.400   5.209  0.1887  0.0349  0.2638
 5404W        W20873  13.365  16.576   4.007  0.0703 -0.2590  0.3946
 5405W        W20874   5.082  13.563  11.403  0.1485 -0.2413  0.2212
 5406W        W20875  15.570   6.048  14.342 -0.1736  0.3104 -0.2116
 5407W        W20876  16.262   8.072   1.776 -0.0012  0.1974 -0.1939
 5408W        W20877   4.393  11.391   2.595  0.0817 -0.1740 -0.0531
 5409W        W20878   5.898   8.108   3.823 -0.2108 -0.1147 -0.0702
 5410W        W20879  16.784   2.969  15.037  0.1237 -0.0355 -0.2108
 5411W        W20880  17.351   4.478  14.371 -0.1425  0.2434  0.0747
 5412W        W20881  16.912  11.040  13.417  0.0912  0.0948 -0.1569
 5413W        W20882   3.081   4.957   0.972  0.4493 -0.3575  0.0424
 5414W        W20883   2.961   6.632   3.562 -0.1531 -0.0573  0.0356
 5415W        W20884   9.297  17.388   4.319  0.0614 -0.0572 -0.1002
 5416W        W20885  10.379   7.946  14.926  0.0341 -0.1360  0.0087
 5417W        W20886  13.749  17.184  15.344  0.5749 -0.0641 -0.0024
 5418W        W20887  14.431  15.882   2.104  0.0887 -0.0845 -0.0346
 5419W        W20888   2.222   8.029  14.009  0.1056 -0.0328 -0.0419
 5420W        W20889   2.338   1.651  10.912 -0.1147 -0.0930  0.0779
 5421W        W20890  11.740   9.705   5.344 -0.0786 -0.1902  0.6311
 5422W        W20891  11.558   3.401   5.137  0.0182 -0.1176  0.1417
 5423W        W20892  16.932   4.542  10.858  0.0152  0.2700  0.2700
 5424W        W20893   1.292   2.859  14.866 -0.2990 -0.1875 -0.1782
 5425W        W20894   2.116   5.999  12.914 -0.1529  0.1040  0.1885
 5426W        W20895   9.998  10.054   0.895  0.2994 -0.3730 -0.4530
 5427W        W20896   5.558   9.155  11.781 -0.4055  0.0866  0.0021
 5428W        W20897  14.379   1.702  11.474  0.0570 -0.2199 -0.1338
 5429W        W20898   3.660   9.869   2.705  0.3588 -0.2840  0.1300
 5430W        W20899  11.416   9.424  11.998  0.2035 -0.2549  0.2650
 5431W        W20900  17.679  11.632  15.480  0.1893 -0.1369  0.1071
 5432W        W20901  10.689  17.772  12.483  0.2596  0.2117 -0.0756
 5433W        W20902  17.315   6.788   5.383 -0.0639 -0.2506 -0.0997
 5434W        W20903   8.878  16.097  12.197 -0.1234  0.0505 -0.2509
 5435W        W20904   8.089   9.197   2.470 -0.2031 -0.1663 -0.2784
 5436W        W20905  14.686   6.795  10.808 -0.1625  0.2289 -0.0376
 5437W        W20906  11.742  18.469  14.734  0.0845 -0.1612 -0.1613
 5438W        W20907  12.245  17.251   5.068  0.2456  0.0393 -0.0807
 5439W        W20908   2.641   0.100   1.474  0.2160 -0.0050 -0.2441
 5440W        W20909  12.512   2.389   4.584  0.1553 -0.0209 -0.0496
 5441W        W20910  18.685  12.637  13.268  0.0103  0.0967 -0.1486
 5442W        W20911   2.202   6.230  12.123 -0.1196  0.1940 -0.2109
 5443W        W20912  11.742  15.161   0.901  0.0110 -0.4312  0.2409
 5444W        W20913  11.279   5.416   2.678 -0.0199 -0.4619 -0.1346
 5445W        W20914   4.600  18.328  15.290  0.1134 -0.3475 -0.0431
 5446W        W20915   1.968   7.437  11.273 -0.4211  0.0228  0.3041
 5447W        W20916  11.620  12.881   2.152 -0.0524 -0.1671 -0.2367
 5448W        W20917  11.525  15.513  12.790 -0.0539  0.0761 -0.0406
 5449W        W20918   8.255   2.238  14.582  0.1819  0.0543 -0.2393
 5450W        W20919   1.193   3.982  14.575 -0.1280  0.0377 -0.3550
 5451W        W20920   5.335  12.260   2.009  0.1207  0.1311  0.1011
 5452W        W20921   8.956   2.564  13.986 -0.3304  0.0482 -0.2714
 5453W        W20922  11.317   8.402   4.794 -0.2815  0.0373 -0.2822
 5454W        W20923   1.091   6.423   3.261 -0.1733 -0.4188  0.2574
 5455W        W20924   3.376   4.863  14.874 -0.0976 -0.1976 -0.1967
 5456W        W20925   0.659   2.437   3.883 -0.2942 -0.2182  0.3964
 5457W        W20926   7.965  18.102   3.129  0.0847 -0.0193 -0.0165
 5458W        W20927   9.881   2.598   1.053  0.0151  0.1743 -0.0108
 5459W        W20928   6.132  16.781   2.473  0.2117  0.3312 -0.3452
 5460W        W20929   4.092   3.589  13.789 -0.1119  0.2084  0.4415
 5461W        W20930   7.821   4.215   3.495 -0.1968 -0.1355  0.0194
 5462W        W20931  12.283   3.021   4.161  0.0581  0.0497 -0.0203
 5463W        W20932   0.453   8.481   1.840 -0.1747  0.2788  0.1672
 5464W        W20933  13.184  17.195   0.549 -0.3502 -0.0587 -0.2159
 5465W        W20934   7.990  13.397   4.965  0.0615  0.2635 -0.0832
 5466W        W20935   3.924  12.820   1.278  0.1405  0.0158 -0.3131
 5467W        W20936  14.578   4.489  15.334  0.2556 -0.0054 -0.3150
 5468W        W20937   0.855   7.908  15.550 -0.0871  0.0170 -0.2382
 5469W        W20938   1.655  12.420  14.433  0.0355 -0.1045 -0.1263
 5470W        W20939   5.589  17.502   0.690 -0.4534  0.0998 -0.2884
 5471W        W20940  10.952   6.326   2.357  0.1828  0.0688  0.2249
 5472W        W20941   5.288   0.611  14.131  0.1337 -0.1593  0.0591
 5473W        W20942   7.007   9.426   2.786  0.0140 -0.2287 -0.2468
 5474W        W20943  10.180  16.965   3.100  0.0573  0.0622 -0.0953
 5475W        W20944   6.760  10.937   1.320 -0.3089 -0.1671 -0.0901
 5476W        W20945   2.087  17.700  15.635  0.0711  0.3019  0.1259
 5477W        W20946  14.148  10.210   3.897  0.0409  0.4810  0.1950
 5478W        W20947   5.718   2.787  11.931 -0.0995 -0.1340 -0.0128
 5479W        W20948  12.098  10.359  12.378  0.4795 -0.1136 -0.0042
 5480W        W20949   6.723   9.178   2.086 -0.0445  0.0282 -0.1164
 5481W        W20950   6.755  18.485  12.134 -0.3286  0.0369 -0.0991
 5482W        W20951  13.984  10.399   2.348  0.0696 -0.2725  0.1622
 5483W        W20952   6.869  14.269   4.851 -0.6415 -0.1726 -0.1076
 5484W        W20953   2.400   5.409  13.643  0.0960 -0.2467  0.4307
 5485W        W20954  11.179  16.710  13.247 -0.0027 -0.3212 -0.2685
 5486W        W20955   8.091  15.062   5.360 -0.0449  0.3236  0.0989
 5487W        W20956   4.229  15.130   4.933  0.0146 -0.0166 -0.3604
 5488W        W20957  14.373   6.887  11.152  0.0774 -0.2372  0.0713
 5489W        W20958   4.015  14.143  12.926 -0.1271 -0.1175  0.2148
 5490W        W20959   1.022  16.620   0.533  0.1895 -0.3829 -0.0433
 5491W        W20960   3.204   4.697   2.356  0.0952  0.0455  0.2013
 5492W        W20961   4.367   2.216  12.305 -0.1218 -0.1691 -0.2351
 5493W        W20962  14.787  11.793  14.296 -0.3780 -0.0277 -0.0590
 5494W        W20963  10.623   0.810   3.399  0.2381 -0.3412 -0.3460
 5495W        W20964  18.311   7.332   5.942 -0.0879  0.0229 -0.0931
 5496W        W20965  17.295   7.748  11.264  0.0924 -0.3396 -0.0751
 5497W        W20966  13.686  10.877  15.193 -0.0020 -0.0437 -0.4154
 5498W        W20967  17.876  14.710   3.651  0.3554  0.1046 -0.0936
 5499W        W20968   5.010  15.134  10.852  0.0866 -0.1231 -0.0522
 5500W        W20969   7.887  16.576  14.597 -0.1509  0.0511 -0.0464
 5501W        W20970  12.789   9.586   4.110  0.0956  0.1195 -0.2117
 5502W        W20971  10.925  10.616   5.292  0.2213 -0.0857 -0.1030
 5503W        W20972   3.563   4.122   2.775  0.2680  0.1864 -0.1225
 5504W        W20973   8.882  15.420  14.661 -0.2106 -0.1997  0.0045
 5505W        W20974  10.390  17.958  13.390 -0.0894 -0.1400 -0.2015
 5506W        W20975  16.491  12.564  13.958  0.2356 -0.0813  0.0234
 5507W        W20976   8.473  15.966  14.160  0.1267 -0.0030  0.0696
 5508W        W20977  11.684   2.632  14.849  0.0775 -0.1472  0.0761
 5509W        W20978  16.856   9.617  12.677 -0.1686  0.2943 -0.3362
 5510W        W20979  16.327  12.911   4.968  0.1697 -0.0374  0.0274
 5511W        W20980   9.871   5.609  12.784 -0.3595  0.1622  0.2293
 5512W        W20981  10.815   0.445   2.804 -0.1357  0.1730  0.0551
 5513W        W20982   6.747  12.604   3.251  0.4089 -0.1760 -0.3735
 5514W        W20983  17.734  14.918  12.882  0.3621  0.1170 -0.0894
 5515W        W20984  15.567  10.975  12.604  0.1240 -0.1245  0.1353
 5516W        W20985  17.663  16.180  14.341 -0.3245 -0.3610 -0.0465
 5517W        W20986  10.351   7.148   1.443  0.0435 -0.1243  0.1635
 5518W        W20987  14.865  13.737   0.786 -0.4030  0.0363 -0.1223
 5519W        W20988   1.292   1.447   4.869  0.3370 -0.1025 -0.0920
 5520W        W20989  13.044  14.882   2.282 -0.2763  0.2821  0.2563
 5521W        W20990  15.639  11.917   1.637 -0.0365 -0.0701 -0.0576
 5522W        W20991   9.019  10.995  15.083  0.1337  0.2547  0.1651
 5523W        W20992  16.061   6.248   2.000 -0.0454 -0.0124  0.0895
 5524W        W20993  15.788   8.848  14.205 -0.3087 -0.2740  0.1661
 5525W        W20994  11.230   7.964  12.163  0.2475  0.0467  0.0625
 5526W        W20995   8.723   4.907  12.451 -0.1244 -0.1280 -0.1977
 5527W        W20996   2.487   6.788  11.594 -0.1261  0.5256 -0.2941
 5528W        W20997  18.448  11.622   2.076  0.0974  0.1270 -0.1848
 5529W        W20998   7.396   6.992  12.369 -0.0513  0.1507 -0.0678
 5530W        W20999  11.398  14.617  10.671 -0.3671  0.0369  0.0646
 5531W        W21000  12.195   9.854   2.977  0.0819  0.1128  0.4478
 5532W        W21001  14.825  14.983   0.814  0.3194  0.2447 -0.0133
 5533W        W21002  17.619  16.302  11.443 -0.0596  0.0604 -0.2199
 5534W        W21003  17.111  18.631   5.665 -0.1516  0.0956 -0.2117
 5535W        W21004  16.866  13.051  13.371  0.2245 -0.1269  0.0364
 5536W        W21005   5.833  13.130  14.997  0.1151  0.1315  0.0768
 5537W        W21006  14.725   0.113  13.391 -0.3344 -0.2717 -0.3036
 5538W        W21007   2.886  15.652  13.151 -0.0731  0.1845 -0.0700
 5539W        W21008   5.258  12.376   3.458 -0.2692 -0.0188 -0.0001
 5540W        W21009  10.328  16.842  11.557  0.0643  0.0138  0.2507
 5541W        W21010   8.651   6.007  10.694 -0.2003  0.1915 -0.1617
 5542W        W21011   3.597   8.222   4.981  0.2533  0.0884 -0.0172
 5543W        W21012  18.515  16.622  14.073  0.0231 -0.0416  0.1980
 5544W        W21013   0.020   5.085   5.043  0.0564  0.0171  0.2122
 5545W        W21014  14.887  16.031  11.963  0.0727  0.1014 -0.2138
 5546W        W21015  14.305   1.117  15.188  0.1519 -0.0557  0.0646
 5547W        W21016  12.724   3.822  12.656 -0.0434 -0.0821 -0.0813
 5548W        W21017  12.336   3.953  14.474  0.1546 -0.0933  0.1050
 5549W        W21018   7.455  10.371  13.511  0.2575 -0.1223  0.2096
 5550W        W21019   2.436  11.108   0.483  0.1537 -0.0234 -0.0832
 5551W        W21020   5.867   8.949  11.414  0.0725  0.0141 -0.2517
 5552W        W21021  14.928   8.688  11.984 -0.2804  0.1231 -0.1207
 5553W        W21022   7.657   5.334  10.719  0.3948 -0.0409 -0.0763
 5554W        W21023   3.385   8.359  11.756 -0.1257  0.1294  0.0508
 5555W        W21024  10.733  11.484   2.455 -0.3858 -0.2586  0.0672
 5556W        W21025  10.243   5.343   1.059 -0.3306  0.1916 -0.2454
 5557W        W21026   4.988  14.456  13.287 -0.0035  0.2554  0.1528
 5558W        W21027   5.826   1.000   0.954 -0.2553  0.0018  0.1822
 5559W        W21028  17.751  16.474  10.658 -0.3487 -0.1558 -0.2340
 5560W        W21029  11.232  16.447  12.661 -0.1841 -0.1381 -0.3623
 5561W        W21030   7.833   3.301   0.151 -0.1288 -0.1773 -0.0626
 5562W        W21031   3.149  14.148   0.570 -0.1124 -0.0810 -0.0394
 5563W        W21032  18.370  17.632   6.066 -0.0876 -0.0539  0.1148
 5564W        W21033  14.489  13.133  11.430 -0.1487  0.0064  0.0699
 5565W        W21034   8.491  13.964   3.061 -0.0197 -0.3137 -0.0706
 5566W        W21035  14.326   4.274  12.239  0.0645  0.0529  0.1176
 5567W        W21036   6.168  10.039   1.180  0.1370  0.2024  0.0988
 5568W        W21037  13.358  15.258   4.769  0.0168  0.3071 -0.0670
 5569W        W21038   7.790  14.775   4.969  0.1568  0.0949  0.3233
 5570W        W21039  16.534   5.246   5.067  0.4749 -0.1860  0.1724
 5571W        W21040   4.980   7.650  10.487  0.1572  0.0440  0.1505
 5572W        W21041  12.057   8.495   0.564  0.1088 -0.1406  0.0356
 5573W        W21042   4.375  13.939   0.127 -0.0530 -0.0607  0.1683
 5574W        W21043  17.498  13.568   2.950  0.3026  0.2810  0.1615
 5575W        W21044  12.017   6.319  12.573 -0.4297 -0.0127  0.3332
 5576W        W21045   8.309  13.919   4.898 -0.1157  0.2301 -0.3086
 5577W        W21046   4.447   9.819  10.348 -0.0453 -0.0592 -0.4276
 5578W        W21047   8.442  11.937  12.299 -0.2550  0.2327  0.3700
 5579W        W21048   5.812   5.580   1.473 -0.0090 -0.2837 -0.1995
 5580W        W21049   3.278   7.748  11.499 -0.0073  0.4393 -0.0894
 5581W        W21050   7.568  17.166   0.730 -0.1287 -0.1129 -0.0975
 5582W        W21051   8.047  11.581  13.602 -0.0460 -0.1076 -0.0090
 5583W        W21052  16.816   3.050  11.660 -0.0549  0.2090 -0.1892
 5584W        W21053  16.364   4.838  14.039 -0.0421  0.3642  0.0019
 5585W        W21054  10.649   8.555  13.167  0.1326 -0.2187  0.0077
 5586W        W21055   8.030   8.134   5.338  0.0229 -0.1653 -0.0814
 5587W        W21056   9.338   6.938  13.320  0.0180  0.2738  0.0694
 5588W        W21057  14.764  14.043   5.959  0.2014 -0.1940  0.1291
 5589W        W21058  10.449  13.828   4.724  0.1571 -0.3043  0.0004
 5590W        W21059  10.906  16.951  10.225 -0.1105  0.1924 -0.0626
 5591W        W21060   8.860  11.837  11.971  0.1008 -0.1252  0.0516
 5592W        W21061   4.461   9.847  12.238  0.1077  0.0708 -0.4222
 5593W        W21062  13.374  17.686   1.454 -0.0994  0.0316 -0.3045
 5594W        W21063  10.555   5.174   5.181 -0.2503 -0.1424  0.0399
 5595W        W21064   3.741  11.601  10.631  0.0757  0.1450 -0.0056
 5596W        W21065  12.361  10.332   4.350  0.3322 -0.2364  0.2476
 5597W        W21066   4.436   8.348   1.923  0.1416 -0.0872 -0.3545
 5598W        W21067  13.783   1.949   4.636 -0.2185 -0.1404 -0.1073
 5599W        W21068  17.825  12.694   3.983  0.2794 -0.0862 -0.1558
 5600W        W21069  16.032  14.940   5.322 -0.2398  0.2607  0.2603
 5601W        W21070  10.421  11.241  14.248 -0.1262 -0.0447  0.1207
 5602W        W21071  10.532  11.048   2.709  0.4197 -0.0348 -0.3954
 5603W        W21072   3.983   5.871  10.541 -0.2457 -0.0325 -0.2921
 5604W        W21073   9.647  15.360  11.153 -0.0201 -0.0875  0.1056
 5605W        W21074   4.519   6.985   9.563 -0.1339 -0.0056 -0.0200
 5606W        W21075   3.098   1.924  11.501  0.3946  0.3121  0.0017
 5607W        W21076  10.666  13.980  14.110 -0.1497 -0.2402 -0.2877
 5608W        W21077   3.464   4.000  14.347  0.0977  0.0601 -0.0270
 5609W        W21078   2.313   5.294  14.103  0.0750  0.2247  0.5454
 5610W        W21079   3.864  12.722   5.479  0.0732  0.2405  0.0258
 5611W        W21080   0.915   5.982  15.429 -0.0149  0.0345  0.3984
 5612W        W21081  14.931   8.905  11.531  0.0166 -0.0759 -0.2372
 5613W        W21082  12.405   4.938   1.307 -0.0081 -0.1023 -0.0407
 5614W        W21083  14.590  14.569   0.700 -0.3158 -0.2485  0.0814
 5615W        W21084   4.016  11.433  12.023 -0.0889 -0.1228 -0.0741
 5616W        W21085  13.202   7.465  10.812 -0.1406  0.2869 -0.0966
 5617W        W21086  12.654  11.775  15.595 -0.1687  0.2318  0.1071
 5618W        W21087   1.739  15.243   4.600  0.0698  0.4225 -0.2668
 5619W        W21088  16.716  13.771  10.855 -0.1950 -0.2106  0.2076
 5620W        W21089   8.628   6.434  15.469  0.2259 -0.2601 -0.1121
 5621W        W21090  14.956   5.573   1.370 -0.0309  0.0499  0.0135
 5622W        W21091  17.014   8.105  12.047  0.2938  0.2256  0.1610
 5623W        W21092  13.482   8.564   4.661  0.2598 -0.0260  0.0494
 5624W        W21093  12.316   0.137   0.590  0.1199  0.0862  0.0264
 5625W        W21094  11.206   1.360  14.680 -0.2342  0.1743 -0.2835
 5626W        W21095   7.909   0.009   4.017 -0.0856  0.1881 -0.1472
 5627W        W21096  10.677   6.757   4.644  0.0866  0.0773  0.1160
 5628W        W21097   0.985  13.056  11.211  0.2835 -0.1032  0.1516
 5629W        W21098  10.030   9.450  11.927  0.0759  0.0069 -0.1666
 5630W        W21099  17.722   9.765   0.932 -0.0707 -0.2136 -0.2274
 5631W        W21100   9.706   3.548  15.030  0.0407 -0.0554 -0.2986
 5632W        W21101  12.775  13.594  13.257  0.2616 -0.4680 -0.0654
 5633W        W21102  17.988   2.993   3.113 -0.2996 -0.0658 -0.1008
 5634W        W21103   5.570   2.098  12.596  0.4363  0.2346 -0.0598
 5635W        W21104   9.361   9.272   3.342  0.0083  0.1159 -0.0547
 5636W        W21105   1.638  13.268  15.199  0.1886 -0.2557 -0.2039
 5637W        W21106  13.004   9.572   2.842  0.3252 -0.3254  0.2088
 5638W        W21107   7.838   8.784  10.410  0.3592 -0.1456  0.1235
 5639W        W21108   8.022  11.281  11.945  0.5025  0.0287 -0.0568
 5640W        W21109   1.529   7.845   3.735 -0.4751 -0.1116  0.0128
 5641W        W21110  10.841  18.307   2.557  0.0965 -0.1481 -0.4794
 5642W        W21111  15.092  17.902   2.402  0.1024  0.0881  0.0357
 5643W        W21112  18.098  11.960  14.707  0.0584 -0.1862  0.1195
 5644W        W21113   0.686   0.167  13.868  0.2549  0.1338  0.0305
 5645W        W21114  13.870  10.413   0.556  0.6007 -0.0659  0.0599
 5646W        W21115  15.703   9.433   1.836  0.0828  0.2103  0.3177
 5647W        W21116   3.231  14.492  13.768 -0.1399 -0.0288  0.0845
 5648W        W21117  12.263  13.169   5.208  0.0201  0.0529  0.2306
 5649W        W21118   0.430   5.633   3.132 -0.0146 -0.0962 -0.1047
 5650W        W21119  14.873   6.208   3.134 -0.0793  0.0730  0.0649
 5651W        W21120   7.557   0.914  13.038 -0.1513  0.2753  0.1087
 5652W        W21121  10.174   3.781   4.355  0.2088  0.1343  0.1754
 5653W        W21122  11.638  10.455  10.430  0.1759 -0.0387  0.0627
 5654W        W21123   5.391   7.940   1.757 -0.2802  0.5022  0.0239
 5655W        W21124  18.784   4.222  10.346  0.0366 -0.0269 -0.1085
 5656W        W21125   6.948  17.688  14.771 -0.0757 -0.1859 -0.0069
 5657W        W21126   7.500   9.654  13.481 -0.2886  0.0145 -0.0943
 5658W        W21127  12.530   6.711   2.660  0.2420  0.2723 -0.1383
 5659W        W21128  10.041   7.465   2.126  0.2341 -0.2801 -0.1184
 5660W        W21129  17.633   8.574   2.136  0.1234  0.1785  0.2231
 5661W        W21130   3.306   1.730   1.270 -0.1061 -0.1401 -0.1708
 5662W        W21131  10.564   1.763   3.847  0.1103 -0.0745  0.1269
 5663W        W21132   5.668  14.709   0.145 -0.1112 -0.0666 -0.1581
 5664W        W21133  16.461  18.471  12.124 -0.1690  0.3180 -0.1894
 5665W        W21134   3.373   5.304   1.149 -0.1234  0.1290 -0.2937
 5666W        W21135   4.681   1.959  12.081  0.2145 -0.0862 -0.3828
 5667W        W21136  10.003   8.333   4.340  0.2187 -0.2592 -0.2954
 5668W        W21137  10.973  10.200  13.976 -0.0475 -0.1231 -0.0947
 5669W        W21138  18.614  13.466   4.964 -0.0848  0.0425 -0.1035
 5670W        W21139  15.383  16.279  14.069 -0.2362 -0.0088  0.3158
 5671W        W21140  16.253   1.059   4.794 -0.1100 -0.0004 -0.1982
 5672W        W21141   0.132   8.109  13.723 -0.2168  0.1189  0.1394
 5673W        W21142   1.990   2.615   2.284 -0.2477 -0.1821  0.1505
 5674W        W21143  11.527  13.980  12.916  0.0237  0.1381  0.2644
 5675W        W21144  10.429  16.611   2.408 -0.2139 -0.1059  0.0843
 5676W        W21145   1.765   0.311   2.819  0.2660 -0.0962  0.1903
 5677W        W21146   1.157  16.927  13.032  0.2471  0.3417 -0.0778
 5678W        W21147   6.002  13.274  13.571 -0.5252 -0.1774 -0.0531
 5679W        W21148  16.005  14.297   4.878  0.0021  0.1723 -0.2977
 5680W        W21149   9.490  12.756  14.491  0.0129  0.0864 -0.1043
 5681W        W21150   3.565  12.698   0.608 -0.5459  0.1817  0.0080
 5682W        W21151   0.743   2.285   1.624 -0.0983 -0.1000 -0.0627
 5683W        W21152   0.068  16.437  13.693 -0.1720 -0.1435  0.3435
 5684W        W21153   9.925   5.398   1.471  0.0986 -0.0260 -0.0045
 5685W        W21154   6.046   4.939  11.158 -0.4632 -0.3898 -0.0734
 5686W        W21155   8.747   4.074   3.573  0.3311 -0.0083 -0.4144
 5687W        W21156   8.320  16.735   1.678 -0.2352  0.0312 -0.2861
 5688W        W21157  12.137  15.737  14.443 -0.0185 -0.1462  0.1242
 5689W        W21158   5.190   3.093  15.118  0.0206 -0.2696  0.1686
 5690W        W21159   8.444   7.832   5.351  0.0582 -0.1257 -0.3483
 5691W        W21160   4.241  16.200  15.336 -0.0179 -0.1453  0.0975
 5692W        W21161  12.554  15.106   4.780  0.3662  0.2610  0.2248
 5693W        W21162   8.868  10.205   9.585 -0.0320  0.4572  0.0905
 5694W        W21163  10.150  11.912   4.618  0.2261  0.0796  0.0141
 5695W        W21164   8.149   4.614  10.944 -0.1322  0.2408 -0.1320
 5696W        W21165  12.434  17.436   3.740  0.0578  0.2354  0.2941
 5697W        W21166  17.603   7.113  10.955  0.0994 -0.1554  0.0320
 5698W        W21167  14.858  16.795   9.812  0.2844  0.2101  0.0765
 5699W        W21168   2.652   9.480   1.686 -0.0375 -0.0020  0.0832
 5700W        W21169  13.230   2.469  10.648  0.1593  0.3840  0.2056
 5701W        W21170   0.371  17.185   1.733  0.1635 -0.0225 -0.1155
 5702W        W21171   2.395   7.799  15.216  0.2206 -0.0443  0.2184
 5703W        W21172  18.672   2.974  11.165  0.0182 -0.1344 -0.0334
 5704W        W21173  16.301  12.166  14.234  0.1409  0.0579 -0.0982
 5705W        W21174  14.003  11.746   3.933  0.2376 -0.0940 -0.3093
 5706W        W21175  14.842   4.259   1.740  0.1503  0.2520 -0.2074
 5707W        W21176   0.347   5.938   4.481 -0.0781 -0.0104 -0.1954
 5708W        W21177  10.552   3.540  11.809  0.0053  0.0270  0.0965
 5709W        W21178   6.112   6.174  11.261  0.0705  0.0168 -0.2196
 5710W        W21179  17.224   2.954   0.257  0.1249  0.0773 -0.0473
 5711W        W21180   2.927  18.397  11.352 -0.3642  0.0364  0.1504
 5712W        W21181  16.786   4.187   3.538  0.0726  0.2346  0.0888
 5713W        W21182   5.047  17.501   1.575 -0.0081 -0.0144  0.2428
 5714W        W21183   2.550   0.364   4.157 -0.1202 -0.1864 -0.1725
 5715W        W21184  14.151  13.432  14.230 -0.1069 -0.2052  0.1274
 5716W        W21185  13.318   0.104  14.758  0.0209 -0.1758 -0.1888
 5717W        W21186   8.734  16.239  13.078 -0.2065 -0.0384  0.0760
 5718W        W21187   2.361  16.021   1.327  0.3249 -0.0211  0.0708
 5719W        W21188   0.799   3.015  13.966  0.1703  0.2933 -0.0201
 5720W        W21189   9.530   1.714   0.970  0.0489 -0.0334 -0.0774
 5721W        W21190  13.463  17.933  11.098 -0.2039  0.0994  0.2537
 5722W        W21191  16.240   7.441   3.316  0.1448 -0.2753  0.1492
 5723W        W21192  16.736  13.182   1.580 -0.0357  0.0604  0.0719
 5724W        W21193  11.049  11.419   3.624 -0.0291  0.1014 -0.0886
 5725W        W21194  18.114   8.839  14.523 -0.0446 -0.2135 -0.1198
 5726W        W21195  17.134   3.486   1.547  0.0686  0.2486 -0.0998
 5727W        W21196   1.970  14.110   0.121  0.0016  0.0549  0.2704
 5728W        W21197   6.856  11.819   3.288  0.1190  0.1097  0.1212
 5729W        W21198  15.443   0.784   4.679  0.0249 -0.0892 -0.0557
 5730W        W21199  18.476  12.520  12.581  0.1019 -0.0374 -0.2320
 5731W        W21200  15.667  18.775   4.233  0.1125  0.0947  0.1266
 5732W        W21201   9.913  18.025   5.483 -0.0044  0.0743  0.2943
 5733W        W21202   5.730  17.141  13.788  0.1113  0.1750 -0.1435
 5734W        W21203  16.673  14.272   4.799  0.1478 -0.2599  0.0136
 5735W        W21204   6.198   9.315   0.169 -0.1294  0.0432 -0.3530
 5736W        W21205  16.313   3.377   0.281  0.2195 -0.1492  0.1221
 5737W        W21206  18.337   2.209  10.633 -0.0836 -0.3601  0.1960
 5738W        W21207  16.819  14.741   4.480  0.0654  0.0896 -0.2869
 5739W        W21208   7.441   8.893   3.960  0.0060  0.0969 -0.0971
 5740W        W21209  11.720   0.643  10.529  0.0482  0.2808  0.4219
 5741W        W21210  12.371  10.671   5.157  0.0206  0.1018 -0.4381
 5742W        W21211  13.495  14.341   3.092  0.1322  0.1703 -0.0022
 5743W        W21212   1.860   2.278  12.254  0.0603 -0.1321 -0.0865
 5744W        W21213  13.080   2.024   4.108  0.2031  0.1335  0.1871
 5745W        W21214   5.533  11.915   4.853 -0.0974  0.3404 -0.0083
 5746W        W21215  15.815  11.403   0.574  0.0424 -0.0841  0.0457
 5747W        W21216   1.252   2.192   6.165  0.2307 -0.1119 -0.1778
 5748W        W21217   3.233  10.505   0.508 -0.0218  0.1127 -0.2398
 5749W        W21218   4.725   5.343   0.832  0.0573 -0.0344  0.0715
 5750W        W21219  17.578   9.895   0.498 -0.1478  0.1147  0.1934
 5751W        W21220   4.096   1.619   4.771 -0.0311 -0.5014 -0.0346
 5752W        W21221   7.112  13.711  11.733  0.0546  0.1282 -0.0306
 5753W        W21222   6.449  17.755   4.851 -0.3537  0.1050 -0.2310
 5754W        W21223   3.710  12.439   1.015  0.3451  0.0016 -0.0180
 5755W        W21224   7.655  10.393  15.466  0.1707  0.0635 -0.0057
 5756W        W21225  11.400   0.235   4.137  0.0252  0.1133 -0.0003
 5757W        W21226  16.336   4.313  15.640  0.2541  0.0510 -0.1640
 5758W        W21227  14.645  10.324  13.280  0.0615  0.2200  0.1527
 5759W        W21228  17.620   9.850  15.180 -0.0192 -0.4097  0.0642
 5760W        W21229  12.602  18.521   9.542  0.3356 -0.2565  0.1063
 5761W        W21230  13.370   8.221  14.855 -0.0333 -0.1774 -0.0955
 5762W        W21231  15.453   8.874   0.332 -0.0362 -0.1284  0.4196
 5763W        W21232   7.265  15.006   1.402  0.3580 -0.2868 -0.0319
 5764W        W21233   7.685  15.623  12.729  0.0211  0.0159  0.0350
 5765W        W21234  11.826   4.216   0.857  0.0623  0.1829  0.0899
 5766W        W21235  16.738   0.737  12.724  0.0468  0.1465  0.1538
 5767W        W21236  17.848  13.208   3.691 -0.0032 -0.3120 -0.1981
 5768W        W21237  16.744  14.762  13.331  0.1507  0.4229  0.4644
 5769W        W21238  10.469   8.082   2.528 -0.2011  0.0652 -0.4445
 5770W        W21239  16.175  13.191   1.570 -0.1844 -0.0458  0.4965
 5771W        W21240   2.934   9.629   3.763  0.1041 -0.0739  0.2371
 5772W        W21241  13.445  14.979   0.354 -0.1057 -0.1693 -0.0586
 5773W        W21242   0.767   3.371  13.511  0.4281 -0.0378 -0.2613
 5774W        W21243   9.024   2.656   0.741  0.2194 -0.0174 -0.3099
 5775W        W21244   4.744  15.187  15.511  0.0257 -0.0532 -0.1245
 5776W        W21245  12.862   7.862   2.638  0.2974  0.2286  0.0577
 5777W        W21246   9.337  14.247   4.270 -0.0163  0.1204 -0.0613
 5778W        W21247  12.595   1.730   0.602  0.2039 -0.0243 -0.3182
 5779W        W21248  18.071  11.848  15.314  0.1607 -0.3086 -0.0798
 5780W        W21249   7.437   8.507   1.243 -0.5173 -0.1415 -0.1729
 5781W        W21250  16.714  17.212   3.807 -0.0833  0.1705 -0.0691
 5782W        W21251   8.152  14.595  15.198 -0.0722 -0.0388  0.0965
 5783W        W21252   4.421   7.332  13.106  0.1112 -0.0518 -0.1022
 5784W        W21253   1.651   6.753   3.044  0.0418  0.0115 -0.1866
 5785W        W21254  10.050  12.127   5.091 -0.0321  0.1851  0.3012
 5786W        W21255   5.546  17.932   0.421  0.1630 -0.0292 -0.4180
 5787W        W21256   2.788   1.722   3.497  0.1744 -0.1355 -0.4547
 5788W        W21257  18.597   3.949   3.764 -0.1791  0.0896  0.0666
 5789W        W21258  17.404  14.337   2.898  0.2332 -0.2051 -0.3017
 5790W        W21259  10.518   2.781   9.893  0.1104  0.2048  0.1513
 5791W        W21260  11.115   0.952  15.338 -0.0555 -0.1146  0.2608
 5792W        W21261  15.780  10.228  13.219  0.4254  0.3780 -0.1996
 5793W        W21262   4.282  16.156   3.281 -0.0727  0.0831 -0.0448
 5794W        W21263   7.147   3.462  10.699  0.2559 -0.0836  0.2974
 5795W        W21264   8.771  15.961   4.664  0.1104  0.2771 -0.2129
 5796W        W21265  17.756  16.726   3.868 -0.5347 -0.0947  0.1032
 5797W        W21266   6.953  16.412  12.021  0.1166 -0.3536  0.1542
 5798W        W21267   8.196  12.930   5.095 -0.0916  0.0373  0.1020
 5799W        W21268   0.156   2.834  14.937 -0.1124  0.1293  0.0805
 5800W        W21269   9.197  13.274   1.950  0.1041  0.2129 -0.0193
 5801W        W21270  16.700  11.810   0.662  0.0020 -0.0661  0.1496
 5802W        W21271  15.494  18.334  11.841  0.0948  0.0222 -0.2420
 5803W        W21272  16.189   0.745   4.002  0.2393  0.0529 -0.0566
 5804W        W21273   5.813   2.841   1.427  0.0256 -0.0231  0.1285
 5805W        W21274   1.500   3.998  12.647 -0.0584 -0.0773 -0.1836
 5806W        W21275  17.484  10.539   3.708  0.3378  0.0869  0.0806
 5807W        W21276   2.034   5.882   4.917  0.3037  0.1817 -0.2966
 5808W        W21277  16.261   6.444  15.534  0.2221  0.2808 -0.1126
 5809W        W21278  10.622   8.781   1.013 -0.2236 -0.1187 -0.3333
 5810W        W21279  10.127  10.277  11.754 -0.0592 -0.1007 -0.1082
 5811W        W21280  15.729   5.137  12.405 -0.0261 -0.0852  0.6003
 5812W        W21281   8.774   3.229   3.346  0.3814  0.4424 -0.0955
 5813W        W21282   9.202  12.651  11.587  0.0807 -0.0322  0.0870
 5814W        W21283   2.030  17.484  15.054  0.3020  0.2640 -0.2227
 5815W        W21284  12.806  15.374  11.101  0.1749  0.1195 -0.2362
 5816W        W21285   8.508   3.662  10.991  0.0090 -0.0077 -0.1025
 5817W        W21286  10.492  16.435  14.092  0.0949 -0.3670 -0.2342
 5818W        W21287  11.468   9.396   3.537  0.0426  0.2618 -0.1839
 5819W        W21288   8.622   0.511  13.976 -0.2453  0.0796 -0.1574
 5820W        W21289   2.849   6.117  14.064  0.0538  0.0239 -0.0468
 5821W        W21290   9.199   0.762   4.499 -0.0972  0.0102  0.2102
 5822W        W21291   5.402   1.063   0.694  0.1362 -0.0973 -0.2251
 5823W        W21292   6.477   3.959  11.030 -0.0335  0.1175 -0.2971
 5824W        W21293  15.513   6.459   0.380 -0.4023 -0.3057  0.1967
 5825W        W21294   2.981  16.592  15.009  0.0275  0.2060 -0.2403
 5826W        W21295  13.840   4.735  15.091  0.0446  0.1938  0.0206
 5827W        W21296   1.208  11.860  11.695 -0.0298 -0.1417 -0.2495
 5828W        W21297   5.073   3.371  12.555 -0.1505 -0.0639  0.0985
 5829W        W21298   2.367   1.332  11.848 -0.0471 -0.2064 -0.1288
 5830W        W21299  15.026   5.967   1.073  0.1224 -0.0363  0.2895
 5831W        W21300   5.567   6.940   2.536  0.3233 -0.1211 -0.1495
 5832W        W21301   8.132   5.533   1.674  0.1421  0.0269 -0.2059
 5833W        W21302   4.113  18.628   1.538  0.0168 -0.1905 -0.2221
 5834W        W21303   1.799   1.107  13.529 -0.1193 -0.2262  0.0217
 5835W        W21304  17.539   7.122  12.943  0.2347  0.0225  0.3012
 5836W        W21305  16.520   3.254  11.315 -0.1880  0.0580  0.4144
 5837W        W21306  13.379   8.959  11.367 -0.2302 -0.0983 -0.0154
 5838W        W21307   3.732   3.660  12.496  0.2230 -0.5178  0.5669
 5839W        W21308   9.086   8.670   0.515 -0.0219  0.0512 -0.0450
 5840W        W21309  17.006   4.523  11.323  0.0729  0.3568 -0.1581
 5841W        W21310   0.491   6.904  10.747 -0.1914 -0.0496 -0.4467
 5842W        W21311   8.579   3.231   4.563 -0.0110  0.1574  0.0016
 5843W        W21312   4.413   0.577  11.951 -0.2508 -0.0159  0.0668
 5844W        W21313   7.239   8.689  14.323 -0.1946 -0.0825  0.0690
 5845W        W21314   1.264   7.781  11.194 -0.3305 -0.1405 -0.5659
 5846W        W21315   6.778   4.579   9.717 -0.1516  0.1488  0.0704
 5847W        W21316  12.253  13.226   4.623 -0.2672 -0.1062  0.0304
 5848W        W21317  16.973   7.040   3.354 -0.1528  0.0336  0.0896
 5849W        W21318   3.088  10.425   1.351 -0.2358  0.2654 -0.0680
 5850W        W21319   0.979   7.900  13.755 -0.0036 -0.0875 -0.0915
 5851W        W21320   2.141   6.898  11.211 -0.0366 -0.0853  0.4418
 5852W        W21321   2.870   8.302  10.682  0.0639  0.3880 -0.0510
 5853W        W21322   4.620  12.253  13.824  0.0620 -0.1292  0.0216
 5854W        W21323   8.839   8.225   3.157  0.0386  0.0242 -0.0126
 5855W        W21324  11.071  10.346   4.359  0.0236  0.3441  0.0785
 5856W        W21325  15.579  17.383   1.214  0.4484 -0.1496  0.0183
 5857W        W21326   8.391  10.384  14.605  0.2193  0.2280 -0.0833
 5858W        W21327  18.081  15.150   1.615 -0.3172 -0.1027  0.2628
 5859W        W21328   9.787   1.084  12.793  0.0960 -0.2069 -0.0258
 5860W        W21329   9.186   9.401  15.551  0.0508  0.1197  0.1865
 5861W        W21330  11.652   9.488  11.051  0.1623  0.0932 -0.1056
 5862W        W21331   4.869   8.609  14.104  0.2880 -0.2446  0.0586
 5863W        W21332  11.015  16.761  10.991  0.0017 -0.1598 -0.4596
 5864W        W21333  18.754  14.930  13.977 -0.0792  0.0269  0.4262
 5865W        W21334  11.442   2.016   4.498  0.0499 -0.1499  0.1979
 5866W        W21335  13.281   9.824  11.047  0.5667  0.3304  0.1249
 5867W        W21336   4.001   5.859   0.163 -0.0246 -0.0094 -0.3575
 5868W        W21337  15.277  10.793  13.851 -0.4648 -0.1412  0.1259
 5869W        W21338   9.823   0.892  10.934  0.1834 -0.2654 -0.0412
 5870W        W21339  18.335  10.190   4.181  0.0418  0.0335  0.0562
 5871W        W21340  15.415   4.919   3.867  0.0874  0.0712 -0.1602
 5872W        W21341   4.952  16.477  14.420  0.1129 -0.0069  0.0100
 5873W        W21342   8.002  14.247   0.279 -0.2259 -0.2660 -0.2042
 5874W        W21343   2.040   0.070   5.172 -0.0354 -0.1409 -0.0002
 5875W        W21344   5.633  13.692   1.633  0.0095  0.1610 -0.0691
 5876W        W21345  14.367   3.938  13.513  0.0509  0.2282 -0.3204
 5877W        W21346   7.873   9.943  13.348  0.2669  0.1004 -0.3364
 5878W        W21347   1.558  18.356  15.314 -0.0611  0.0259 -0.1132
 5879W        W21348  15.287  18.502   1.584  0.2026  0.1739  0.1455
 5880W        W21349   5.726  11.608  10.666  0.0491  0.0473  0.1366
 5881W        W21350  11.780   5.353   5.249  0.0972  0.0931 -0.1387
 5882W        W21351   9.260  15.161  14.345 -0.3955  0.2004  0.0198
 5883W        W21352  11.127   1.949  12.113  0.0039 -0.1854 -0.2265
 5884W        W21353  17.040   6.238   2.944  0.0431  0.1378 -0.1637
 5885W        W21354   8.942   9.318  14.207 -0.1314 -0.0534 -0.1047
 5886W        W21355   2.066   3.801  12.540  0.0777 -0.0046  0.3268
 5887W        W21356  18.745   0.147   0.843  0.0564 -0.0373 -0.1847
 5888W        W21357  10.788   7.897  14.528  0.0017  0.0905 -0.3560
 5889W        W21358  11.427   4.366  14.723 -0.1072  0.0568 -0.0080
 5890W        W21359   4.213   8.440   5.278 -0.0356 -0.2751  0.1090
 5891W        W21360  16.596  14.546  12.649  0.2104 -0.0718 -0.1042
 5892W        W21361  17.665   9.860   2.674  0.1089  0.0107  0.1838
 5893W        W21362   8.981  12.159  13.616  0.1139 -0.1496 -0.1066
 5894W        W21363  14.593  16.792  14.118 -0.0278  0.2574 -0.0663
 5895W        W21364   3.667   5.039  13.910 -0.1564 -0.0368 -0.0929
 5896W        W21365  15.597   8.048   2.135  0.2332  0.4886  0.1399
 5897W        W21366   1.791   4.575   3.378 -0.1415 -0.2860 -0.0439
 5898W        W21367  12.402   0.460  13.834 -0.4270 -0.1359  0.0503
 5899W        W21368   7.803   9.404  10.627 -0.1038 -0.1932 -0.0365
 5900W        W21369   1.628   9.302   4.549 -0.2582 -0.0075  0.3351
 5901W        W21370  13.016   9.862  12.175 -0.0131  0.0824 -0.1715
 5902W        W21371  11.165   2.144   3.424  0.1722  0.1146 -0.1827
 5903W        W21372  14.098  11.321   1.076  0.1277  0.0731  0.0794
 5904W        W21373  15.861  10.901  13.745 -0.0361  0.0931  0.0602
 5905W        W21374   1.601   4.512   1.031  0.0510 -0.1519 -0.1914
 5906W        W21375   4.354  18.017   4.622 -0.0542  0.2110  0.0266
 5907W        W21376  13.133   2.532   2.189  0.1114 -0.0653  0.0401
 5908W        W21377   1.015  17.788  12.894  0.2394 -0.0136 -0.0175
 5909W        W21378  15.139   9.837  12.040 -0.3486 -0.4393  0.1730
 5910W        W21379  14.668   4.714   1.904  0.0442  0.1307 -0.1070
 5911W        W21380   0.450  12.938  13.740  0.1968  0.4613 -0.1903
 5912W        W21381  14.293   4.241  13.986 -0.0254 -0.0944  0.2768
 5913W        W21382   9.574  10.503   1.823  0.0794 -0.1210  0.1182
 5914W        W21383   5.230   9.854   3.150 -0.0187 -0.0567  0.1233
 5915W        W21384  10.206  13.212  11.053 -0.2329  0.3497  0.0870
 5916W        W21385  12.540   2.060   3.509  0.2909  0.4269  0.2178
 5917W        W21386  14.191   8.838  11.361  0.1085  0.1998  0.3016
 5918W        W21387  18.713   0.437   4.129  0.0264  0.0936 -0.0325
 5919W        W21388   4.585  15.213  11.143  0.0545 -0.1267  0.2168
 5920W        W21389   1.582  16.051   4.442 -0.1653  0.4316 -0.2229
 5921W        W21390  10.976   4.330  11.946 -0.1725 -0.2146  0.3637
 5922W        W21391  16.830   8.916  13.106  0.0159  0.2131  0.1142
 5923W        W21392  14.274   2.767  13.570  0.0914  0.1126  0.0115
 5924W        W21393  14.643   9.515  15.603 -0.1163 -0.0663 -0.1352
 5925W        W21394  10.493   2.440   2.574  0.0698  0.1276 -0.0595
 5926W        W21395   0.295  18.734  12.832 -0.2543  0.3424 -0.1289
 5927W        W21396  15.507  17.188   2.534 -0.2270  0.3458 -0.1304
 5928W        W21397   4.277   7.227  14.082 -0.1815  0.3912 -0.1983
 5929W        W21398   7.337  11.209  13.253  0.0276 -0.0067  0.0596
 5930W        W21399   6.104   2.836  13.505  0.2370  0.2700 -0.1292
 5931W        W21400  11.932   5.351  13.776 -0.2087 -0.1261  0.0916
 5932W        W21401  18.260  10.556   3.703  0.0056  0.1499 -0.1439
 5933W        W21402  11.163  11.567  12.184 -0.2712 -0.3645 -0.3045
 5934W        W21403  13.065  15.050   1.784 -0.0059  0.1434  0.0893
 5935W        W21404  13.474  13.793  13.048  0.2297  0.1927  0.0607
 5936W        W21405   5.942  11.272   3.175 -0.1063  0.1158  0.0878
 5937W        W21406   6.598  15.153   0.877  0.2254  0.0647  0.1571
 5938W        W21407  11.768  17.269  10.750 -0.0956 -0.2852  0.1581
 5939W        W21408   2.343   3.815  12.099  0.4258  0.3549  0.0289
 5940W        W21409  17.249   4.272   3.728 -0.4981  0.2409  0.1543
 5941W        W21410   3.607  12.625   3.940 -0.0845  0.0791 -0.0478
 5942W        W21411  11.210   3.210  13.433 -0.1006  0.0831  0.0345
 5943W        W21412   5.336   1.542  13.046  0.1505 -0.2349  0.0961
 5944W        W21413   9.472  14.358   0.576 -0.0388 -0.0365  0.1972
 5945W        W21414   6.074   0.340   0.802 -0.1580  0.2231  0.0050
 5946W        W21415   6.357   9.527   1.155 -0.0259 -0.1324 -0.0312
 5947W        W21416  13.583   2.509   4.430 -0.3027  0.1928 -0.2268
 5948W        W21417  13.462  12.857   2.809  0.1186  0.1984  0.4772
 5949W        W21418  18.173   7.208  11.910  0.3184  0.0208 -0.1528
 5950W        W21419   3.073  11.870   3.545  0.1543 -0.0295  0.0839
 5951W        W21420  15.332   8.597  14.412  0.1051 -0.2601 -0.0795
 5952W        W21421  17.492   7.548   0.071  0.5417 -0.1615  0.0234
 5953W        W21422  11.802  17.294   1.233 -0.1521  0.1648  0.2774
 5954W        W21423  10.618  13.706  13.096  0.1635  0.0597 -0.0636
 5955W        W21424  10.948   4.950  15.280 -0.3069 -0.1219 -0.0355
 5956W        W21425  16.959   8.137   1.742 -0.2021  0.1240  0.2333
 5957W        W21426  10.001  12.632   4.975  0.1515  0.0237 -0.2287
 5958W        W21427  14.678   7.680  15.363  0.1116 -0.2167  0.1304
 5959W        W21428  16.270  15.932   0.429  0.1455  0.3311  0.1865
 5960W        W21429   1.488  15.186   1.654 -0.0489 -0.2496 -0.0859
 5961W        W21430  11.111  15.683   0.345  0.1649 -0.2423 -0.1440
 5962W        W21431  11.492  10.849   2.904  0.3847  0.0823  0.2289
 5963W        W21432   7.698   3.331  13.865  0.1292  0.0439  0.0137
 5964W        W21433   5.800  11.232  11.572 -0.0334  0.1712  0.0076
 5965W        W21434  15.227  10.181   4.896 -0.2175  0.0672  0.2201
 5966W        W21435   7.786  18.410   0.821  0.0278 -0.0130 -0.1281
 5967W        W21436   7.394   0.401   9.592  0.1679 -0.2697  0.1161
 5968W        W21437   0.054  18.243   1.705  0.1171  0.1492 -0.0255
 5969W        W21438  16.467  18.640   3.056 -0.1288 -0.2810  0.0912
 5970W        W21439   7.472   0.733  10.691 -0.1502  0.1357  0.2066
 5971W        W21440  16.192  10.700  14.058  0.1156  0.0278 -0.0858
 5972W        W21441   6.477   7.459   4.803  0.3418  0.1410 -0.2666
 5973W        W21442  11.200   1.644   0.297  0.3257  0.2337 -0.1755
 5974W        W21443   9.256   2.789  13.065 -0.0638 -0.0009 -0.3156
 5975W        W21444  18.176  17.140  14.411 -0.0668  0.3718 -0.0564
 5976W        W21445  11.306  10.005   2.696 -0.1264 -0.1278 -0.3429
 5977W        W21446   0.119  12.596  13.706  0.1134 -0.2197  0.0707
 5978W        W21447  11.925   9.142  13.861 -0.0321 -0.0218 -0.0393
 5979W        W21448  10.009   0.503  15.518  0.0682  0.0727 -0.0707
 5980W        W21449   1.898   2.968   1.524 -0.2062 -0.3342 -0.0449
 5981W        W21450  15.444  15.272  12.158 -0.2339 -0.0893 -0.1410
 5982W        W21451   5.931  18.660   2.734 -0.1384  0.3586 -0.2435
 5983W        W21452   4.498   0.306   2.498  0.4550 -0.2120 -0.0082
 5984W        W21453   5.405  13.699  15.664 -0.0920 -0.1677  0.3395
 5985W        W21454  14.048   2.534   0.371 -0.0349  0.4195  0.2643
 5986W        W21455  15.865  18.634  13.004  0.1195  0.1677 -0.5131
 5987W        W21456   6.945  10.376   3.145 -0.2969  0.3610 -0.0736
 5988W        W21457   4.746   6.630   5.441 -0.2369 -0.2691 -0.3337
 5989W        W21458  16.656  11.893  14.003 -0.0318  0.4414 -0.3871
 5990W        W21459   3.889  11.981   3.461  0.1311 -0.0915  0.2783
 5991W        W21460  11.681   6.578  10.630  0.0746  0.0924  0.5080
 5992W        W21461  18.112   6.592   5.067  0.1162 -0.1406  0.1174
 5993W        W21462  16.807   3.032   1.598  0.1129  0.0697  0.0120
 5994W        W21463   1.446  14.667  13.889 -0.0020  0.1520 -0.1221
 5995W        W21464   3.600  13.742   2.696  0.0801 -0.0159 -0.0390
 5996W        W21465   3.895   8.231   0.517  0.0404 -0.0020 -0.1963
 5997W        W21466   9.308   4.027   0.673  0.2299  0.0714 -0.2431
 5998W        W21467   2.134  15.541   3.805  0.1187  0.0546 -0.3704
 5999W        W21468  10.080   4.398   1.642 -0.0841 -0.1216  0.1573
 6000W        W21469   5.210   7.466  14.673  0.2036  0.1037  0.2708
 6001W        W21470  16.169   9.303   4.161 -0.0564 -0.1711 -0.1567
 6002W        W21471   0.631   6.160  11.019  0.1932 -0.2077 -0.1254
 6003W        W21472   8.055   9.719   2.300 -0.1166 -0.2299  0.0300
 6004W        W21473  17.909   5.315   1.754 -0.0499  0.1836  0.0074
 6005W        W21474   5.969  18.249  10.449 -0.1610  0.0070 -0.1544
 6006W        W21475   0.582  18.168  11.339  0.0332  0.3507  0.1100
 6007W        W21476   6.817   2.200   1.211  0.0904 -0.0743 -0.1827
 6008W        W21477   7.300  10.978  10.682 -0.3046  0.1857 -0.2620
 6009W        W21478   4.650   1.296   0.395 -0.0012 -0.3648 -0.0322
 6010W        W21479   1.625  13.610  11.569 -0.1405  0.3359 -0.0985
 6011W        W21480  13.274  15.482  12.566  0.2867  0.0655  0.3213
 6012W        W21481   6.557   6.572  15.259  0.0140 -0.2084  0.4174
 6013W        W21482   1.629   8.600  15.322 -0.3664  0.2786  0.2955
 6014W        W21483  10.465   7.314  11.952 -0.0856  0.1624 -0.2716
 6015W        W21484   4.062   5.525  13.354  0.0088 -0.1919  0.1182
 6016W        W21485   3.687  10.619   5.020  0.3918  0.6207 -0.1448
 6017W        W21486  10.163   7.246  14.008  0.1208 -0.0171  0.0929
 6018W        W21487  16.598  16.276   0.166 -0.1808 -0.3376 -0.1179
 6019W        W21488  12.581   3.987   1.786  0.2249 -0.0341  0.1535
 6020W        W21489  17.997   0.634   1.944  0.3991 -0.1666  0.1025
 6021W        W21490   0.808   3.257  12.385 -0.1708  0.1109  0.0072
 6022W        W21491   1.141   4.342  12.582  0.0008 -0.0261  0.2401
 6023W        W21492  16.922   8.088  15.419  0.0201  0.0311 -0.0739
 6024W        W21493   3.383   4.905  11.707 -0.0448  0.1164 -0.0539
 6025W        W21494  17.975   1.125   3.390 -0.0389 -0.0420 -0.2455
 6026W        W21495   0.109  11.962  15.488 -0.1092  0.3673  0.1962
 6027W        W21496   5.249  16.650   2.565  0.1230  0.1381  0.2380
 6028W        W21497  16.976   2.431  13.450  0.0127  0.2517  0.0949
 6029W        W21498  12.352   7.232  10.986  0.0975  0.0089  0.1152
 6030W        W21499   8.966  12.749   1.958  0.2270 -0.1444  0.1354
 6031W        W21500   1.999  18.559  10.593  0.0819  0.1140  0.1441
 6032W        W21501  16.083   1.114  11.359 -0.1188  0.3522 -0.0314
 6033W        W21502   2.053  12.719  14.506 -0.2219  0.0063  0.1110
 6034W        W21503   7.526  10.491   3.914 -0.0957 -0.4967  0.2394
 6035W        W21504   9.216  13.399  15.084  0.0678 -0.1694  0.1241
 6036W        W21505   6.019   1.497  13.173 -0.2384  0.1214  0.1368
 6037W        W21506  15.274  15.795   0.049  0.1071 -0.1596  0.0292
 6038W        W21507   5.215   0.657   0.481  0.0135  0.1451 -0.0731
 6039W        W21508   5.583  16.741   1.121 -0.1127 -0.1172 -0.1708
 6040W        W21509   3.686   5.076  15.230  0.1110  0.2477 -0.2626
 6041W        W21510   4.320   2.714  12.331  0.0441  0.2448 -0.0925
 6042W        W21511   8.685   7.850  15.579  0.2071 -0.0914  0.1920
 6043W        W21512  14.380   4.950  13.840  0.3276  0.1083 -0.1202
 6044W        W21513  15.640   3.211  11.232 -0.0340  0.1289 -0.0080
 6045W        W21514  18.081  11.436   0.012  0.1053 -0.1973  0.0984
 6046W        W21515   7.338  14.867   0.459  0.0887 -0.1205 -0.0426
 6047W        W21516   6.422   3.211   4.582  0.3384  0.0320 -0.2758
 6048W        W21517   8.514   1.066   1.642  0.0808  0.1504 -0.3138
 6049W        W21518   7.064  15.582  10.415  0.1798 -0.2217 -0.3894
 6050W        W21519  15.589   0.387   1.138 -0.1223  0.0105  0.1324
 6051W        W21520   6.994  14.311   2.026  0.0582  0.1582 -0.0203
 6052W        W21521   5.136   5.672   1.555 -0.1987 -0.1738  0.0922
 6053W        W21522   3.293   9.074   5.533  0.3372  0.4355 -0.1502
 6054W        W21523  15.537  10.690   3.829  0.2618 -0.2063  0.1948
 6055W        W21524   7.648   1.563  11.170 -0.1623  0.0131  0.1374
 6056W        W21525   6.311   7.945   2.913  0.1627  0.1017 -0.0703
 6057W        W21526   5.813  14.873   2.315  0.1759  0.1119 -0.1630
 6058W        W21527   9.791  18.727   3.198  0.1834 -0.0130  0.1670
 6059W        W21528  17.216   7.226  11.266 -0.2652  0.0034 -0.1276
 6060W        W21529  14.438   8.724   3.963  0.5996  0.0198 -0.0587
 6061W        W21530  14.930  17.014   3.679 -0.0855 -0.1788  0.1567
 6062W        W21531   8.136  11.763  11.754  0.0709 -0.2356 -0.2981
 6063W        W21532   6.251   3.368   5.116 -0.3553  0.0141  0.1160
 6064W        W21533  11.267  10.295  15.470 -0.1285 -0.1145 -0.1686
 6065W        W21534   2.233  13.674  14.555  0.2534  0.1805  0.1791
 6066W        W21535   8.612   7.762  13.440 -0.0442  0.2218 -0.0712
 6067W        W21536   5.349  10.438   3.990 -0.0749  0.2299 -0.0939
 6068W        W21537   5.067   0.507   3.682  0.2131 -0.6563  0.2372
 6069W        W21538   4.523   7.498   4.579 -0.2577  0.3271 -0.0048
 6070W        W21539  15.383   4.524  14.875  0.1065 -0.1356  0.0420
 6071W        W21540  11.176   3.348   1.906  0.1124  0.1202 -0.0792
 6072W        W21541   4.308   0.788   1.871  0.0007 -0.0692  0.1654
 6073W        W21542   9.238  16.415   2.668 -0.0543 -0.1239  0.0253
 6074W        W21543  13.407   1.719  15.157 -0.5222 -0.0594 -0.0314
 6075W        W21544   2.154  15.018   5.812  0.1909  0.0514 -0.3329
 6076W        W21545   7.420  11.422  14.882  0.0184  0.1614 -0.0458
 6077W        W21546  18.362  13.242   4.469  0.1023  0.1387  0.0989
 6078W        W21547  15.195   7.818   9.690 -0.0689 -0.0274 -0.0361
 6079W        W21548  11.103  17.242   1.448  0.2980  0.1403 -0.3525
 6080W        W21549  14.783  11.599   2.926  0.0543  0.1850  0.1391
 6081W        W21550  10.750  12.586  11.460 -0.1044 -0.1390  0.0089
 6082W        W21551   4.596   7.036   4.624 -0.2170  0.2505 -0.1721
 6083W        W21552   7.845  12.351   1.078  0.0195 -0.1510 -0.3734
 6084W        W21553   4.268  13.194  13.401  0.0743 -0.2239 -0.0529
 6085W        W21554  11.066  17.865  12.824 -0.1239  0.1122  0.3123
 6086W        W21555   3.492  14.013   3.332 -0.2090 -0.1179 -0.0584
 6087W        W21556   7.690   4.418   0.966  0.2606  0.1833 -0.2967
 6088W        W21557  16.243   5.414   6.133 -0.1176 -0.2923  0.0653
 6089W        W21558  15.082  13.028   3.338 -0.1110 -0.2342  0.1845
 6090W        W21559   5.892  10.932  12.382 -0.3565  0.0031  0.3461
 6091W        W21560  12.268   4.214  10.154  0.1251  0.0235  0.1230
 6092W        W21561  11.059  15.684  10.715 -0.4788  0.0397  0.0768
 6093W        W21562   6.378   0.608  13.972  0.0237 -0.2259  0.1499
 6094W        W21563  18.705   9.220   2.781 -0.4149 -0.0291  0.2254
 6095W        W21564  17.580   6.615   1.319  0.1765 -0.1146 -0.4545
 6096W        W21565   1.193  18.130  11.898 -0.0952  0.3479  0.0752
 6097W        W21566   5.693   5.568   3.878 -0.0993 -0.0276  0.0690
 6098W        W21567  13.979  13.097  13.373  0.0303  0.0456  0.2258
 6099W        W21568   1.895   6.812  13.753  0.0833  0.1261 -0.0250
 6100W        W21569   7.817  14.810  12.924  0.0258  0.0021 -0.0844
 6101W        W21570   4.338   2.043   1.334  0.4557 -0.0805  0.2449
 6102W        W21571  13.233   8.215   0.641 -0.0227 -0.0166 -0.1186
 6103W        W21572  17.457  12.874  14.851 -0.0644  0.1765 -0.2627
 6104W        W21573  17.853  16.582  14.493 -0.1887 -0.0691  0.0123
 6105W        W21574  18.405   0.755   4.223 -0.1388  0.0619  0.2923
 6106W        W21575   8.861   1.991  11.809  0.1075  0.1230  0.0926
 6107W        W21576  10.181  16.138   3.994 -0.0834  0.1099 -0.2727
 6108W        W21577  14.136   3.105   3.505 -0.0082 -0.1950 -0.0460
 6109W        W21578   6.164   3.934   0.667 -0.4090 -0.0868 -0.0481
 6110W        W21579   1.451  17.029  13.462  0.0724  0.1355  0.0539
 6111W        W21580  12.074   3.593  11.777 -0.1605 -0.1977 -0.1439
 6112W        W21581   3.880  14.283  11.804 -0.0367 -0.1711  0.3347
 6113W        W21582   0.955   1.107   0.792  0.2083  0.2279 -0.1428
 6114W        W21583  14.281  12.055   5.720 -0.2871  0.2229  0.2016
 6115W        W21584   8.561  12.247  10.710  0.1536 -0.1590 -0.0707
 6116W        W21585   3.928  10.178   4.176 -0.2327 -0.0906 -0.1809
 6117W        W21586   2.680  10.713  13.642 -0.1779 -0.0887 -0.0694
 6118W        W21587   6.792   1.418  12.306  0.0866 -0.1113 -0.0957
 6119W        W21588  18.729  14.087  10.993  0.5286  0.1443 -0.0198
 6120W        W21589   1.334  18.512  13.205 -0.0554  0.1669 -0.0647
 6121W        W21590   6.907   1.500   0.805  0.1257  0.0424 -0.0879
 6122W        W21591   8.720   5.133  15.065  0.3746 -0.3364  0.1841
 6123W        W21592  14.061   5.722   5.700  0.0932 -0.2089 -0.1958
 6124W        W21593  10.065  18.250  10.474 -0.1428 -0.4015 -0.2840
 6125W        W21594   2.013  17.423   2.561  0.1353  0.0995 -0.2105
 6126W        W21595   2.153   1.452  12.344 -0.2983  0.0836 -0.3117
 6127W        W21596   4.637   3.344   4.125 -0.1543  0.0978 -0.1359
 6128W        W21597   4.442   3.637  11.609 -0.1390  0.0924 -0.0460
 6129W        W21598  15.619   6.081   1.155 -0.1182 -0.1001  0.1140
 6130W        W21599   5.164   2.357   2.985  0.0261  0.3364 -0.0156
 6131W        W21600   1.938  16.942  14.893 -0.0871  0.3194  0.2191
 6132W        W21601   7.069   6.683  10.736 -0.0586 -0.1906  0.0815
 6133W        W21602  12.530   5.632  12.706 -0.0606 -0.3192  0.1970
 6134W        W21603   9.390  11.440   3.237  0.2378 -0.1941  0.1359
 6135W        W21604   6.781   2.609   0.112  0.1624 -0.1261 -0.1825
 6136W        W21605  17.565   8.338   1.463  0.0858 -0.4907  0.0378
 6137W        W21606   4.839  11.715   1.406 -0.1723  0.0819 -0.1229
 6138W        W21607  15.569  18.187  12.909  0.0116  0.1882  0.2359
 6139W        W21608  18.609   0.034   0.357  0.0573 -0.1576  0.0684
 6140W        W21609   7.564  18.186  11.590  0.2568 -0.2687  0.5147
 6141W        W21610   1.706   6.167  12.194  0.2279 -0.2647  0.3663
 6142W        W21611   3.208  13.949  12.320  0.0970 -0.0167  0.4479
 6143W        W21612   4.588  13.086  11.943  0.0967  0.1471 -0.3646
 6144W        W21613  16.262  13.957   1.023 -0.2585  0.0348  0.0119
 6145W        W21614   7.156  17.214  11.595  0.2438 -0.0917  0.1031
 6146W        W21615   5.210  15.669   2.627 -0.2181  0.0221  0.2806
 6147W        W21616  16.901   0.419   4.790 -0.1412  0.1738 -0.0128
 6148W        W21617  11.027  16.977  12.865 -0.3327  0.2206 -0.1014
 6149W        W21618   8.421   0.960  13.323  0.1601 -0.1459  0.3432
 6150W        W21619  18.445  13.899   3.588  0.0225 -0.0858  0.1967
 6151W        W21620   8.742   1.472  11.985  0.0610  0.0165 -0.1441
 6152W        W21621  13.250   6.780  15.346  0.2351 -0.2086 -0.1133
 6153W        W21622  11.646   0.924  15.364 -0.0388 -0.2037 -0.2156
 6154W        W21623  16.847  12.116  13.565 -0.0863  0.0832  0.0586
 6155W        W21624  11.143   6.603   4.400 -0.0922 -0.0459 -0.1317
 6156W        W21625  12.878  12.878  12.129  0.0372 -0.1684 -0.1594
 6157W        W21626   1.330   0.061  15.449  0.1932  0.2561 -0.1588
 6158W        W21627  14.142   8.258   0.441 -0.3435  0.1693  0.1919
 6159W        W21628  13.287   4.943   3.476 -0.2792 -0.1523 -0.0016
 6160W        W21629   0.503  11.761  13.174 -0.0684  0.3919 -0.2297
 6161W        W21630   5.868   7.373   4.833 -0.0550 -0.1532 -0.0312
 6162W        W21631  15.699   5.971   0.292 -0.3091  0.1213  0.0979
 6163W        W21632  18.191   5.093  12.331  0.1063 -0.1143 -0.0125
 6164W        W21633   9.748   2.250  10.418  0.3257  0.0123  0.1370
 6165W        W21634   9.687  13.592   4.495  0.2549 -0.3789 -0.0686
 6166W        W21635  13.179   3.406  14.502 -0.0454 -0.0195  0.1163
 6167W        W21636   8.523   0.655   2.562  0.1676  0.1259  0.0909
 6168W        W21637   8.089  16.833   2.894 -0.0673  0.1559 -0.0269
 6169W        W21638   4.560   6.684  12.477  0.2783 -0.2105  0.1978
 6170W        W21639   9.290  18.485  11.969 -0.0137  0.1240 -0.1356
 6171W        W21640   9.757  17.632  12.741  0.1129 -0.1519  0.0911
 6172W        W21641   8.050   8.064   0.554 -0.1634 -0.0929 -0.0350
 6173W        W21642   0.102   1.709  14.157  0.1052  0.1018 -0.3062
 6174W        W21643  12.857   8.847  14.944  0.1425  0.0129 -0.0933
 6175W        W21644  16.231  15.877  12.443 -0.2239 -0.1661 -0.3144
 6176W        W21645  10.292   0.924  11.778  0.1026 -0.1980 -0.1880
 6177W        W21646  12.440   8.517  15.172 -0.1740  0.0066  0.0375
 6178W        W21647  11.051   9.261   2.264  0.0786 -0.0831  0.1981
 6179W        W21648   1.940   0.375  11.226  0.0971  0.0563 -0.3284
 6180W        W21649   5.852   4.294  15.538  0.1481 -0.1038  0.0362
 6181W        W21650  14.783   6.314  11.849 -0.3980  0.2493 -0.0265
 6182W        W21651  11.084   9.265  13.282  0.0080 -0.0238  0.0622
 6183W        W21652   2.496   8.886  12.391  0.0597  0.0398  0.1415
 6184W        W21653  11.347   7.865   2.478 -0.0766 -0.2181 -0.0343
 6185W        W21654   9.824   7.419   1.657  0.2641  0.3044 -0.3864
 6186W        W21655   0.793   7.206   1.996 -0.1254 -0.3256 -0.1214
 6187W        W21656  13.443  14.350  13.163  0.0187 -0.0240  0.2297
 6188W        W21657  10.504   4.007   5.062 -0.0615 -0.1383 -0.2440
 6189W        W21658   5.948   1.703   3.541 -0.0906 -0.1990  0.2231
 6190W        W21659  12.649   1.595   1.961 -0.1229 -0.0817 -0.1338
 6191W        W21660  11.104   4.362  12.971  0.0348  0.3352 -0.1796
 6192W        W21661  17.454  15.000   5.711 -0.3749 -0.0194  0.0893
 6193W        W21662  12.006   6.855   4.411 -0.2918 -0.2552 -0.0257
 6194W        W21663   0.833  16.731  12.428  0.0355  0.1213 -0.1199
 6195W        W21664  13.266  11.432  13.985  0.1042  0.1159  0.1005
 6196W        W21665  16.861   5.542   5.257 -0.3170  0.3420  0.0286
 6197W        W21666   6.442   4.589  12.691 -0.4461  0.0622 -0.0107
 6198W        W21667   3.839   9.726  14.691  0.0044  0.0732 -0.1085
 6199W        W21668   4.587   5.221  11.434 -0.1614  0.1098  0.1787
 6200W        W21669   2.198  18.391   0.578  0.1916  0.0380 -0.4041
 6201W        W21670  15.122  13.077   5.934  0.0431 -0.1091  0.0693
 6202W        W21671   9.807   7.427  12.663 -0.0005 -0.3317 -0.0541
 6203W        W21672  11.726   1.156   4.125  0.0871 -0.1530  0.1865
 6204W        W21673  18.406  14.889  15.471  0.1965 -0.3961  0.1211
 6205W        W21674   5.077  15.417  12.629 -0.0370 -0.2772  0.1153
 6206W        W21675  13.266  16.493   1.196 -0.3727  0.0018 -0.0521
 6207W        W21676   7.975  17.011  14.178 -0.1398 -0.2499 -0.2861
 6208W        W21677   6.717  18.153  14.876 -0.0891  0.3313  0.3891
 6209W        W21678   2.386  12.541  11.479 -0.1216  0.1415  0.2883
 6210W        W21679   6.409  14.509   3.010 -0.1939  0.0717 -0.0197
 6211W        W21680  10.222   7.295   3.493 -0.1007 -0.0496  0.0416
 6212W        W21681   9.666   6.989   3.665 -0.0207 -0.0529  0.0660
 6213W        W21682   3.021   5.790   4.217 -0.2093  0.4492 -0.2721
 6214W        W21683  12.377   9.864   4.127  0.0857 -0.1282 -0.0501
 6215W        W21684   8.131   9.904   3.581  0.0505  0.1496  0.1072
 6216W        W21685   0.286   7.056  15.373  0.2604 -0.3206  0.1537
 6217W        W21686   3.773   4.019   1.435  0.2093  0.0385  0.1797
 6218W        W21687  11.798  13.536   3.754 -0.0202  0.0891  0.1348
 6219W        W21688  16.751   1.349  14.382  0.3549 -0.1877  0.0854
 6220W        W21689   5.931   7.474   1.031  0.1966  0.1480 -0.3698
 6221W        W21690  15.539   4.269  11.126  0.0625 -0.2672 -0.0358
 6222W        W21691   0.627   0.108   1.307 -0.2076  0.0727 -0.0454
 6223W        W21692   0.497   7.478   3.762 -0.0204 -0.0008  0.0115
 6224W        W21693  12.708   6.311   4.184 -0.2609 -0.0062  0.0974
 6225W        W21694   6.909   6.620   3.749  0.4317 -0.1698 -0.0491
 6226W        W21695   8.693   9.495  12.110 -0.0939  0.1515  0.0508
 6227W        W21696  13.588   8.204  13.883  0.1410 -0.0250  0.1559
 6228W        W21697   7.500  18.222  12.662  0.0288  0.0404  0.1439
 6229W        W21698   9.674   8.722   5.749  0.2934  0.0443  0.1141
 6230W        W21699   3.960  10.171   0.129 -0.2430  0.0868  0.2925
 6231W        W21700  15.464   2.745   4.143  0.1619 -0.3490 -0.0947
 6232W        W21701   1.190   0.900   3.177 -0.1246  0.0566 -0.1297
 6233W        W21702  11.959   9.752  10.521 -0.0105 -0.1843  0.2007
 6234W        W21703  14.565  12.403   3.855  0.1907  0.2710  0.0012
 6235W        W21704  10.662  18.166  14.660  0.0293 -0.3293  0.1640
 6236W        W21705   2.860  16.639   4.243  0.1115 -0.1218  0.6235
 6237W        W21706  18.247  15.612   2.685  0.0291 -0.1674 -0.0980
 6238W        W21707  15.799  14.235   3.735 -0.0711  0.1440  0.1962
 6239W        W21708  14.308  10.411  15.323  0.2194 -0.1466  0.0230
 6240W        W21709   6.849  11.228  10.778  0.3519 -0.1076 -0.2517
 6241W        W21710  17.118   8.504  15.554  0.3506  0.3713  0.0876
 6242W        W21711   1.612   6.903  14.577  0.0346  0.0134 -0.2479
 6243W        W21712   6.686   1.582   6.016 -0.2342 -0.0381  0.0526
 6244W        W21713   4.469  10.795  12.747 -0.0938 -0.0932  0.1294
 6245W        W21714  18.066  12.075  12.618 -0.0082 -0.0662 -0.1403
 6246W        W21715   5.953   1.692  14.850 -0.0325 -0.1319  0.1430
 6247W        W21716   2.747   2.515   0.278  0.2525 -0.0127 -0.0606
 6248W        W21717  10.141   5.074   4.411  0.0673  0.0417 -0.0973
 6249W        W21718   1.705   6.971   3.645 -0.0663  0.1674 -0.2044
 6250W        W21719  14.447  17.318  13.094  0.0073  0.1509  0.0216
 6251W        W21720  18.402  17.596  12.856 -0.0287  0.1806  0.0908
 6252W        W21721   7.057  16.588   4.764  0.2349 -0.1334 -0.1942
 6253W        W21722  15.516   9.157  12.711  0.0189 -0.4329 -0.2881
 6254W        W21723  15.508   9.595  14.656 -0.3355  0.0621 -0.1586
 6255W        W21724   5.886   1.310  12.197  0.3583  0.0121 -0.2157
 6256W        W21725  15.979   6.568   5.361 -0.0476  0.1979 -0.3631
 6257W        W21726   0.091  14.455   5.315  0.0294 -0.0593 -0.0777
 6258W        W21727  17.540   5.312   2.755 -0.1084 -0.1765  0.2910
 6259W        W21728  18.342  18.633  13.516 -0.5696 -0.0306  0.0491
 6260W        W21729  18.106  12.210   4.235 -0.1888  0.0890 -0.3177
 6261W        W21730   2.765   6.132  12.746 -0.0615  0.2210  0.1134
 6262W        W21731  16.625  11.924   5.146  0.2392 -0.0532 -0.0441
 6263W        W21732  18.139   4.353   2.797  0.0470 -0.3114  0.2321
 6264W        W21733  13.034  13.027   4.288  0.0977  0.0273 -0.1750
 6265W        W21734   8.777   5.058  14.489 -0.0419  0.0685  0.1385
 6266W        W21735   0.810   0.603  11.509 -0.0316  0.0530  0.3427
 6267W        W21736  11.473   6.321   5.111  0.0293  0.3276 -0.1284
 6268W        W21737  16.667   4.631   0.634 -0.0542 -0.0785 -0.1603
 6269W        W21738  14.594  11.415   5.124  0.1468 -0.2626 -0.1814
 6270W        W21739   7.516   4.061  10.597 -0.2144 -0.1306 -0.1898
 6271W        W21740  15.566  10.622  13.418  0.0058  0.2175  0.1293
 6272W        W21741  16.388  14.618   2.145 -0.3131  0.0840  0.1791
 6273W        W21742  16.867  17.356   1.532  0.4140  0.3698  0.0123
 6274W        W21743  16.756   9.819  11.275 -0.4087 -0.0164 -0.2833
 6275W        W21744   9.570   4.269  14.253  0.2721 -0.1149  0.0405
 6276W        W21745   6.394   8.825   0.127 -0.0786  0.2859 -0.1768
 6277W        W21746   9.640  11.405   1.266  0.0929 -0.1351  0.1156
 6278W        W21747   2.053   3.529   4.892 -0.2220  0.1788 -0.4248
 6279W        W21748   5.268  12.054  11.890  0.4007 -0.1555  0.2975
 6280W        W21749  10.791  16.818   1.658 -0.1863  0.1970  0.3627
 6281W        W21750   9.733  16.674  14.640  0.2543 -0.2181  0.2745
 6282W        W21751   1.832  17.350   3.996  0.3823 -0.0627 -0.0116
 6283W        W21752  18.290  11.044   1.876 -0.0154  0.2837  0.2685
 6284W        W21753   7.556  15.418  10.797  0.1046 -0.0717 -0.3331
 6285W        W21754   8.027   5.948  14.970 -0.5116  0.2776  0.3384
 6286W        W21755   5.717  10.901   3.745  0.2073  0.1488  0.0701
 6287W        W21756   0.238   9.591   0.612  0.2835 -0.6237 -0.2059
 6288W        W21757  14.966   5.388   4.607 -0.2511 -0.0465 -0.0293
 6289W        W21758   0.493   5.194   2.924  0.0245 -0.1743  0.1000
 6290W        W21759  15.817   7.772  10.826  0.1211 -0.3709  0.0183
 6291W        W21760   9.325  11.597  14.977  0.0530  0.4363  0.3359
 6292W        W21761   7.564  16.432   3.239  0.0567 -0.0277  0.1126
 6293W        W21762  14.059   3.392  10.221 -0.2408 -0.1948 -0.3008
 6294W        W21763  13.116  14.092  12.814  0.1042 -0.0341  0.0229
 6295W        W21764  12.417   0.778  13.428 -0.1796  0.0966  0.1292
 6296W        W21765  17.372  17.284   1.076  0.2289 -0.0952  0.0917
 6297W        W21766   8.536   9.064  11.352  0.0556  0.3437  0.1217
 6298W        W21767   4.990  13.134   1.370  0.1396  0.1906  0.0407
 6299W        W21768   7.803   5.911  12.046 -0.1116  0.2856 -0.1828
 6300W        W21769   0.474   0.227   4.901  0.1213 -0.1827  0.0917
 6301W        W21770   7.750  13.603  13.956 -0.1136 -0.3192  0.1033
 6302W        W21771   0.495  16.946  13.140 -0.0404  0.1577  0.1092
 6303W        W21772   0.113   9.279  12.804 -0.0411 -0.5191  0.2418
 6304W        W21773  10.253   4.209   0.754  0.2664 -0.2227  0.0485
 6305W        W21774  12.084   0.734   4.094  0.0052 -0.1408  0.2812
 6306W        W21775   8.472   3.281  12.106 -0.2413 -0.1374 -0.0168
 6307W        W21776  18.776   0.699  13.320 -0.0416  0.1952  0.1815
 6308W        W21777  15.928   0.352   3.795  0.1086 -0.0599 -0.1234
 6309W        W21778   0.968   4.966   3.654 -0.0286 -0.1682 -0.0096
 6310W        W21779   1.967  17.130  11.896 -0.4499 -0.0387 -0.1419
 6311W        W21780  18.242   8.610  14.924 -0.0742  0.3449  0.2320
 6312W        W21781   8.653   2.748   4.589 -0.0292 -0.5655 -0.0266
 6313W        W21782   0.658  15.500  13.816 -0.2205 -0.0177 -0.0120
 6314W        W21783   4.920  11.157  14.305  0.0151  0.0228 -0.4112
 6315W        W21784  18.612   8.216  15.332 -0.0419  0.0641  0.4133
 6316W        W21785   9.326   3.106  15.073 -0.3262 -0.1880  0.0821
 6317W        W21786  14.225   4.784  12.040 -0.2991  0.0938 -0.4730
 6318W        W21787  11.285  12.843   4.909  0.1324  0.0656  0.2095
 6319W        W21788  10.418  18.541   3.140 -0.1725  0.0761 -0.0262
 6320W        W21789   7.959   7.869   3.169  0.0374 -0.1806 -0.1740
 6321W        W21790   4.309   9.322   3.279 -0.1177  0.1830  0.0088
 6322W        W21791  14.433  16.720   1.509  0.2242  0.3423  0.3514
 6323W        W21792  15.302  13.265  14.436  0.0735  0.2995  0.0598
 6324W        W21793  15.832  17.349  13.340 -0.0980  0.0948  0.0452
 6325W        W21794  15.127   4.799   4.894  0.0301 -0.0283  0.1274
 6326W        W21795   4.441  12.081   4.453  0.0676 -0.1814 -0.1767
 6327W        W21796  17.311   4.790  11.893  0.3502  0.1915 -0.0594
 6328W        W21797   0.499  18.507   5.561 -0.2650  0.1048 -0.1426
 6329W        W21798   9.411   1.800  11.600  0.1022 -0.0090 -0.2032
 6330W        W21799  14.134  10.699  14.791 -0.1912 -0.0107  0.1286
 6331W        W21800  13.197  13.540   3.274 -0.3701  0.0298  0.0410
 6332W        W21801   8.080   1.918   3.419 -0.0725  0.1881 -0.3415
 6333W        W21802  18.158   3.596   2.878 -0.3050  0.3873  0.1331
 6334W        W21803   1.090  16.882  10.887 -0.2063 -0.0714  0.1541
 6335W        W21804  14.650   9.925   5.366  0.1731 -0.3200  0.0472
 6336W        W21805   2.431   9.799   3.478  0.1663 -0.3119 -0.0746
 6337W        W21806  14.843  13.105  14.671  0.1942 -0.2364  0.1292
 6338W        W21807   9.589  14.038  11.870 -0.2670 -0.1443 -0.3798
 6339W        W21808   0.660   6.651   3.454  0.1468 -0.0807  0.1409
 6340W        W21809   0.704  12.536   3.239  0.1438 -0.0560  0.0013
 6341W        W21810  11.353  14.682  15.644  0.0072 -0.2258  0.0945
 6342W        W21811   8.594   9.308  15.439 -0.0717  0.1527  0.0739
 6343W        W21812  12.707  10.808  14.796  0.1291 -0.1053 -0.0191
 6344W        W21813  16.091  17.432   0.405 -0.0418  0.2173 -0.1651
 6345W        W21814   6.425   5.262   5.452 -0.0381  0.2395  0.0890
 6346W        W21815  18.223  13.769  13.016  0.2299  0.1953  0.1529
 6347W        W21816  16.809   8.827   5.167  0.2150 -0.0201 -0.2505
 6348W        W21817   8.729  13.470   0.726 -0.1872 -0.1384 -0.0692
 6349W        W21818  10.205  13.428   3.439 -0.2365 -0.2556 -0.2015
 6350W        W21819   8.161   4.066   3.805  0.4166  0.0702 -0.1105
 6351W        W21820   0.484  11.714   3.358  0.1191  0.0709  0.0908
 6352W        W21821  17.518  15.793   5.998 -0.3954 -0.1022 -0.0796
 6353W        W21822   1.706  13.277  11.963 -0.2509 -0.3155 -0.0978
 6354W        W21823   6.532  12.344  11.772  0.1531 -0.3129 -0.0057
 6355W        W21824   1.583  15.647  14.884 -0.1123 -0.1768  0.1782
 6356W        W21825   7.179  10.212   4.656  0.5144  0.0043 -0.1437
 6357W        W21826   4.319  16.590  13.903  0.3597 -0.0332  0.0256
 6358W        W21827   8.997   6.502  13.488 -0.2171  0.0082 -0.2089
 6359W        W21828   9.061  18.202  14.551 -0.3157  0.2043 -0.0448
 6360W        W21829   2.802   6.459   0.862 -0.1324 -0.1338  0.2390
 6361W        W21830  14.820   2.624  14.279 -0.2691  0.2869  0.0735
 6362W        W21831  12.244  16.875   4.334 -0.1785  0.0042  0.2426
 6363W        W21832   5.143  15.104   2.735  0.0688  0.1517  0.3596
 6364W        W21833  14.481   5.669  15.016 -0.1821  0.0754 -0.1796
 6365W        W21834   2.418  17.882   1.769  0.3401  0.0585 -0.0637
 6366W        W21835   1.056  17.011   0.959 -0.1516  0.1125  0.1211
 6367W        W21836  17.908  17.293   3.270  0.2293 -0.1197  0.0136
 6368W        W21837   0.358  10.202  12.728 -0.1356  0.0847 -0.1059
 6369W        W21838   4.827  13.504  14.808 -0.4226  0.3179 -0.1396
 6370W        W21839  12.486  13.388   2.724  0.2382  0.3103 -0.1956
 6371W        W21840  14.199  18.320   5.520  0.0209  0.1497  0.1719
 6372W        W21841  11.679  17.640   3.499  0.3395 -0.0191  0.3116
 6373W        W21842  14.030  13.789   5.512  0.0041  0.1318  0.1560
 6374W        W21843   3.504   7.728   3.805  0.1113  0.1350 -0.1025
 6375W        W21844  15.877  15.534   0.432 -0.0072 -0.4348  0.3644
 6376W        W21845  10.977  18.518  12.543  0.0322 -0.0956 -0.1292
 6377W        W21846  17.266   9.938  12.492 -0.2176 -0.0880 -0.0890
 6378W        W21847  15.665  14.225   3.203 -0.3046 -0.0448  0.0947
 6379W        W21848   9.643  18.103  14.079 -0.0935 -0.3914  0.3131
 6380W        W21849  17.695  17.692   0.225 -0.1931 -0.1699 -0.0891
 6381W        W21850  10.793  11.998   1.459 -0.0442 -0.0428  0.3156
 6382W        W21851  16.605   9.368   1.635  0.3305  0.0672 -0.5235
 6383W        W21852   2.749   9.411   4.196 -0.0596  0.2249  0.0840
 6384W        W21853   5.142   3.996  14.502 -0.0158  0.0820 -0.0070
 6385W        W21854   4.593  18.557  11.920  0.0644 -0.0464 -0.1137
 6386W        W21855  13.772  17.663  13.056  0.0636  0.1460 -0.1648
 6387W        W21856   3.020  11.559  11.253 -0.0120  0.0552  0.0858
 6388W        W21857   3.485  17.088   2.579 -0.0325  0.2930 -0.0610
 6389W        W21858  12.924   9.360  12.719 -0.0133  0.2318 -0.1028
 6390W        W21859  17.650  12.962   6.182  0.0976  0.1060 -0.1169
 6391W        W21860   8.225   1.969   2.974 -0.1547 -0.1339  0.2224
 6392W        W21861   3.107  17.381   2.354  0.0338  0.0402 -0.0212
 6393W        W21862  10.468   6.000  11.205 -0.1048  0.0584 -0.5013
 6394W        W21863   4.045   1.763  14.371 -0.1180  0.1587  0.0185
 6395W        W21864   5.183  10.182  14.370  0.1423  0.0154  0.4008
 6396W        W21865   8.134   4.280  13.042 -0.1539  0.1206  0.1026
 6397W        W21866   3.116  13.320   4.483  0.1972  0.3224  0.2561
 6398W        W21867  17.945  13.386   4.675  0.2604 -0.1446  0.1556
 6399W        W21868  10.600   2.619  14.761 -0.2303  0.0126  0.1149
 6400W        W21869  12.806  15.200   3.934 -0.2287 -0.0279  0.0403
 6401W        W21870   3.421  11.403  12.745  0.0772  0.3949 -0.0622
 6402W        W21871  18.559   4.546  15.622  0.0134 -0.0124  0.1388
 6403W        W21872  13.589  10.589  12.719  0.0510  0.0471 -0.0851
 6404W        W21873   1.227   3.519  10.672  0.1848  0.0957 -0.0513
 6405W        W21874  14.651  10.504  12.394 -0.3214 -0.0006 -0.1132
 6406W        W21875   3.603   6.445  11.871  0.0117 -0.1536 -0.0021
 6407W        W21876   8.949  10.713  13.176 -0.0796  0.2008 -0.0677
 6408W        W21877  12.697  10.657   6.108  0.4202  0.1791 -0.1103
 6409W        W21878  11.117   2.862  12.616 -0.1824 -0.0037 -0.0654
 6410W        W21879  15.059   1.610  13.457 -0.2783 -0.2810  0.2324
 6411W        W21880  11.962  17.064   2.432  0.3293  0.1752  0.0063
 6412W        W21881   7.320   3.228   4.719 -0.0824 -0.1685  0.3034
 6413W        W21882  17.390   3.374   5.175 -0.0778  0.0127 -0.3177
 6414W        W21883   0.800   4.385   3.966  0.3904 -0.0013  0.0703
 6415W        W21884  11.236  12.282  14.656  0.1553  0.1623  0.1386
 6416W        W21885   2.144   4.167   4.636 -0.2090  0.2752 -0.1839
 6417W        W21886   3.644   2.016   2.108 -0.1358  0.0817 -0.0404
 6418W        W21887   4.753   9.902   0.028  0.0573  0.1277  0.0581
 6419W        W21888   3.660   4.354   1.022  0.1581 -0.0172  0.0920
 6420W        W21889   4.303  15.973  14.180 -0.0989  0.2416  0.3724
 6421W        W21890   4.960  12.249  15.624 -0.2014  0.0129 -0.0223
 6422W        W21891  15.243  16.555  11.289 -0.0193 -0.0536 -0.0388
 6423W        W21892  16.740   6.624  13.741 -0.1004  0.4034  0.0031
 6424W        W21893   3.947   0.110  14.665 -0.0916 -0.1332 -0.0943
 6425W        W21894   7.762  11.999  14.526 -0.0996  0.1311  0.3487
 6426W        W21895  11.063  13.464  14.719 -0.3138 -0.1554 -0.2874
 6427W        W21896   5.157   9.123   4.368  0.2577  0.2240  0.0312
 6428W        W21897   2.323   7.931   0.813 -0.3428  0.2057 -0.2795
 6429W        W21898  13.799   1.334  13.797 -0.1607 -0.3728 -0.0608
 6430W        W21899   3.415   8.923   5.029 -0.1812 -0.2928  0.1841
 6431W        W21900   9.598  18.510   4.089  0.1918 -0.2087  0.0957
 6432W        W21901  11.113   0.017  11.431  0.1991  0.0720 -0.1841
 6433W        W21902  15.591   9.265  12.117 -0.0346 -0.0418  0.1584
 6434W        W21903  18.071  17.314  12.525  0.2484 -0.0626 -0.2499
 6435W        W21904   9.062   8.897  11.178  0.0869 -0.1949 -0.0907
 6436W        W21905  14.463   1.276   3.629  0.0213  0.0904 -0.0352
 6437W        W21906   4.663   0.731   0.314  0.1696  0.1037 -0.0320
 6438W        W21907   2.755   8.956   0.263 -0.3052 -0.1778 -0.2080
 6439W        W21908  10.041  14.394   1.551 -0.0605  0.0564  0.0967
 6440W        W21909  18.431  11.819   1.547  0.0396  0.1585  0.3608
 6441W        W21910   5.340   0.459   5.415 -0.3208 -0.4729 -0.3899
 6442W        W21911   6.285   2.182  13.664 -0.0514 -0.0017 -0.1386
 6443W        W21912   1.257   3.888  15.068 -0.0386  0.2122  0.2009
 6444W        W21913   5.298   0.872  15.081  0.2091 -0.0261 -0.0876
 6445W        W21914   2.105   4.438  14.654  0.3731  0.0491 -0.1781
 6446W        W21915  12.304   3.528   3.960 -0.0110  0.0165 -0.0278
 6447W        W21916   0.701  14.187   1.069 -0.2930  0.3228  0.1343
 6448W        W21917   3.750   1.281   5.542 -0.1413  0.0066  0.2444
 6449W        W21918   2.000  17.572   5.659  0.0000 -0.0639  0.0674
 6450W        W21919   4.835  17.110   1.259 -0.0448  0.1599 -0.4670
 6451W        W21920  14.922  13.449  11.894 -0.2330 -0.0679 -0.1046
 6452W        W21921   3.833   4.925   4.806  0.1706  0.3083 -0.1177
 6453W        W21922   7.040  14.580   3.952 -0.0512 -0.2791 -0.1536
 6454W        W21923   6.745   0.923   2.178  0.2664  0.4028  0.3927
 6455W        W21924   5.212  17.759  15.172  0.2754  0.1736 -0.2913
 6456W        W21925   9.591   5.759  10.759  0.1822 -0.2383  0.3062
 6457W        W21926  15.641  16.642  14.918 -0.1122 -0.0093  0.1820
 6458W        W21927   7.994  17.131  13.647 -0.1472  0.0800 -0.2659
 6459W        W21928  16.699  10.824  12.630 -0.0199 -0.0272 -0.1316
 6460W        W21929   7.226   5.711   1.033  0.1708  0.1075 -0.1099
 6461W        W21930   6.893   3.804   5.686 -0.0359  0.2403 -0.1520
 6462W        W21931   9.816   5.372  11.578  0.0628  0.0029  0.3297
 6463W        W21932  15.243  12.775  14.464  0.7238  0.2665  0.0020
 6464W        W21933  17.429   5.472   4.403  0.1476  0.4676  0.1716
 6465W        W21934  14.904   7.747  14.109 -0.2472 -0.2299 -0.0104
 6466W        W21935   9.885  12.277   4.405 -0.2004 -0.0733 -0.0328
 6467W        W21936  13.787  14.025  14.268 -0.1962 -0.1691 -0.0241
 6468W        W21937  17.402  17.899   3.962 -0.2187  0.1292  0.1249
 6469W        W21938  16.409   8.865   4.081 -0.0994 -0.2402 -0.3935
 6470W        W21939   2.660  14.314  13.547  0.0246 -0.0214  0.1100
 6471W        W21940  14.929   4.969  13.756 -0.1540 -0.1118 -0.1362
 6472W        W21941  11.511   8.143  15.180 -0.2288  0.1280 -0.0272
 6473W        W21942  17.810   2.274   5.348 -0.2018  0.3230  0.3477
 6474W        W21943  16.863  12.168   4.742  0.0441 -0.1692 -0.1320
 6475W        W21944   5.660  14.577  15.184  0.1449  0.2846  0.3037
 6476W        W21945  10.353   1.695   3.213  0.0189 -0.3563  0.0589
 6477W        W21946  11.969  16.384   0.060  0.1555  0.0994 -0.1534
 6478W        W21947  16.457  10.337   5.136 -0.1482 -0.0703  0.2471
 6479W        W21948   5.903  11.947  14.403  0.1366  0.2466  0.1859
 6480W        W21949   8.867  18.089   4.681 -0.1595  0.0595  0.0389
 6481W        W21950  11.289  16.110  10.809 -0.0066 -0.0766  0.0144
 6482W        W21951  14.904   1.057   3.974  0.0090  0.0962 -0.3534
 6483W        W21952   0.455  13.822   2.927 -0.0444  0.0449 -0.1104
 6484W        W21953   1.906   8.615   4.907 -0.0700  0.1745 -0.1830
 6485W        W21954  12.691   2.066   1.047 -0.2954 -0.0066  0.2847
 6486W        W21955  10.028   6.470  15.074 -0.0241  0.2030 -0.0002
 6487W        W21956   2.472   2.678  10.701 -0.3191  0.1796 -0.1531
 6488W        W21957   7.169   8.039  12.454 -0.1695  0.1694  0.0621
 6489W        W21958   8.556   0.901   4.896  0.1503 -0.0389 -0.3030
 6490W        W21959  13.236   3.687   2.666 -0.0708  0.0320  0.1817
 6491W        W21960  16.597   7.900   4.458 -0.0255 -0.1199  0.0766
 6492W        W21961   3.429  14.892  15.278 -0.2148 -0.2213 -0.0089
 6493W        W21962  12.973   2.455   0.964  0.2349 -0.1871  0.0907
 6494W        W21963   4.569  15.201   4.067  0.2168  0.1003  0.2120
 6495W        W21964   6.797   5.271   0.474 -0.2459  0.1235  0.1133
 6496W        W21965   4.800   0.756  13.070 -0.0647  0.0606 -0.0263
 6497W        W21966  14.638  18.317  14.131 -0.0453  0.2892  0.0904
 6498W        W21967   9.687  18.590  12.234 -0.1479  0.1537  0.0947
 6499W        W21968   4.535  15.182  12.768  0.1319  0.0415  0.2926
 6500W        W21969  10.937   0.695   4.779 -0.1656 -0.0902 -0.1440
 6501W        W21970   5.686  17.582   2.085 -0.0001 -0.1774  0.3061
 6502W        W21971  15.952   0.669   4.850  0.0490 -0.0362  0.2956
 6503W        W21972  17.004  13.576   3.730  0.0656  0.3269 -0.2813
 6504W        W21973   7.126   6.748  10.202  0.0282 -0.0454  0.2843
 6505W        W21974   2.584  12.149  12.999 -0.0856  0.2062  0.3107
 6506W        W21975   9.671  11.549  12.368  0.0382  0.0914 -0.0695
 6507W        W21976   0.365  13.881  11.249  0.1110 -0.1768 -0.2298
 6508W        W21977   9.639  18.185  10.740  0.1722  0.0001 -0.0566
 6509W        W21978  17.687   6.592  15.011 -0.0634  0.0455  0.0259
 6510W        W21979   1.994  15.226   2.349 -0.2296  0.0020  0.1999
 6511W        W21980  17.542  16.735  13.164 -0.0371  0.1101  0.0113
 6512W        W21981   8.709  18.406  15.487  0.4469 -0.0315 -0.0718
 6513W        W21982   1.799  13.541  14.755  0.0869 -0.0543  0.1849
 6514W        W21983  15.788   8.507   0.518  0.0032  0.2479 -0.1947
 6515W        W21984   9.054  10.480  10.318 -0.0574 -0.2529 -0.0057
 6516W        W21985  15.891  17.808   3.714  0.2520  0.0350 -0.0880
 6517W        W21986   9.323   3.257  11.221  0.2509  0.1432 -0.2714
 6518W        W21987   7.077   7.530  15.016 -0.2641  0.1865 -0.1223
 6519W        W21988  14.685   1.134   0.351 -0.0619  0.0078 -0.2562
 6520W        W21989  14.767  16.910   2.322  0.1961 -0.4140  0.1957
 6521W        W21990   2.372  16.128   3.388  0.1293  0.0475  0.2843
 6522W        W21991  10.909   3.237  11.547 -0.2533  0.1774  0.2899
 6523W        W21992   7.754   1.725   3.103  0.3279  0.1576  0.0367
 6524W        W21993   3.671  14.775   1.432  0.1935 -0.2498 -0.1298
 6525W        W21994   0.677   4.708   4.431  0.0453  0.4010  0.1614
 6526W        W21995  13.677  16.790   5.336  0.3394  0.1667 -0.4173
 6527W        W21996  12.230   7.750  11.007  0.4230 -0.1923  0.3845
 6528W        W21997   1.005  16.165  14.508  0.2023  0.2441 -0.0010
 6529W        W21998  11.843   3.279  10.055  0.2386  0.2996  0.1566
 6530W        W21999  14.080   3.472  10.746  0.3110  0.0958 -0.0865
 6531W        W22000  17.804  17.358   2.761  0.3460  0.2839  0.1718
 6532W        W22001  10.848   6.180   3.828  0.1389  0.0495  0.1514
 6533W        W22002  18.059  18.485  15.001  0.0455  0.1161 -0.0573
 6534W        W22003  10.500   9.117  10.229 -0.0658  0.0091 -0.1608
 6535W        W22004  18.169   6.262  11.881  0.2105  0.0310  0.0977
 6536W        W22005   5.618   6.661  11.995 -0.1267  0.2002 -0.0694
 6537W        W22006   9.955  14.605   2.206 -0.0147  0.0201 -0.0843
 6538W        W22007   3.487   8.157  13.465  0.2527  0.2846 -0.2438
 6539W        W22008   2.086  12.719  11.029  0.1095 -0.2684 -0.1657
 6540W        W22009  18.488  18.197  11.072 -0.0448 -0.0549 -0.2537
 6541W        W22010  13.775  14.012  12.613  0.1114 -0.1316  0.0779
 6542W        W22011  13.679   4.739   2.147 -0.1189 -0.0612 -0.0238
 6543W        W22012   2.968   2.245  15.599  0.0297 -0.0191  0.2380
 6544W        W22013   9.010  14.238   0.938 -0.1687 -0.2202 -0.2582
 6545W        W22014  13.480   1.880  14.706 -0.1638  0.2010 -0.0100
 6546W        W22015  18.174  13.046   0.524 -0.2468  0.1349  0.1527
 6547W        W22016   5.956   1.254  14.621 -0.0491 -0.0201  0.0875
 6548W        W22017  15.280  14.683   0.613  0.0556  0.0149  0.3597
 6549W        W22018  18.436  14.261   5.089  0.3635 -0.3020  0.2855
 6550W        W22019  13.591   1.765   5.387 -0.3121  0.1433  0.1281
 6551W        W22020   8.676   0.408   4.532 -0.3404 -0.0185  0.2877
 6552W        W22021   4.568  14.784  13.848 -0.1615  0.1606 -0.0038
 6553W        W22022   5.324   0.778   1.142  0.0850 -0.0075 -0.0843
 6554W        W22023  16.202  13.826   2.114 -0.1483 -0.0189 -0.1240
 6555W        W22024  10.012  13.268  11.739 -0.0912 -0.1729  0.0994
 6556W        W22025   3.311  18.092  12.413  0.0752  0.1628 -0.2859
 6557W        W22026  16.100  15.205   3.808  0.5218  0.0486 -0.0636
 6558W        W22027  10.541  16.560  11.188  0.1618 -0.2891 -0.1333
 6559W        W22028   6.606   8.854   2.824  0.1199  0.0202 -0.0534
 6560W        W22029  10.101  10.285   2.926  0.1881  0.1458 -0.0416
 6561W        W22030   2.233  16.031  15.164 -0.0185 -0.0560 -0.1484
 6562W        W22031  11.566  12.086   1.552  0.2489 -0.0036  0.0080
 6563W        W22032  11.225  15.651  11.940  0.0674  0.2021  0.1439
 6564W        W22033  10.935   0.931   2.964  0.1584 -0.2696  0.2173
 6565W        W22034  13.331   2.994  10.324  0.1663  0.0351 -0.0039
 6566W        W22035  13.038   0.132  13.155 -0.1631 -0.0524  0.2627
 6567W        W22036   9.836  17.189  13.005 -0.1600 -0.3351  0.1371
 6568W        W22037   2.755   0.941  11.462  0.3324 -0.1726 -0.0010
 6569W        W22038  13.787   5.422   0.247 -0.0175  0.1772 -0.1741
 6570W        W22039  11.046   5.618  13.692 -0.1514 -0.0474 -0.0516
 6571W        W22040  12.097   2.452   4.359  0.1319  0.0939  0.2921
 6572W        W22041   0.050   6.398   0.301  0.1944  0.1813 -0.0490
 6573W        W22042   6.928   5.645   4.254 -0.2053 -0.0583  0.1683
 6574W        W22043   8.075  15.684   2.517 -0.0387 -0.2192  0.2795
 6575W        W22044   1.288   8.291   4.501  0.0580  0.0792 -0.2075
 6576W        W22045   0.921   6.629   1.085 -0.0223 -0.0005  0.0561
 6577W        W22046   9.244   4.921  13.535  0.2387 -0.0592 -0.4512
 6578W        W22047   2.668   8.689   3.783 -0.1353 -0.0887  0.2517
 6579W        W22048  16.447  16.399   0.621 -0.0783  0.3516 -0.0767
 6580W        W22049  17.584  15.470   0.085 -0.2051 -0.0688 -0.1711
 6581W        W22050  17.088  12.328  11.209  0.1584  0.1089 -0.2252
 6582W        W22051  12.223   5.878  12.443 -0.1554 -0.1831 -0.1831
 6583W        W22052  10.640  15.775  12.796 -0.2061  0.0979  0.1620
 6584W        W22053  11.346   4.270   0.701  0.0312  0.1457  0.1382
 6585W        W22054   2.419  15.929   3.961  0.2573 -0.1873  0.2425
 6586W        W22055  13.167  18.173  13.725 -0.0356 -0.4777 -0.1538
 6587W        W22056   9.560   7.507  12.145 -0.1377 -0.2606 -0.1104
 6588W        W22057   0.070  14.594  11.785  0.3164  0.0102 -0.2193
 6589W        W22058  11.338   9.665  11.513  0.1359 -0.0620  0.0318
 6590W        W22059  15.234  14.810  10.802  0.0832 -0.0939  0.2186
 6591W        W22060  16.564  17.879   5.202  0.0590 -0.0088  0.1043
 6592W        W22061  11.884  12.542  11.786  0.0058  0.2159  0.1946
 6593W        W22062   4.075  14.644   3.663  0.1572 -0.0101 -0.0694
 6594W        W22063   3.911   6.282  14.385  0.2236 -0.3037 -0.2448
 6595W        W22064   0.220  11.697  14.565 -0.0082 -0.0323  0.0014
 6596W        W22065   4.424   8.479  12.578  0.4070  0.0747  0.2674
 6597W        W22066   6.914  17.029  15.473 -0.3988 -0.0231 -0.0123
 6598W        W22067  12.730  10.625   0.884  0.2780  0.0954 -0.1534
 6599W        W22068   8.198   0.056   0.860  0.2605  0.2164  0.2481
 6600W        W22069   7.674   5.613   1.347 -0.2504 -0.2190 -0.1529
 6601W        W22070   9.429  14.712  10.476 -0.0838 -0.1986  0.0450
 6602W        W22071   8.579   3.174  10.733 -0.3011 -0.0792 -0.1075
 6603W        W22072  14.865  11.852  11.484  0.0031  0.0094 -0.0531
 6604W        W22073  12.014   2.952  15.222 -0.0093 -0.0650 -0.1345
 6605W        W22074  15.866  15.512  15.255  0.0274  0.1956  0.0953
 6606W        W22075   4.424   8.597   3.407  0.4680  0.2344  0.0747
 6607W        W22076  12.184   3.425  14.510  0.1217  0.2727 -0.1576
 6608W        W22077   5.551   3.289   1.927  0.2120 -0.0564 -0.0735
 6609W        W22078  17.180   1.084  14.404  0.4959 -0.0561  0.0143
 6610W        W22079   3.427  12.507   2.748  0.3272  0.1384 -0.0509
 6611W        W22080   4.182  12.378   3.471  0.1765 -0.1222 -0.4728
 6612W        W22081  16.991  12.362  14.009 -0.3557  0.1151  0.0524
 6613W        W22082  15.592  12.062   5.090 -0.0487 -0.2000  0.2179
 6614W        W22083  11.903  18.016   4.929 -0.1581 -0.0111 -0.1152
 6615W        W22084  11.704  18.755   2.754 -0.0581  0.2891 -0.3520
 6616W        W22085   4.189   4.138  13.424 -0.0699  0.2184  0.0032
 6617W        W22086  10.603  17.107   5.633 -0.1917  0.0639 -0.0516
 6618W        W22087  12.324  18.500   1.405 -0.1543  0.1078  0.3729
 6619W        W22088  17.205   9.555   0.748 -0.0090  0.3602 -0.1191
 6620W        W22089  14.767   0.915   4.880  0.0486 -0.0225 -0.0727
 6621W        W22090   6.396   2.132  12.238 -0.0653  0.0428 -0.1539
 6622W        W22091  13.729  15.076  12.328 -0.0508 -0.2860 -0.1784
 6623W        W22092   8.879   8.210  11.766  0.2273  0.0774  0.0699
 6624W        W22093   8.815   2.575   5.320  0.0258  0.1184 -0.0870
 6625W        W22094  18.553   4.528   3.082 -0.0430 -0.2249  0.2332
 6626W        W22095  15.590   7.913  12.220  0.1441 -0.0601 -0.2452
 6627W        W22096   3.982   7.569   2.430 -0.1202 -0.3126  0.0851
 6628W        W22097  10.459  15.796   4.988 -0.0059  0.1568 -0.1120
 6629W        W22098  10.479  12.612   2.581  0.1493  0.0595 -0.3477
 6630W        W22099   0.590  15.868   3.213 -0.0403  0.0645 -0.3088
 6631W        W22100   2.223   8.221   1.626 -0.0989  0.0689 -0.0512
 6632W        W22101   0.816  14.212  11.996  0.2007  0.1186 -0.1309
 6633W        W22102   0.013  18.271   3.190  0.1499 -0.0686 -0.0099
 6634W        W22103  18.533   8.287   1.829 -0.2513 -0.0535 -0.1014
 6635W        W22104  12.999  17.597  14.384 -0.2947  0.0382  0.1927
 6636W        W22105   6.701   9.722  14.361 -0.0313 -0.1304  0.3666
 6637W        W22106  17.968   7.797  15.669 -0.0841  0.1879 -0.0665
 6638W        W22107  12.917   2.515  11.220  0.2163 -0.0404 -0.1420
 6639W        W22108   5.335  18.502  12.506  0.1344 -0.1482 -0.1670
 6640W        W22109   8.481   7.587   2.023 -0.1594 -0.1447  0.1993
 6641W        W22110   8.426  15.003  10.388  0.1581 -0.2921  0.1755
 6642W        W22111  18.514  15.564   4.930 -0.0166 -0.1788  0.0513
 6643W        W22112   7.997  12.667   5.462 -0.0407 -0.0873 -0.0783
 6644W        W22113  10.876   1.411  10.964  0.1525 -0.0940 -0.1287
 6645W        W22114  12.356  13.919  13.939  0.1468  0.1281  0.0671
 6646W        W22115   6.765  11.505   9.556 -0.1146  0.0119 -0.1305
 6647W        W22116   0.483   0.372  14.735  0.0238  0.0324  0.1268
 6648W        W22117  13.692   7.096  10.906  0.1465  0.0373  0.0853
 6649W        W22118  16.424  14.957   4.202 -0.2678 -0.0850  0.0624
 6650W        W22119  10.602  15.215   2.900 -0.0444 -0.0470 -0.1961
 6651W        W22120   2.971  13.192   0.706  0.0177 -0.0490 -0.5314
 6652W        W22121   4.051  16.857   2.812 -0.2136  0.1162  0.0193
 6653W        W22122  16.844   0.005   1.278 -0.0264  0.0115  0.0433
 6654W        W22123   1.105   1.251   1.882  0.0923  0.2762  0.1712
 6655W        W22124  11.368  10.734   3.932  0.1630  0.0526  0.1735
 6656W        W22125   0.193   6.654   3.205  0.0369 -0.0684  0.2759
 6657W        W22126   9.494  18.094   5.816  0.1566  0.0890  0.1462
 6658W        W22127  13.466  17.434   9.997 -0.0499  0.1880 -0.1356
 6659W        W22128  17.895  18.180   3.976 -0.1689 -0.0148 -0.0191
 6660W        W22129   6.260  16.941   4.242 -0.3698 -0.1537 -0.1809
 6661W        W22130  17.117  10.422   3.014  0.4536  0.0844 -0.2701
 6662W        W22131  12.194   8.318  13.408 -0.1429  0.2027 -0.5973
 6663W        W22132   5.758  14.151  11.769  0.2085 -0.0194 -0.0250
 6664W        W22133   5.343  11.918  13.196 -0.4113  0.0518  0.1884
 6665W        W22134  13.006   7.352   1.011  0.2627 -0.0356  0.1492
 6666W        W22135  13.128   0.341   1.825  0.1512 -0.0103  0.1255
 6667W        W22136   6.123  16.612   3.283 -0.3316  0.0418  0.0199
 6668W        W22137  10.224  12.862   3.375 -0.2414  0.2384 -0.0096
 6669W        W22138   7.820  16.672   0.888  0.2959  0.0781 -0.0376
 6670W        W22139  10.813   6.415  13.374  0.0474 -0.2804 -0.2321
 6671W        W22140   0.794  12.294   0.712 -0.2449 -0.0509 -0.0394
 6672W        W22141   1.119   8.408   2.830  0.2649 -0.1237 -0.0529
 6673W        W22142   2.704  13.575   1.972 -0.1326  0.1791 -0.0549
 6674W        W22143   5.866   6.452   5.401 -0.4126 -0.2613 -0.2542
 6675W        W22144  15.178  17.311  14.235  0.0546  0.0440  0.2200
 6676W        W22145  15.841   9.583  11.395 -0.2688 -0.2994  0.0316
 6677W        W22146  13.569   0.719   3.173 -0.1476 -0.1934  0.1956
 6678W        W22147   9.817  11.329   2.183 -0.4273  0.1098  0.0651
 6679W        W22148   7.138   3.960  13.739  0.2249  0.0256  0.1246
 6680W        W22149   5.560  18.089   1.915 -0.1820 -0.0825 -0.1379
 6681W        W22150   9.227   8.458  10.851  0.1889 -0.0895  0.0977
 6682W        W22151  11.772  12.098  12.693  0.0065  0.0377 -0.0854
 6683W        W22152   4.695  13.135  15.449  0.1339 -0.3671 -0.2819
 6684W        W22153  14.923  16.170   5.300  0.2491  0.1506 -0.2017
 6685W        W22154   1.078  18.781  12.474 -0.2850 -0.0611  0.1476
 6686W        W22155   3.550  18.273   5.737 -0.0218 -0.1725  0.3328
 6687W        W22156   7.811   1.835   2.621  0.0263  0.2717  0.1018
 6688W        W22157   5.866  16.925   1.508 -0.0728  0.1724 -0.0751
 6689W        W22158   0.904  16.068  13.235 -0.0198  0.3219  0.3381
 6690W        W22159  16.439   0.645   4.503  0.2030  0.2397  0.2128
 6691W        W22160  10.649   3.850  10.723 -0.4880  0.1374 -0.0549
 6692W        W22161  14.003   4.113   2.119  0.0798  0.0332  0.1173
 6693W        W22162  11.227   3.822  10.862 -0.1562 -0.1200 -0.3127
 6694W        W22163   4.169   2.941   2.924 -0.0226  0.1133  0.1578
 6695W        W22164  11.061   8.856  13.621  0.2237  0.0657 -0.1436
 6696W        W22165   9.714   1.816  10.182 -0.0419 -0.4347  0.0801
 6697W        W22166  15.346  12.636  15.270 -0.0457  0.1796  0.0476
 6698W        W22167   4.989   9.723  11.133  0.1576 -0.2106 -0.1946
 6699W        W22168   5.893  18.642  10.129 -0.0416  0.0936  0.2895
 6700W        W22169   2.781   4.132  11.922 -0.0589 -0.1265 -0.1723
 6701W        W22170  18.678  10.113  14.454 -0.3109  0.0540 -0.0431
 6702W        W22171   7.421   5.016   4.649  0.1398  0.1408  0.1969
 6703W        W22172   8.752  13.743  13.004  0.1130 -0.0716 -0.1457
 6704W        W22173   4.470  11.870   1.732 -0.1786  0.1998 -0.2033
 6705W        W22174  16.837   5.815  10.877  0.1995  0.0837  0.2357
 6706W        W22175  16.000  16.332  14.709 -0.0339 -0.0899  0.4431
 6707W        W22176  18.651  14.967   4.663 -0.2432  0.3284 -0.1888
 6708W        W22177  12.308   0.752   3.613 -0.2768  0.0271 -0.2804
 6709W        W22178   6.522   5.427  15.152 -0.0919  0.4253  0.1442
 6710W        W22179  13.451  10.086   5.138  0.0819  0.1769  0.2655
 6711W        W22180  11.403  15.583   1.101  0.1160 -0.0928 -0.0212
 6712W        W22181  17.643   5.267   3.759 -0.0897  0.2721 -0.1555
 6713W        W22182  10.858   9.028  14.708 -0.0837  0.1060  0.1197
 6714W        W22183  18.509   5.940   1.233 -0.1017 -0.0407 -0.3890
 6715W        W22184  18.217   6.141   2.955 -0.0260  0.4208  0.3320
 6716W        W22185   9.541   2.738   0.651  0.2188  0.1173  0.0977
 6717W        W22186   7.797   6.338   1.305 -0.0239  0.2549 -0.1089
 6718W        W22187   2.687  17.083   2.290  0.0897  0.4362 -0.1664
 6719W        W22188  18.231  13.346   5.323  0.1569 -0.1170 -0.0677
 6720W        W22189  14.483  11.542   0.319  0.2457  0.0602 -0.2220
 6721W        W22190  13.957   6.361   1.382  0.1904  0.3379 -0.1081
 6722W        W22191   0.720   7.911  12.935 -0.2245 -0.0155 -0.0881
 6723W        W22192   8.635   2.904   1.111  0.0716  0.2978  0.3172
 6724W        W22193  16.999  13.024  12.350 -0.0240  0.2699  0.2913
 6725W        W22194   5.519   9.747   2.403 -0.0384  0.0187  0.1638
 6726W        W22195   4.531   6.585   4.802 -0.0719  0.1804  0.0113
 6727W        W22196   7.441   3.443   2.132  0.0141  0.0052 -0.2376
 6728W        W22197   5.553  10.857   0.280 -0.1979 -0.0357 -0.0924
 6729W        W22198  11.343   1.073   1.053  0.0905  0.1168  0.1955
 6730W        W22199  14.082   9.015  14.206 -0.3189  0.1464 -0.1293
 6731W        W22200   4.948  11.812   5.706 -0.0064  0.0873 -0.4006
 6732W        W22201   9.537   2.103  15.248  0.0568 -0.1314 -0.1431
 6733W        W22202  14.307  14.154  10.085  0.1716  0.0065 -0.0370
 6734W        W22203   1.519   1.108   2.502 -0.0043 -0.2402 -0.1030
 6735W        W22204   5.897   2.361  13.461 -0.0386 -0.1722 -0.1330
 6736W        W22205   0.566   9.044  12.160 -0.0088  0.1640 -0.2089
 6737W        W22206  17.121  11.252  11.901 -0.2299 -0.1233 -0.0429
 6738W        W22207   6.509  10.384   1.128  0.0612  0.1683 -0.0276
 6739W        W22208  15.239  16.624  10.775  0.0884  0.2476 -0.0192
 6740W        W22209   2.606   2.996   3.527  0.2715 -0.1325 -0.0198
 6741W        W22210   7.291   4.398  11.205  0.1617 -0.1213 -0.0172
 6742W        W22211   3.578   9.596   3.140  0.1314  0.2290 -0.0561
 6743W        W22212   2.286   6.749  12.883  0.4189  0.2748  0.1989
 6744W        W22213   2.874   6.246   4.402  0.1049 -0.0075  0.1847
 6745W        W22214  11.547   3.126   1.562  0.0390  0.1579 -0.0137
 6746W        W22215   2.599   0.767   6.229 -0.0916 -0.1119 -0.0780
 6747W        W22216  13.969   4.772  10.479 -0.1570  0.1081  0.0448
 6748W        W22217  13.432   1.100  10.627 -0.3412 -0.2056  0.2891
 6749W        W22218  13.783  12.779   3.154 -0.3493 -0.0798 -0.0102
 6750W        W22219   3.461  13.207   0.466  0.0550 -0.1184 -0.0138
 6751W        W22220   4.901   5.978  15.155  0.1740  0.1238  0.0768
 6752W        W22221  17.596  16.320   5.102  0.3184  0.1757  0.0227
 6753W        W22222   4.179   1.131   2.191  0.2512  0.0046  0.0859
 6754W        W22223   1.172   5.551   3.971  0.1462 -0.4578 -0.1855
 6755W        W22224  14.514   3.038   4.351  0.0193  0.1604 -0.0127
 6756W        W22225   2.200   0.039  11.540 -0.0064  0.0791  0.2326
 6757W        W22226  17.797  12.356   2.384  0.2577  0.1918 -0.0322
 6758W        W22227  13.702   6.085  10.827  0.2698  0.2585  0.0015
 6759W        W22228   2.150   3.029   2.050  0.2112  0.0465  0.2641
 6760W        W22229   2.551  18.469   2.401  0.0989 -0.3807  0.0760
 6761W        W22230   4.603  18.189   2.708 -0.1687  0.1502  0.1461
 6762W        W22231   2.472  16.292   2.939  0.0486  0.2611 -0.0222
 6763W        W22232  18.506  12.161   1.087  0.2794  0.2838  0.2254
 6764W        W22233  11.068  11.335   1.644 -0.1510 -0.0090 -0.1251
 6765W        W22234  11.584  11.456  14.590  0.2085  0.0338 -0.1445
 6766W        W22235   7.528   5.605  12.341 -0.3486 -0.1223  0.0660
 6767W        W22236   1.344   0.955   1.585 -0.0930 -0.2716 -0.1683
 6768W        W22237   4.673   5.568   1.424  0.1153 -0.1393  0.1410
 6769W        W22238   5.187   4.222  13.703 -0.2860 -0.4407 -0.4526
 6770W        W22239  15.112  13.574  15.414 -0.1871 -0.2295  0.1413
 6771W        W22240  15.219   1.181   4.907 -0.0325 -0.1818 -0.2082
 6772W        W22241  17.113   0.258  12.841  0.1315 -0.2961  0.0360
 6773W        W22242  11.107  13.113   2.897  0.1198 -0.3871  0.2543
 6774W        W22243  15.228  11.311   4.349  0.0767  0.1374 -0.0745
 6775W        W22244   6.454   2.226  12.794 -0.0984  0.2662 -0.2154
 6776W        W22245   6.027  11.563  11.983  0.0670  0.0464  0.1151
 6777W        W22246   9.715   9.058  11.864  0.2492 -0.1457 -0.1422
 6778W        W22247   7.617  12.667  11.024 -0.0978 -0.1882  0.3712
 6779W        W22248   6.868  18.517  11.254  0.1803 -0.3345 -0.1492
 6780W        W22249   5.339  15.361   3.514 -0.1280 -0.2821 -0.0537
 6781W        W22250  11.715   6.616  12.317  0.0428  0.1035  0.1514
 6782W        W22251   4.145  14.685   1.801  0.0399 -0.1919  0.0773
 6783W        W22252   8.174   1.292  10.879  0.1984 -0.0711 -0.0718
 6784W        W22253  13.311   4.199   3.785 -0.3513 -0.0251 -0.2446
 6785W        W22254  17.692   1.155   5.990 -0.0300 -0.3574 -0.4698
 6786W        W22255  11.820  18.583   3.260  0.0709  0.1736  0.2894
 6787W        W22256   6.354  11.149   2.580  0.3413 -0.1083  0.5194
 6788W        W22257  14.674  18.313  12.493  0.0255  0.3630 -0.0804
 6789W        W22258   7.293   1.021   3.000 -0.1754 -0.0391 -0.0973
 6790W        W22259  13.754  17.078   2.391 -0.2188 -0.1050 -0.1793
 6791W        W22260   8.894   2.245   2.915 -0.0114 -0.1946 -0.1052
 6792W        W22261   5.953   1.003   9.923  0.0634 -0.3641 -0.2323
 6793W        W22262   8.989  14.770   2.795  0.2716 -0.0613 -0.1710
 6794W        W22263   1.275  13.163  13.495  0.0058 -0.0689  0.0765
 6795W        W22264   3.232   0.962   3.874 -0.0692  0.1497 -0.0399
 6796W        W22265  13.590   2.240  13.367 -0.1368  0.1416 -0.1232
 6797W        W22266  14.809  10.826  14.146 -0.1461 -0.1111 -0.1277
 6798W        W22267  15.794   7.332   2.018 -0.1660  0.2570 -0.1599
 6799W        W22268   4.121   7.492   3.075 -0.0715  0.0867 -0.0405
 6800W        W22269   0.091   3.208   4.283  0.1740  0.4066  0.2841
 6801W        W22270   5.799  14.548  12.172 -0.1163  0.1850  0.2972
 6802W        W22271   9.541  17.199  15.565 -0.0012 -0.1623 -0.1383
 6803W        W22272   3.352   1.959   0.167  0.0530  0.0760 -0.6156
 6804W        W22273   0.918   3.358   2.382  0.1732  0.3723 -0.1336
 6805W        W22274  12.005   5.286  11.875 -0.0250  0.1247  0.0279
 6806W        W22275   4.478  17.215   3.564  0.4584  0.1526  0.2823
 6807W        W22276  14.384  10.134   2.072 -0.0032 -0.2779  0.0559
 6808W        W22277  14.690  17.196   5.231 -0.1218  0.0316  0.2539
 6809W        W22278  10.464   6.620  13.725  0.1834 -0.0805  0.0289
 6810W        W22279   8.470   6.830  10.486  0.0565 -0.2920 -0.1402
 6811W        W22280   7.640   6.567  12.566 -0.0866  0.1886  0.2662
 6812W        W22281   6.771   5.429  11.851 -0.3493  0.0917  0.2641
 6813W        W22282  15.177   5.610  14.236 -0.0290  0.0322 -0.0704
 6814W        W22283   6.360   6.641  12.799 -0.1261 -0.0354  0.1943
 6815W        W22284   5.589  11.154   4.551  0.4294  0.1456  0.1956
 6816W        W22285  17.729   5.543   0.684  0.0244  0.0176 -0.3440
 6817W        W22286   2.109  11.497   5.697 -0.2672  0.2091 -0.1994
 6818W        W22287  11.270   8.436  13.469 -0.2532 -0.1992  0.1935
 6819W        W22288  11.472   0.846  13.875 -0.0408 -0.2952  0.0205
 6820W        W22289  16.664   1.178  13.002  0.3426 -0.1001  0.2251
 6821W        W22290  14.060  11.025  13.517 -0.1868 -0.1000 -0.0136
 6822W        W22291   7.616   2.754  14.645 -0.0794  0.0528 -0.0045
 6823W        W22292   3.209   4.434   4.354 -0.0353 -0.0379  0.0992
 6824W        W22293   9.480  11.328   4.785 -0.2864 -0.0729  0.1641
 6825W        W22294   5.230   2.891   2.863 -0.2916  0.1116 -0.3590
 6826W        W22295  13.826   5.891   3.431  0.1477 -0.2899  0.0688
 6827W        W22296   6.439  16.901   0.361 -0.3748  0.0083  0.1055
 6828W        W22297   7.600   9.576   9.734  0.0713  0.1164 -0.0651
 6829W        W22298   3.207   4.890   4.171  0.2088  0.0913 -0.0616
 6830W        W22299   3.236  14.029  15.317  0.0124  0.3010  0.2465
 6831W        W22300   6.677   1.906   0.398 -0.1805 -0.3978  0.2256
 6832W        W22301  15.921   0.533   1.428 -0.0577  0.0028 -0.3263
 6833W        W22302  14.717  16.862   1.153 -0.2805  0.1364  0.1748
 6834W        W22303  10.664  14.767  15.179 -0.1922  0.1635 -0.0719
 6835W        W22304  15.379  16.167   2.121  0.1793 -0.0210  0.2369
 6836W        W22305   3.718  14.660   4.250  0.1779  0.0741  0.1303
 6837W        W22306  12.017  11.896   2.510  0.1516 -0.0658  0.0376
 6838W        W22307  16.052  17.094   5.046  0.0307 -0.2439  0.1739
 6839W        W22308   5.704  11.200  12.750 -0.2072 -0.0516 -0.3250
 6840W        W22309   6.146   0.366  14.963  0.0437 -0.1035 -0.0779
 6841W        W22310   8.796   0.687  13.145 -0.1979  0.2903 -0.1373
 6842W        W22311   5.228  13.999   0.487  0.1029  0.3233  0.0543
 6843W        W22312   2.956  12.268  11.257 -0.1131  0.3494  0.0132
 6844W        W22313  13.416  10.094  11.958  0.3279  0.0887  0.0862
 6845W        W22314   1.578   5.551   0.991  0.1413 -0.3883 -0.0174
 6846W        W22315  16.600  10.161   5.576  0.0188 -0.1184 -0.1970
 6847W        W22316   7.266  18.434   3.662  0.2920  0.0933 -0.1850
 6848W        W22317   3.259   2.321  12.304  0.0609  0.0667 -0.0279
 6849W        W22318  12.310   8.163   6.069  0.1236 -0.2853  0.0158
 6850W        W22319  17.028   9.038  15.669 -0.4329 -0.3251  0.0323
 6851W        W22320   5.209  12.986  13.110  0.2359  0.0901 -0.2292
 6852W        W22321  10.482   7.529   4.762 -0.0767 -0.0031 -0.1762
 6853W        W22322  15.308   1.747   2.224 -0.4065 -0.2384  0.2604
 6854W        W22323   4.295  11.706  12.444 -0.0153  0.0045 -0.0609
 6855W        W22324   4.960  15.447   1.845 -0.0713  0.0241  0.1603
 6856W        W22325   7.137   8.638  13.866 -0.0125  0.1106  0.4471
 6857W        W22326   1.558   1.547   3.264  0.1694  0.0899  0.2071
 6858W        W22327   9.146   5.698  10.993  0.1731  0.0000 -0.2315
 6859W        W22328   2.636   3.544  11.748 -0.0577 -0.2489 -0.1324
 6860W        W22329   1.380  13.661  13.532  0.0447 -0.2072 -0.1106
 6861W        W22330   4.958   8.301  12.020 -0.2964  0.1270 -0.0202
 6862W        W22331  11.688  14.905   5.851  0.0511 -0.3000 -0.1906
 6863W        W22332   5.207   9.574  14.072 -0.2127  0.1180  0.1149
 6864W        W22333   4.946  16.891  12.682  0.1265 -0.0973  0.0885
 6865W        W22334   1.504  16.703  14.824 -0.3903  0.3978 -0.0313
 6866W        W22335  14.831  11.506   4.655 -0.0804  0.3629 -0.1208
 6867W        W22336  15.417   0.852  13.875  0.2406 -0.1031 -0.0400
 6868W        W22337   9.637  10.263   1.211  0.2228 -0.1060  0.0047
 6869W        W22338   2.753  11.515   9.670  0.2069 -0.2573 -0.0203
 6870W        W22339  15.788   0.218   4.646 -0.2459 -0.2378  0.1235
 6871W        W22340  10.262  10.695  13.495 -0.2680 -0.0307 -0.4223
 6872W        W22341   0.734  15.202  12.349 -0.2721  0.0244  0.2319
 6873W        W22342  11.899   3.147  11.985 -0.3253 -0.0288  0.0812
 6874W        W22343  15.761   7.536   4.934  0.0435 -0.1751  0.2128
 6875W        W22344   8.116   8.421  11.570  0.1809  0.2428 -0.2936
 6876W        W22345  12.573   1.583  12.789  0.4073  0.2846 -0.0341
 6877W        W22346   5.250  12.714  14.382  0.3296 -0.3783 -0.2308
 6878W        W22347   1.469  17.923  12.764 -0.1249 -0.0072  0.3901
 6879W        W22348  17.387   4.006   0.631 -0.3753 -0.0994  0.1554
 6880W        W22349  16.755   0.402  11.902 -0.0851  0.2174  0.3019
 6881W        W22350   3.346   0.696  13.043  0.1213 -0.0077 -0.0755
 6882W        W22351   1.806   1.291   2.924 -0.0446 -0.2586  0.1490
 6883W        W22352  15.600   7.728   2.539  0.0804 -0.1855  0.0879
 6884W        W22353   8.897   7.803   1.773 -0.2617  0.3663  0.1270
 6885W        W22354  16.725   7.282   1.439 -0.0891  0.1157  0.0155
 6886W        W22355  11.850   1.918  11.435 -0.1289  0.2097 -0.1157
 6887W        W22356   1.269  15.765   2.510  0.0898  0.1071  0.2278
 6888W        W22357   4.261   9.209  11.246  0.1731  0.1725  0.1832
 6889W        W22358   0.274   2.462  14.388 -0.0823  0.0425  0.2732
 6890W        W22359   5.423  11.100   0.739 -0.0975  0.4127 -0.1290
 6891W        W22360   4.989  15.438   3.116 -0.1983  0.0270 -0.1135
 6892W        W22361  12.187   7.779   0.172  0.5326  0.1612 -0.0676
 6893W        W22362  15.484  15.757  13.055 -0.5319 -0.1654 -0.0633
 6894W        W22363  11.978  17.499   2.237  0.0921  0.0697  0.1446
 6895W        W22364  17.098  14.773   3.101 -0.3072  0.1237  0.1027
 6896W        W22365  16.054  11.062   3.182  0.0707  0.1088 -0.1818
 6897W        W22366   0.265   1.664   5.951 -0.1549  0.1522  0.2217
 6898W        W22367  17.225   7.421   1.105  0.2506  0.0286 -0.1052
 6899W        W22368   3.616   2.298  10.208 -0.5169 -0.4524  0.1176
 6900W        W22369   3.040   7.354   2.372  0.1168 -0.1708 -0.2184
 6901W        W22370   8.256  18.589  15.348  0.3074  0.1347  0.0552
 6902W        W22371   0.243  16.788  14.702  0.1598 -0.0120 -0.1754
 6903W        W22372   5.943   8.345   5.514  0.2468  0.2528 -0.2777
 6904W        W22373  14.353   4.803   1.527  0.1463  0.2666  0.0958
 6905W        W22374  16.415   1.005  14.668  0.1904 -0.1039  0.0269
 6906W        W22375   9.809   1.484  13.447 -0.2041  0.1314 -0.1907
 6907W        W22376  12.762  15.753   0.280  0.1096 -0.0536  0.2335
 6908W        W22377  16.382   3.101  13.045 -0.0415  0.2442  0.1086
 6909W        W22378   1.569  15.568   2.934  0.1819  0.1744  0.1228
 6910W        W22379   8.658  15.666  11.818  0.1009  0.0054  0.0678
 6911W        W22380  12.769  13.452   5.059  0.0673 -0.0878 -0.0782
 6912W        W22381   0.372  13.534  14.524 -0.2032  0.4015  0.1409
 6913W        W22382   1.297   0.949   5.665 -0.2927  0.1360 -0.0837
 6914W        W22383  16.875  14.790  13.846  0.1806  0.2564  0.4380
 6915W        W22384  13.206  11.063   3.101  0.3635  0.3415 -0.0900
 6916W        W22385   7.776   2.242   2.880 -0.1072 -0.1631  0.1823
 6917W        W22386   7.966  15.208  14.461 -0.0270 -0.0423 -0.2129
 6918W        W22387   4.320  11.311   3.205 -0.3115 -0.1038  0.0944
 6919W        W22388   5.309   2.832   5.232  0.2603  0.3443 -0.1162
 6920W        W22389  11.320   5.701   4.845 -0.3285  0.0125  0.2409
 6921W        W22390   4.934   8.644   3.401  0.0332 -0.0608 -0.0886
 6922W        W22391  10.213  10.405  14.546  0.2447 -0.0598 -0.2602
 6923W        W22392  10.657  13.435  11.241  0.0046  0.1815 -0.1410
 6924W        W22393  12.164  12.647   3.874  0.0348 -0.0371  0.0201
 6925W        W22394  14.883  16.026  11.399  0.2110 -0.0328  0.1761
 6926W        W22395  16.779   4.862  15.150  0.0892 -0.0420  0.0637
 6927W        W22396  17.186   2.970  12.842 -0.3420  0.0501 -0.0820
 6928W        W22397  16.754  11.650   0.177  0.0765 -0.0006 -0.1101
 6929W        W22398   9.485   6.131  13.757 -0.0808  0.0059  0.0713
 6930W        W22399   6.557  16.979   2.986 -0.3389  0.2386  0.4664
 6931W        W22400   8.640   1.517  11.080  0.1114  0.1311 -0.0137
 6932W        W22401  18.478  18.784  12.067 -0.2720  0.2181 -0.1988
 6933W        W22402   6.069   2.482   0.698  0.3586 -0.0732 -0.0471
 6934W        W22403  16.520   4.133  11.565  0.0240 -0.1231  0.0197
 6935W        W22404   8.978   6.600   2.286  0.0931 -0.0676  0.0365
 6936W        W22405  16.778  15.560  13.417 -0.4178 -0.0786 -0.0735
 6937W        W22406  13.075  12.041   2.991  0.1342 -0.2038 -0.1760
 6938W        W22407   1.180   2.423  11.987 -0.1297 -0.2676 -0.0786
 6939W        W22408   8.633  17.888  13.180  0.0723 -0.0967  0.0049
 6940W        W22409  17.253   0.396   3.899 -0.1388  0.0002 -0.0529
 6941W        W22410  12.169  14.553   4.255 -0.1903  0.1877  0.3063
 6942W        W22411  15.485   7.628  14.169 -0.3321 -0.1737 -0.1211
 6943W        W22412   8.671   2.737  12.151 -0.0929 -0.7032  0.3185
 6944W        W22413  10.872   6.858  15.510  0.2709 -0.0617  0.0555
 6945W        W22414   6.130  15.831  13.488  0.0446  0.1293 -0.4544
 6946W        W22415  14.775  14.768   4.007 -0.2230  0.0149 -0.5000
 6947W        W22416  13.640   6.067  13.134  0.0037  0.0503  0.0846
 6948W        W22417   9.620   2.868   4.104  0.0366  0.2380 -0.1374
 6949W        W22418   6.489  14.338  11.500 -0.0299  0.3793 -0.0771
 6950W        W22419   8.001   1.903   5.791 -0.0425  0.1546  0.3621
 6951W        W22420  15.864   4.901  11.745  0.0008  0.3658 -0.0407
 6952W        W22421   2.546   5.127   1.050 -0.2576 -0.1608 -0.0820
 6953W        W22422   9.784   6.429   4.862  0.1660  0.0076 -0.3298
 6954W        W22423  15.513  13.487  13.906 -0.0426 -0.0917 -0.2621
 6955W        W22424   1.979  10.921   3.731 -0.2357  0.1766 -0.1563
 6956W        W22425   2.471  10.589  11.514 -0.1093  0.0708 -0.0992
 6957W        W22426   4.299  12.509   0.423  0.3113 -0.0652  0.4522
 6958W        W22427  11.106  12.635  11.054 -0.2913  0.2671 -0.0135
 6959W        W22428   1.478  12.306   4.206  0.2422  0.1332  0.2910
 6960W        W22429   0.557   3.790   4.893  0.0513 -0.2300  0.1523
 6961W        W22430   5.886  16.869  11.769 -0.0982  0.2654  0.4677
 6962W        W22431   4.301   4.061  12.220  0.0686 -0.1931  0.0278
 6963W        W22432   7.682   1.891  14.691 -0.0156 -0.2445 -0.1786
 6964W        W22433  14.687   5.734  15.534  0.3058 -0.0733 -0.0586
 6965W        W22434   2.517  17.658   4.366  0.2829 -0.0235  0.0510
 6966W        W22435  18.364   7.586   3.768  0.1602  0.0135  0.0066
 6967W        W22436   3.921   3.454   0.192 -0.2132 -0.1123 -0.0957
 6968W        W22437   8.926   0.219   5.322 -0.1103 -0.4476 -0.0570
 6969W        W22438  14.193   1.321  14.708 -0.0967  0.1642  0.0477
 6970W        W22439  14.002  12.744  14.860 -0.1761  0.2623 -0.0865
 6971W        W22440  13.976   9.970  15.595 -0.2007  0.0612  0.1749
 6972W        W22441   2.490  17.246  13.360  0.0476 -0.2881  0.1994
 6973W        W22442   2.573   4.172   0.989  0.2511  0.0673 -0.0339
 6974W        W22443  15.249   0.095  15.494  0.2364  0.0576  0.0762
 6975W        W22444   8.401  15.794  10.854  0.3082 -0.3043 -0.0859
 6976W        W22445   2.295  10.759  13.279  0.0743  0.0874  0.1456
 6977W        W22446  14.902   8.900  14.561  0.0179 -0.0148  0.2034
 6978W        W22447  11.782   1.882  10.850 -0.1201  0.1162 -0.1118
 6979W        W22448  16.629  12.612  10.454  0.1517 -0.2012  0.0984
 6980W        W22449   8.554  16.017  10.308 -0.1060 -0.3715 -0.2169
 6981W        W22450   8.319   8.785   4.242 -0.0632 -0.3000  0.1160
 6982W        W22451   6.133   1.129   2.132 -0.3242  0.2210 -0.0099
 6983W        W22452   8.117   9.844   1.189  0.1988  0.1262  0.0155
 6984W        W22453   2.912  13.087   1.599 -0.0153  0.1138 -0.0954
 6985W        W22454  17.268  15.844   0.424  0.2788 -0.1542  0.2099
 6986W        W22455   4.309   0.181   3.431  0.4184  0.3045  0.0962
 6987W        W22456   4.979   9.780   4.934  0.0146  0.2005 -0.0872
 6988W        W22457  14.595   6.889   2.466 -0.3492 -0.3464 -0.1470
 6989W        W22458   6.502  11.601   2.962 -0.1559 -0.4231 -0.0764
 6990W        W22459   2.266   8.138  13.025  0.0377  0.1220 -0.2746
 6991W        W22460  16.635   5.188  13.310 -0.4622 -0.1687 -0.1472
 6992W        W22461  18.587   8.243  14.817  0.3365  0.2187  0.1419
 6993W        W22462  15.659   8.388   1.060 -0.1292 -0.1142 -0.1358
 6994W        W22463   4.690   8.087   2.406 -0.0774  0.0962  0.1906
 6995W        W22464   1.872   4.002  11.136  0.0401  0.2884 -0.1358
 6996W        W22465   0.400   6.615  12.463  0.0058 -0.2569 -0.0796
 6997W        W22466  12.692  15.714   4.014  0.0546  0.1196 -0.0615
 6998W        W22467  11.395   3.133  11.708  0.1169 -0.0073 -0.1632
 6999W        W22468   9.226   5.374  15.158  0.0386 -0.1108  0.3414
 7000W        W22469  11.205   9.626   0.943  0.0220  0.1309  0.1371
 7001W        W22470   6.888  10.592   4.820 -0.1778  0.0711 -0.5064
 7002W        W22471   7.615   1.878   1.633 -0.0815 -0.4183 -0.2905
 7003W        W22472   5.849   5.268   1.887 -0.0285 -0.2193 -0.0927
 7004W        W22473   7.776   4.295   9.574 -0.0428  0.0070  0.0875
 7005W        W22474   1.062   7.960   0.328  0.2499 -0.2272  0.0922
 7006W        W22475  16.412  18.742   1.718  0.2940  0.2075  0.1364
 7007W        W22476   6.121  13.762  14.466  0.1231  0.0244  0.1068
 7008W        W22477   3.863  14.512  10.592  0.0019  0.1968 -0.1885
 7009W        W22478   0.037   1.938   4.493  0.4217 -0.0383  0.0731
 7010W        W22479   9.190   9.685  13.493 -0.1041  0.1665  0.0626
 7011W        W22480  16.344  15.114   1.951 -0.0379  0.3206 -0.4435
 7012W        W22481  14.510   3.109  10.142 -0.0026 -0.0599  0.0912
 7013W        W22482  14.655   2.476  13.822  0.2293  0.1628 -0.2281
 7014W        W22483  10.279   8.191  12.323  0.3303  0.2337 -0.0004
 7015W        W22484  17.978  11.588  11.768  0.1864  0.1577 -0.2015
 7016W        W22485   3.260  18.552  12.278 -0.0406  0.0579  0.0096
 7017W        W22486  18.784  11.540   3.275  0.1599 -0.2552 -0.2694
 7018W        W22487   1.965   2.078  11.063  0.1359  0.0535 -0.0866
 7019W        W22488  17.543   3.042   0.665  0.1357 -0.4472  0.0824
 7020W        W22489  12.438   1.702   5.494  0.3902 -0.2218  0.0685
 7021W        W22490   3.048  15.942   5.460  0.2063 -0.0197 -0.3011
 7022W        W22491  16.867  12.687   1.456  0.0604  0.1274 -0.2882
 7023W        W22492   3.034  12.635   3.175  0.0299  0.0727 -0.0542
 7024W        W22493   1.045   1.203   2.401 -0.2065  0.1358 -0.0845
 7025W        W22494   0.777  17.287   0.677 -0.0624 -0.4330 -0.3221
 7026W        W22495   2.643  13.762  14.222  0.3510  0.2346  0.2032
 7027W        W22496  16.216   3.819  11.198  0.0239 -0.0253 -0.1575
 7028W        W22497   0.056   0.472   4.634 -0.2524 -0.1874 -0.1331
 7029W        W22498   3.375   3.458   0.803 -0.2745  0.0552  0.0604
 7030W        W22499   6.802   2.579  10.965  0.2085 -0.1269 -0.2160
 7031W        W22500  16.987  11.091  15.492  0.0735  0.1035  0.2409
 7032W        W22501  11.525  18.665   1.917  0.0873  0.1872 -0.3950
 7033W        W22502   2.689   3.982   5.059  0.0049 -0.0752 -0.1482
 7034W        W22503  15.936   8.411   1.831 -0.0542 -0.1433 -0.0097
 7035W        W22504  17.920   2.260   0.031  0.3968 -0.2884 -0.0199
 7036W        W22505  13.823   9.546   6.337 -0.0400  0.0273  0.1560
 7037W        W22506   7.247  15.254   4.325  0.0303 -0.1485  0.1000
 7038W        W22507  16.521   4.707  14.733  0.0034  0.1969 -0.0665
 7039W        W22508  14.334  11.236   0.679  0.1967  0.2046 -0.1360
 7040W        W22509  16.975   9.816   5.845 -0.0619  0.1714  0.0796
 7041W        W22510   9.823  18.783  13.552 -0.0452 -0.1669 -0.0987
 7042W        W22511   9.144  10.098   1.126  0.0855  0.2684  0.1200
 7043W        W22512   3.038   2.647  14.452  0.2239  0.0585 -0.0673
 7044W        W22513   9.357   0.990   3.841  0.1083 -0.1704  0.1956
 7045W        W22514   9.320   5.704  10.291  0.0742 -0.3535 -0.0400
 7046W        W22515   7.368  11.634  13.054  0.1373 -0.1472  0.0813
 7047W        W22516  11.800  12.453   1.822  0.3344  0.0798  0.0108
 7048W        W22517  12.247   7.617   9.810 -0.1498  0.1948  0.3493
 7049W        W22518  18.459   9.585  11.140  0.0030 -0.0047  0.0809
 7050W        W22519   4.430  10.407  11.557 -0.3574  0.0870  0.0084
 7051W        W22520  11.689  18.613   4.129  0.2531  0.0623 -0.0471
 7052W        W22521  12.849  12.247   4.774  0.2391  0.0665 -0.1290
 7053W        W22522  15.250   6.361   3.920 -0.1184 -0.2316  0.0928
 7054W        W22523   9.978  16.450   0.489 -0.1951  0.0211 -0.2409
 7055W        W22524  13.155  12.447  12.099 -0.0852  0.1345 -0.2112
 7056W        W22525  15.377   1.716  10.951 -0.1016 -0.1960  0.1872
 7057W        W22526   7.536  17.544   9.863 -0.1619  0.2513  0.1783
 7058W        W22527   9.973  10.295   5.260 -0.2085 -0.1545 -0.0129
 7059W        W22528  10.073  13.404  13.884  0.3531 -0.0214  0.1589
 7060W        W22529  16.696  15.492  15.301 -0.0235 -0.1011 -0.0434
 7061W        W22530   2.489   4.109  14.535  0.2560  0.1325 -0.2561
 7062W        W22531  16.855  16.546   5.742  0.0738 -0.0805  0.0772
 7063W        W22532  11.946   8.264  10.815  0.2154 -0.5093  0.0625
 7064W        W22533  16.494  12.394   2.030  0.0071 -0.0444 -0.0307
 7065W        W22534  15.547  16.034   1.254 -0.2612  0.0608  0.0542
 7066W        W22535   2.599  18.207   3.631  0.1597 -0.1793 -0.1886
 7067W        W22536   0.643   5.756  13.280 -0.1333 -0.1510  0.2620
 7068W        W22537   5.288   3.009  14.036  0.0624  0.0500 -0.2007
 7069W        W22538  17.961  16.015   0.226 -0.1683  0.0444  0.0980
 7070W        W22539   8.307   3.409   9.848 -0.1315 -0.1686  0.2340
 7071W        W22540   1.727  10.312   1.706  0.3627 -0.5000 -0.0997
 7072W        W22541   9.428   7.886   1.506 -0.0624  0.1874  0.3943
 7073W        W22542  11.253  11.776   1.296 -0.2186 -0.0846  0.1328
 7074W        W22543  17.120   3.811   3.315 -0.2833 -0.1289 -0.0391
 7075W        W22544   0.655   6.171   9.534  0.1954 -0.2165  0.1773
 7076W        W22545   9.009   2.377  13.019  0.0542 -0.1952  0.2780
 7077W        W22546   4.118   7.979   0.930  0.0662  0.1624  0.2145
 7078W        W22547  12.863   5.575  15.447 -0.0661 -0.0057  0.0291
 7079W        W22548  12.875  18.749   4.468 -0.1735  0.0351  0.0779
 7080W        W22549   4.156  17.873  11.677 -0.1345 -0.0186 -0.2510
 7081W        W22550  17.872   7.290  15.572 -0.3651 -0.0259  0.0092
 7082W        W22551  14.173   1.293   1.883  0.1994 -0.0721 -0.1034
 7083W        W22552   5.250   1.905  10.675  0.1604 -0.1827  0.0967
 7084W        W22553   2.131   4.277  12.591 -0.1284 -0.4386  0.0553
 7085W        W22554   1.488  10.175   0.428 -0.1482 -0.1294 -0.0764
 7086W        W22555  17.673   1.771   0.549  0.0578 -0.0645  0.2148
 7087W        W22556   9.051  11.887   1.926 -0.1610 -0.0765  0.0197
 7088W        W22557   0.456   5.502   0.735 -0.1600  0.3463 -0.1199
 7089W        W22558  15.798   5.322  13.365 -0.2346  0.4262 -0.1009
 7090W        W22559  18.047   0.329   2.285  0.0272 -0.0562  0.0545
 7091W        W22560   9.418  14.893   3.647 -0.1285 -0.2124 -0.1244
 7092W        W22561   8.494  14.492   2.780  0.4337 -0.0400  0.4408
 7093W        W22562   1.326  17.470  12.606  0.0115  0.0278 -0.0700
 7094W        W22563   9.291   5.815   4.292  0.0172 -0.0842  0.2107
 7095W        W22564   4.610  16.252  11.853 -0.3552  0.0373 -0.0736
 7096W        W22565  12.821   4.511   2.719  0.1237 -0.0191 -0.4000
 7097W        W22566  13.559   3.461   4.452 -0.1899  0.0533  0.4582
 7098W        W22567  11.165   2.520   1.936 -0.3404 -0.1865 -0.1794
 7099W        W22568  10.524  15.683  15.433 -0.1287 -0.0448 -0.0308
 7100W        W22569  17.248   2.153   1.987 -0.1290 -0.2222 -0.1948
 7101W        W22570   6.999   6.526  12.501  0.0853  0.0459 -0.2619
 7102W        W22571   0.541  15.574  10.994 -0.0351 -0.0999 -0.1167
 7103W        W22572  11.862   0.349   4.181 -0.0133 -0.1383 -0.1898
 7104W        W22573   5.831   7.976   2.857  0.1622 -0.1009 -0.3292
 7105W        W22574  12.025  10.726   1.820  0.5654 -0.2678  0.0657
 7106W        W22575  14.150   5.828   4.757 -0.0222  0.0241  0.1763
 7107W        W22576  10.805   6.558  12.009  0.1826 -0.1050  0.1280
 7108W        W22577   8.482   9.889   9.542  0.2378 -0.2696 -0.0405
 7109W        W22578   4.342  16.708   5.373  0.0654 -0.3358  0.4602
 7110W        W22579  10.134   9.915   4.775  0.2092  0.1017  0.1671
 7111W        W22580  15.015   4.500   4.502 -0.1097 -0.1423  0.2237
 7112W        W22581   4.368   2.483  11.210  0.0762  0.1842 -0.0396
 7113W        W22582   9.649   0.452  13.958 -0.0174 -0.0050  0.3448
 7114W        W22583  16.458   7.690  13.707  0.1191 -0.0105  0.2208
 7115W        W22584  10.430  15.704  14.715 -0.1181  0.2129 -0.2000
 7116W        W22585   9.186  16.457  13.636 -0.0559  0.1644 -0.1915
 7117W        W22586  10.278  11.712   5.174  0.0465  0.2829 -0.0531
 7118W        W22587   2.784   4.833  10.649  0.7523 -0.2688 -0.1001
 7119W        W22588  16.217   4.116   5.084 -0.0100  0.2692 -0.3378
 7120W        W22589  13.075  12.689  14.418 -0.1610 -0.0185  0.0862
 7121W        W22590  16.441  15.184  13.165 -0.2408  0.1316 -0.0999
 7122W        W22591   1.393  10.530  13.262 -0.0724  0.1807  0.0549
 7123W        W22592   4.955  14.407  12.292  0.0935 -0.0235 -0.2073
 7124W        W22593   4.509   5.496   2.084 -0.0349  0.1619  0.1633
 7125W        W22594   7.766   1.093   3.101  0.1786 -0.0253  0.0584
 7126W        W22595   6.479   1.279  14.405  0.0234  0.1157  0.2426
 7127W        W22596  11.872  12.514   4.847  0.1384 -0.2913  0.1263
 7128W        W22597  15.236  14.733  13.393  0.0407 -0.4056 -0.1946
 7129W        W22598   2.383   4.581   4.097  0.4835  0.2364 -0.0866
 7130W        W22599   5.611   2.533   2.615 -0.1610 -0.0052  0.0449
 7131W        W22600  12.590   2.758   5.489  0.0417 -0.0170  0.0602
 7132W        W22601   0.341  10.794   2.661  0.1419  0.2259 -0.2939
 7133W        W22602  11.557   2.910   5.080 -0.0816 -0.2310  0.0364
 7134W        W22603  13.186  16.345  11.795  0.1165  0.0514  0.1414
 7135W        W22604   5.906   3.684   1.158  0.1488  0.0499  0.1211
 7136W        W22605  16.883   6.757  14.233  0.1659  0.1546 -0.1188
 7137W        W22606   5.682  15.091   5.372 -0.3615 -0.0762 -0.4029
 7138W        W22607   7.659   8.315  14.799 -0.0798  0.2376 -0.1095
 7139W        W22608  15.698  12.747  13.244  0.2012  0.0478 -0.0204
 7140W        W22609  15.717  11.076   1.044 -0.1376  0.3094 -0.0213
 7141W        W22610   8.926   4.901   4.817 -0.0830  0.2764 -0.1750
 7142W        W22611   9.739  11.734   0.247  0.3533 -0.1436 -0.2372
 7143W        W22612  11.764   8.755  11.561 -0.4989  0.1272 -0.2087
 7144W        W22613   3.225  11.410   1.675 -0.0580 -0.0183 -0.1142
 7145W        W22614  10.504  16.203   5.851 -0.3082 -0.2100 -0.0699
 7146W        W22615   4.672   7.179  10.649  0.2783 -0.3823 -0.0579
 7147W        W22616   0.993   7.350  12.538 -0.0685  0.0112  0.0184
 7148W        W22617  18.478  10.809   1.104  0.0640 -0.2282  0.0508
 7149W        W22618   5.363   9.667   1.686  0.1147 -0.0325 -0.0917
 7150W        W22619  14.671  14.873  11.677 -0.0631 -0.0369 -0.0778
 7151W        W22620  14.435   0.913   3.970  0.1422 -0.1618  0.0831
 7152W        W22621   1.135   9.833   0.751 -0.1389  0.0608  0.0050
 7153W        W22622   8.611  11.578  14.413 -0.0468  0.0497  0.0700
 7154W        W22623  15.094  12.440   2.422  0.3495  0.1181  0.1416
 7155W        W22624  11.551  16.057   0.356  0.0845  0.3128  0.3203
 7156W        W22625   0.661  16.290   2.012  0.0884  0.2042  0.1978
 7157W        W22626  11.718   7.113  13.604 -0.0366  0.3244 -0.0810
 7158W        W22627   7.813  16.429  12.922 -0.4701 -0.0551 -0.2653
 7159W        W22628  10.005  10.535   1.609 -0.1857  0.0152 -0.0789
 7160W        W22629   2.454  14.771  12.754 -0.2635 -0.0107  0.1989
 7161W        W22630   6.327  13.318  14.363 -0.3309 -0.2616 -0.0354
 7162W        W22631  15.447   6.260  13.938  0.2520  0.0708  0.0619
 7163W        W22632  10.677   0.552  12.535  0.0200 -0.1378 -0.1264
 7164W        W22633   5.992   3.843   4.075 -0.3696 -0.2418 -0.0802
 7165W        W22634  15.021   9.045   3.144 -0.0968 -0.0373 -0.2803
 7166W        W22635   6.725  16.688  13.111 -0.0184  0.3028 -0.0664
 7167W        W22636   7.161   7.358   2.599 -0.0160  0.0352  0.1406
 7168W        W22637   6.323   1.327   9.967  0.2449  0.0509 -0.0841
 7169W        W22638   9.842  13.422   5.341  0.1356  0.2868 -0.2492
 7170W        W22639   8.304  17.640  12.788 -0.0815 -0.1420  0.0911
 7171W        W22640  11.540   7.333  14.072  0.1945 -0.1293 -0.1829
 7172W        W22641  16.243   0.558  12.419 -0.2015  0.1427 -0.0287
 7173W        W22642  18.222   4.331   2.285  0.2454  0.1125 -0.0907
 7174W        W22643  15.584   3.697  14.572 -0.2535 -0.0256  0.3162
 7175W        W22644  13.925   3.684  13.514 -0.0360 -0.3204  0.0821
 7176W        W22645  10.753  12.075  13.745  0.3150 -0.0269 -0.1669
 7177W        W22646   4.224  12.312  11.732  0.0538 -0.1918  0.1276
 7178W        W22647  11.090  12.597  14.986  0.3813 -0.1429  0.0906
 7179W        W22648   0.587   5.942  14.690  0.1493 -0.2445 -0.2259
 7180W        W22649   8.139  11.512  12.350 -0.1494  0.1804 -0.1386
 7181W        W22650   5.623   0.573   0.743  0.0011 -0.0913  0.4798
 7182W        W22651  15.732   6.642  11.769 -0.1341  0.0904 -0.0516
 7183W        W22652   4.227   1.854  11.901 -0.1911  0.0041 -0.2944
 7184W        W22653  12.792  12.894  14.015 -0.1625 -0.2209  0.3395
 7185W        W22654  10.791   1.555   1.245 -0.0344  0.2550 -0.1475
 7186W        W22655  15.609  11.269  12.187  0.6509  0.1050 -0.0268
 7187W        W22656   4.732  10.705  13.622 -0.0211  0.2458  0.3112
 7188W        W22657   4.050  11.712  14.995  0.1409  0.2428 -0.2065
 7189W        W22658   5.992   5.907  13.067  0.4753 -0.1250  0.2256
 7190W        W22659   2.735  16.821  14.623  0.1986  0.4162  0.1308
 7191W        W22660   0.882  14.266   5.345  0.2858  0.2695  0.0526
 7192W        W22661  11.221   7.785   0.433  0.1043 -0.1900  0.0758
 7193W        W22662   1.017   0.848  13.575  0.2011 -0.0016  0.3921
 7194W        W22663   4.730   3.628  10.403 -0.0101 -0.0711  0.0577
 7195W        W22664  17.256  14.213  11.450 -0.0468 -0.2134 -0.0218
 7196W        W22665   1.334   3.978   0.397  0.1062  0.0270  0.5764
 7197W        W22666   5.890   2.204   1.195 -0.4164  0.2449 -0.0050
 7198W        W22667   3.299   9.112   2.105 -0.0201  0.1129 -0.2281
 7199W        W22668   5.630   9.647  11.789  0.3168  0.4795  0.0836
 7200W        W22669   8.653  10.203   2.296 -0.0322 -0.3957 -0.2649
 7201W        W22670   6.788   1.676  14.603 -0.0453  0.4371  0.2197
 7202W        W22671   8.486   7.164   0.542 -0.3224 -0.1170 -0.0811
 7203W        W22672   4.342  12.230   3.016 -0.6150  0.1136  0.1037
 7204W        W22673   1.272   7.020   0.221 -0.1126  0.3481  0.0736
 7205W        W22674  10.867  11.157   4.456 -0.1919 -0.0458  0.1333
 7206W        W22675   5.215   3.494   4.254  0.0316 -0.3674  0.0208
 7207W        W22676   1.137  10.347  11.200 -0.1428 -0.2074  0.0999
 7208W        W22677  15.374   5.070  15.646 -0.0667  0.1112  0.0776
 7209W        W22678  13.522   2.545   0.227 -0.0134  0.1363 -0.2069
 7210W        W22679   0.336  15.319   0.772  0.1812  0.0088  0.1846
 7211W        W22680   5.639   4.104  13.129 -0.0581 -0.1956 -0.1898
 7212W        W22681  11.636  12.461   0.489 -0.3658 -0.0166 -0.0071
 7213W        W22682   4.816  16.389   3.225 -0.1396  0.2547 -0.0567
 7214W        W22683  16.349  12.801  15.062  0.0050 -0.0363  0.3692
 7215W        W22684   5.750  12.875  14.493  0.3784 -0.2393  0.0701
 7216W        W22685  15.436   9.995  15.119 -0.3062  0.3751  0.1746
 7217W        W22686   2.375  13.179   1.306  0.0764  0.1432 -0.3558
 7218W        W22687  14.371  10.315   1.475  0.1089  0.0150  0.3160
 7219W        W22688   7.798   3.173   4.080 -0.2270 -0.0430 -0.2218
 7220W        W22689   8.085   4.918   5.257  0.0825  0.0989  0.2358
 7221W        W22690   8.419   5.584   0.206 -0.1157 -0.4271 -0.0820
 7222W        W22691   3.763  13.778  12.652 -0.1054  0.1641 -0.3385
 7223W        W22692  15.456   0.677  13.405 -0.0742 -0.0519  0.2064
 7224W        W22693  12.586  10.475  11.426 -0.1258 -0.3024  0.5134
 7225W        W22694  14.872   0.829  12.430 -0.2326 -0.0435 -0.0774
 7226W        W22695   7.624   8.258  14.330  0.0886  0.1664 -0.1107
 7227W        W22696   4.804   3.034  14.305  0.1035  0.0955 -0.0715
 7228W        W22697   8.717  10.642  13.930  0.0765 -0.1758 -0.1841
 7229W        W22698   0.325  15.914  13.892  0.3878  0.1242 -0.1111
 7230W        W22699  17.621  13.188   2.056 -0.2167  0.2429  0.0992
 7231W        W22700   5.118   7.971  11.337 -0.1074 -0.1539 -0.1239
 7232W        W22701   0.579  18.702  15.445  0.3002 -0.1062 -0.2212
 7233W        W22702   0.268   8.393   3.894  0.0356  0.1541  0.0394
 7234W        W22703  18.177   0.271   4.221  0.1431 -0.1465 -0.2841
 7235W        W22704  16.302   9.023   4.585  0.3404 -0.1465  0.3965
 7236W        W22705   5.682  11.995   2.589 -0.2703  0.0196  0.3466
 7237W        W22706  15.720  12.862  14.381  0.2709  0.1480  0.0447
 7238W        W22707   6.173  15.966  15.645 -0.1873  0.2082  0.1121
 7239W        W22708  16.510   8.855   5.824 -0.0401 -0.2438  0.1473
 7240W        W22709  11.815   7.850  11.296  0.0576 -0.0558  0.0115
 7241W        W22710  13.269  14.475  11.525 -0.1174  0.2172  0.1236
 7242W        W22711   4.029   0.732   3.214 -0.1813 -0.0283  0.2054
 7243W        W22712  10.096   8.945   5.885  0.2144 -0.2481  0.1025
 7244W        W22713  14.292   5.529  14.486  0.0009 -0.0180  0.2122
 7245W        W22714  12.027   3.639  14.050  0.2156  0.0663 -0.0395
 7246W        W22715   6.575   7.318   3.968  0.0001  0.2237 -0.1506
 7247W        W22716  16.288   2.073  15.402 -0.1762 -0.1149  0.0782
 7248W        W22717   8.294   1.924  12.605 -0.1161  0.0565  0.0387
 7249W        W22718   3.123   3.523  15.094  0.0446 -0.3629  0.0693
 7250W        W22719   1.612  16.361  13.217 -0.1019 -0.2614  0.0709
 7251W        W22720  16.364   6.081   3.770 -0.0560 -0.0498  0.0361
 7252W        W22721   9.651   4.527  12.770  0.0031 -0.2812  0.1083
 7253W        W22722   8.326  15.209   0.116  0.1384 -0.2043 -0.2620
 7254W        W22723  12.535   8.962  12.499  0.1713 -0.1285 -0.0827
 7255W        W22724   2.132  11.776   1.068  0.0674  0.1697  0.0005
 7256W        W22725  18.672  14.067  15.182 -0.1821 -0.2454 -0.0544
 7257W        W22726  16.598   3.990  14.950  0.0210 -0.4519 -0.0550
 7258W        W22727  15.746   1.517   4.065 -0.0627  0.1897  0.2135
 7259W        W22728  17.905  16.682   5.150 -0.0014  0.0293  0.1346
 7260W        W22729   3.784   5.878   2.817 -0.2441 -0.0445 -0.0481
 7261W        W22730   8.420   6.118   0.613 -0.2029 -0.0454 -0.0566
 7262W        W22731   3.105  12.227  15.015  0.0562 -0.3093 -0.1418
 7263W        W22732  12.256  18.010   1.685  0.0453  0.4420  0.2426
 7264W        W22733   2.249   2.883  14.172  0.1425  0.1794  0.2938
 7265W        W22734  13.049   6.117  11.427  0.2408  0.0486 -0.2124
 7266W        W22735   5.520  16.625  11.376 -0.2922  0.1280 -0.2922
 7267W        W22736   3.838  11.982  12.192  0.2303 -0.0271  0.0419
 7268W        W22737  15.297   7.045  12.900  0.1090  0.3433 -0.1927
 7269W        W22738   9.953  11.004   0.962  0.2445 -0.1369  0.0280
 7270W        W22739   8.793  12.564   4.489  0.0281  0.0794  0.1389
 7271W        W22740  11.723  18.595  15.199 -0.2045  0.0140  0.2940
 7272W        W22741   2.550   3.355   2.268  0.0467 -0.1424  0.1398
 7273W        W22742  10.264  18.126   0.581  0.1272 -0.1354 -0.0727
 7274W        W22743   3.442  10.715   1.642  0.1590 -0.0791 -0.2089
 7275W        W22744   4.236   4.540   3.243  0.0975  0.0432 -0.2879
 7276W        W22745  11.113   8.021  12.634  0.2299  0.1416 -0.1409
 7277W        W22746  14.887  12.788   4.924 -0.0468 -0.1122  0.0109
 7278W        W22747  16.856   4.720   2.336  0.4697 -0.2186 -0.0589
 7279W        W22748   1.492   6.086   0.726  0.0143  0.2771 -0.1875
 7280W        W22749   9.925   5.306  12.101  0.2302 -0.0408 -0.3142
 7281W        W22750  16.195   7.555   1.842 -0.0472 -0.2071  0.1758
 7282W        W22751  11.054  16.537  12.189  0.2185 -0.2406  0.3765
 7283W        W22752   4.115  18.461  15.082 -0.2023  0.1577 -0.6561
 7284W        W22753   0.147   1.844   9.559 -0.0396 -0.4771 -0.0232
 7285W        W22754  15.618   0.801   5.244  0.0167  0.1123 -0.2370
 7286W        W22755  18.645   6.456  11.467 -0.4757 -0.1006 -0.2038
 7287W        W22756  15.051  17.547  13.687 -0.0165 -0.1066 -0.1465
 7288W        W22757   3.558  11.585   4.584 -0.0439 -0.0265  0.0523
 7289W        W22758  13.833   1.946  13.667 -0.0446 -0.2239 -0.1620
 7290W        W22759  10.465   4.220   2.574 -0.0429 -0.0085  0.0065
 7291W        W22760   4.862   3.768   4.508  0.2067  0.1994 -0.1924
 7292W        W22761  11.138  16.144  15.552  0.0707  0.3158  0.0760
 7293W        W22762   6.340  18.411   1.394  0.1589  0.0544  0.1011
 7294W        W22763  14.198   4.799   2.987 -0.0407 -0.2689  0.1118
 7295W        W22764  11.107  17.864   5.657  0.3120 -0.1219 -0.1591
 7296W        W22765  14.221   4.407   2.653  0.0299  0.2211 -0.1329
 7297W        W22766  18.341   1.509   3.257  0.1146  0.1642  0.1887
 7298W        W22767  12.291   2.847   4.614 -0.1042  0.0594 -0.0889
 7299W        W22768  13.970   5.575  10.966 -0.0120  0.0211 -0.0599
 7300W        W22769  15.127  10.559  10.939 -0.2082  0.1755  0.2326
 7301W        W22770   4.279   6.132   0.550 -0.1098  0.4635  0.2130
 7302W        W22771   9.942   2.205   2.842  0.1286  0.1791  0.1766
 7303W        W22772   1.430  14.538   0.781  0.0467  0.2609 -0.5318
 7304W        W22773  10.395  14.420  14.255 -0.0461 -0.1634  0.1387
 7305W        W22774   0.738   8.948  15.431 -0.1549  0.0806 -0.1234
 7306W        W22775  15.924  13.859   5.182 -0.1349  0.0491  0.1615
 7307W        W22776  17.352   9.138   0.983 -0.2006  0.1977  0.2618
 7308W        W22777   0.740   1.951   2.051 -0.1964 -0.1717  0.1017
 7309W        W22778  17.558  17.800  11.685  0.1897 -0.0792 -0.2382
 7310W        W22779  10.843  16.095  11.852 -0.0082 -0.5029  0.5494
 7311W        W22780   5.581   9.645   2.879  0.0346 -0.1115  0.0907
 7312W        W22781   7.268  11.825  12.021  0.1295 -0.1700 -0.1256
 7313W        W22782   1.220   5.622  14.737  0.2306 -0.1651  0.4046
 7314W        W22783   9.816   1.002  13.397  0.0438  0.0189 -0.3044
 7315W        W22784   7.873  14.672   0.553 -0.1633  0.0990 -0.0463
 7316W        W22785   3.943  18.451  11.435 -0.0115 -0.0001 -0.1371
 7317W        W22786  14.002   4.579   3.935 -0.3357  0.1528  0.0484
 7318W        W22787  13.540  12.530   0.581 -0.3770 -0.1031  0.2643
 7319W        W22788   0.935   8.599  14.441 -0.2234  0.3180  0.0522
 7320W        W22789  10.044  18.121   2.473  0.1654 -0.3597  0.1760
 7321W        W22790  13.134   4.654   1.255  0.1436 -0.1798  0.1924
 7322W        W22791  15.601   7.218   4.527 -0.1043  0.0509  0.0355
 7323W        W22792   5.101   6.923  10.481 -0.3546 -0.0711 -0.0846
 7324W        W22793  13.655   9.302  14.592  0.0096  0.2163  0.2327
 7325W        W22794   0.150  10.055   2.133  0.1989 -0.2567  0.3111
 7326W        W22795   5.670  13.205   3.080  0.3577  0.1377  0.1279
 7327W        W22796   4.259   4.885  12.844  0.0013 -0.0829 -0.0374
 7328W        W22797   6.898  16.258   2.038 -0.0719 -0.1370 -0.1175
 7329W        W22798  18.314  16.155  12.472  0.0859  0.2213  0.0340
 7330W        W22799  11.835   6.071   4.819 -0.0516 -0.1860 -0.0059
 7331W        W22800  11.644  18.215   0.904 -0.2048 -0.5831  0.0628
 7332W        W22801  11.101  14.890   4.173 -0.0687 -0.1217  0.3111
 7333W        W22802   1.915  11.199  11.230  0.2882 -0.0741 -0.1271
 7334W        W22803  10.250   4.060  12.561  0.3062 -0.3598  0.0091
 7335W        W22804   8.589  10.847   3.655  0.1374 -0.0758  0.1322
 7336W        W22805  16.670  10.263   2.495 -0.0518  0.0093  0.1103
 7337W        W22806  14.658  11.045  13.622  0.2087  0.1965  0.0914
 7338W        W22807   3.789   1.248  13.491  0.2171  0.3371 -0.0341
 7339W        W22808   3.250  11.108  14.208  0.0864 -0.0821  0.1851
 7340W        W22809   3.437  15.112   5.206  0.0354 -0.0405 -0.0945
 7341W        W22810   9.538   8.592  11.791  0.1310  0.0129 -0.2879
 7342W        W22811  13.589  16.273  12.079 -0.0344 -0.0038  0.0685
 7343W        W22812  13.717   6.168   4.604  0.0458 -0.0373 -0.0034
 7344W        W22813   7.373   0.379   1.955  0.1780 -0.0168 -0.3515
 7345W        W22814   2.714  18.695  14.413  0.1491  0.0450 -0.0302
 7346W        W22815   0.478  12.912   0.782 -0.4266  0.1686 -0.0959
 7347W        W22816   4.187   5.334  11.778 -0.0645  0.0111 -0.1149
 7348W        W22817  11.397   4.040  11.744  0.1716  0.0092  0.0705
 7349W        W22818  18.362   1.358   4.667  0.1680  0.1101 -0.0981
 7350W        W22819  17.025   0.974   3.285  0.0581  0.2159  0.2128
 7351W        W22820   7.075  11.076  12.275 -0.4373 -0.1257 -0.1217
 7352W        W22821   5.021  18.350   5.645  0.1290 -0.1289 -0.0515
 7353W        W22822  13.478  17.994  14.642 -0.0544 -0.0658 -0.0362
 7354W        W22823  12.636   9.405  14.468  0.4099 -0.0344  0.1890
 7355W        W22824  17.817  18.552  13.217 -0.0082 -0.0755  0.1872
 7356W        W22825  18.327   2.562  15.581 -0.0730 -0.2039  0.0346
 7357W        W22826  13.996   2.540   1.528  0.1162 -0.1488 -0.0673
 7358W        W22827   9.334  16.834   0.785 -0.2924 -0.0338 -0.3995
 7359W        W22828  17.493   9.282   4.785 -0.3722  0.2485 -0.3562
 7360W        W22829   8.770  18.585  11.192 -0.3501 -0.0317  0.2151
 7361W        W22830   5.517  12.175  14.124 -0.0576 -0.0892 -0.2562
 7362W        W22831  15.131  11.391  12.216 -0.2082  0.0423  0.2953
 7363W        W22832  13.088  11.803   1.128  0.0051 -0.0468  0.1725
 7364W        W22833   9.264   7.752   2.477 -0.0508 -0.1068  0.0279
 7365W        W22834   9.350   7.609  13.989 -0.2566 -0.2162 -0.0423
 7366W        W22835  14.942   5.380   3.722  0.1132  0.0690 -0.0704
 7367W        W22836  10.597  17.259   1.409  0.0291  0.1312 -0.1748
 7368W        W22837  14.508   3.459  15.224  0.0121 -0.0488 -0.5508
 7369W        W22838  16.309  18.026  13.656  0.2040 -0.1296 -0.2132
 7370W        W22839   7.834  13.586   1.390  0.0533  0.2139 -0.4522
 7371W        W22840   8.154   2.171  15.557 -0.1286  0.2119 -0.1494
 7372W        W22841   5.143  14.720  11.212 -0.0950 -0.0332 -0.0191
 7373W        W22842  16.326  10.542  13.525  0.1424  0.1881  0.1546
 7374W        W22843   6.033  14.755   1.853 -0.1330  0.1582 -0.1839
 7375W        W22844   6.965   1.372   2.168  0.1476 -0.4212 -0.0704
 7376W        W22845   4.953   0.223  10.435  0.0875 -0.1060 -0.0233
 7377W        W22846  13.778   5.311   0.888  0.0424  0.2732 -0.1865
 7378W        W22847  15.431   1.831   2.807  0.0287 -0.1996 -0.2064
 7379W        W22848   8.068   6.812   4.805  0.2287 -0.0107 -0.1222
 7380W        W22849  14.755   4.476   5.179  0.1231  0.1998  0.0373
 7381W        W22850   7.424   3.919   2.271 -0.3829  0.1653 -0.1772
 7382W        W22851  16.932  11.938   5.501  0.0476  0.1349 -0.0349
 7383W        W22852  16.915   4.739   4.312 -0.3148 -0.2709  0.1788
 7384W        W22853  10.101   3.920   1.301  0.0509  0.0300  0.0034
 7385W        W22854   0.026  12.495   1.377  0.1163  0.0374  0.1363
 7386W        W22855   0.120   5.975  14.060  0.1406 -0.0351 -0.0409
 7387W        W22856  14.468  16.359  14.383  0.1187  0.0015 -0.0171
 7388W        W22857   8.588  11.059   0.441  0.1677 -0.0380  0.0121
 7389W        W22858  10.591   2.940  11.821 -0.2154 -0.1543  0.1529
 7390W        W22859  12.597  11.560  11.901 -0.1615 -0.2953 -0.2757
 7391W        W22860  10.377  17.748  12.950 -0.0959 -0.1759  0.1425
 7392W        W22861   8.589   0.734   0.518  0.3556 -0.3214 -0.0748
 7393W        W22862   1.586   7.308   2.944  0.0467  0.0779 -0.0821
 7394W        W22863   1.995   2.592   1.039  0.0159  0.2693 -0.0552
 7395W        W22864  16.673  11.723  12.785  0.1038 -0.2452  0.0797
 7396W        W22865  14.898   6.687   5.003 -0.0793  0.0565 -0.4417
 7397W        W22866  15.645  10.117  11.364 -0.1470  0.4001 -0.0339
 7398W        W22867   7.939   2.199   4.620 -0.1005 -0.1727  0.0301
 7399W        W22868  10.703   3.018  13.330 -0.0813  0.5122  0.0437
 7400W        W22869  13.289   7.646  15.291  0.2855  0.0161  0.3260
 7401W        W22870   6.927   9.830  10.366  0.0821 -0.0563 -0.1296
 7402W        W22871   2.296   4.658   1.959 -0.0755 -0.0789  0.2135
 7403W        W22872  10.728   5.055   0.975 -0.1257  0.2534 -0.1180
 7404W        W22873  14.507   0.533   2.014 -0.2033  0.0131 -0.0570
 7405W        W22874   7.881   8.614   4.071  0.0807  0.2252 -0.0300
 7406W        W22875  11.162   8.523   1.143  0.0410  0.0122 -0.1001
 7407W        W22876   8.803   5.838   2.826 -0.2446  0.0277  0.1340
 7408W        W22877  12.508  12.766   0.423 -0.1449  0.0357  0.0047
 7409W        W22878   2.681   8.236   0.954 -0.3413 -0.0271  0.3959
 7410W        W22879   5.606   9.333  11.181 -0.0703  0.0758  0.0386
 7411W        W22880  15.766  14.697  13.651  0.3700  0.0921  0.0406
 7412W        W22881   5.297  18.015  11.980 -0.2242  0.1812  0.2082
 7413W        W22882   7.357  12.612   2.996 -0.1583 -0.1470  0.0237
 7414W        W22883  11.986   3.349   5.337 -0.1667  0.4187  0.1860
 7415W        W22884  10.055  11.053   2.622  0.0834 -0.3454  0.1504
 7416W        W22885   2.727   5.349   4.507 -0.2809  0.1891 -0.1394
 7417W        W22886  14.727   0.884  13.752  0.3091 -0.0963  0.1581
 7418W        W22887   6.366   3.868   1.162  0.0867  0.1104 -0.0481
 7419W        W22888  16.862   3.264   2.479  0.0083 -0.0566  0.2096
 7420W        W22889  13.114  13.623  14.622 -0.0040 -0.0263  0.0633
 7421W        W22890   9.325   4.618   5.018 -0.1844  0.0723 -0.1999
 7422W        W22891   7.071  16.052   2.476 -0.0277  0.0436  0.2751
 7423W        W22892   7.960  11.043  10.985 -0.0888 -0.2328 -0.0972
 7424W        W22893  17.485   3.020  14.201  0.1616 -0.0556 -0.2086
 7425W        W22894  11.656   0.828   2.892  0.1498 -0.2425  0.0844
 7426W        W22895   5.716   2.087  14.978 -0.0054  0.3592 -0.3034
 7427W        W22896  12.061   4.557   4.629 -0.1622 -0.2505 -0.1874
 7428W        W22897  11.599  16.311  15.376  0.0601 -0.0487  0.2147
 7429W        W22898  12.162  17.264  12.323 -0.1731 -0.0477  0.4209
 7430W        W22899  16.162   7.162   4.669  0.2250  0.1496 -0.0792
 7431W        W22900   5.185   0.921   5.202  0.0679 -0.2504  0.3790
 7432W        W22901   3.829   0.705   1.584 -0.2501  0.1843  0.2536
 7433W        W22902  15.883   4.771  15.012  0.1925 -0.0859  0.0980
 7434W        W22903   1.370   1.944  15.080 -0.0122 -0.0585 -0.2545
 7435W        W22904  13.292   1.262   1.632  0.2061 -0.2095  0.0735
 7436W        W22905   9.455   6.567  12.644  0.3094 -0.4953  0.0454
 7437W        W22906  12.516   3.042   5.881  0.2248 -0.0004 -0.1177
 7438W        W22907  10.409   3.573   3.384 -0.0765  0.1152  0.1091
 7439W        W22908  17.456   3.760   1.295  0.0780  0.1680  0.1263
 7440W        W22909   8.105  12.364   0.103 -0.0881 -0.0128 -0.1104
 7441W        W22910   1.867  15.745   4.739  0.0124 -0.2300  0.0895
 7442W        W22911  11.944  10.738   2.975  0.0330  0.0533  0.3016
 7443W        W22912   6.068  14.413  10.156  0.0977 -0.2266  0.0880
 7444W        W22913  15.930  15.080  15.436  0.1144  0.1236 -0.1897
 7445W        W22914   5.131  13.047  15.255 -0.3944  0.3200  0.2923
 7446W        W22915   4.358  14.258   3.955 -0.0267 -0.0043  0.3109
 7447W        W22916  11.703   7.119  11.997 -0.3408 -0.0818 -0.2073
 7448W        W22917  17.625  15.388   5.492  0.0449 -0.1353 -0.0937
 7449W        W22918  15.952  18.106   0.473 -0.2234  0.1554 -0.1659
 7450W        W22919   3.798   9.816  14.178 -0.1557  0.0701 -0.2759
 7451W        W22920   1.988  15.793   3.158  0.2195 -0.0469 -0.2390
 7452W        W22921  18.763   3.551   1.556  0.1505  0.2958 -0.2073
 7453W        W22922   6.525   8.826  13.513  0.1385 -0.1300  0.0667
 7454W        W22923  15.121   0.601   1.143  0.2219  0.1308  0.0384
 7455W        W22924  10.299   9.437   3.113  0.0401 -0.3379  0.0540
 7456W        W22925  12.873   5.326   0.679  0.3389 -0.1173 -0.2484
 7457W        W22926   1.972   9.137   2.242 -0.0805 -0.4130 -0.3402
 7458W        W22927   9.411   4.097   2.982 -0.2425 -0.2182 -0.1475
 7459W        W22928   2.123  18.363   5.013 -0.1325  0.3285  0.0323
 7460W        W22929  10.525  10.748  12.353  0.0340  0.0904  0.0922
 7461W        W22930  17.086  11.619  13.761 -0.0575  0.0351 -0.0778
 7462W        W22931   3.036  15.851  14.529  0.1029  0.0318 -0.1531
 7463W        W22932  11.526  15.822  15.412 -0.4667  0.1170 -0.1796
 7464W        W22933  11.703   8.792   5.181 -0.1035  0.3177 -0.0052
 7465W        W22934   8.634  10.796  15.283  0.3964 -0.3658  0.2143
 7466W        W22935  18.148   3.985   5.046 -0.1873 -0.1630 -0.0236
 7467W        W22936   2.333  12.325  15.443 -0.1867 -0.3294  0.1506
 7468W        W22937  17.407  10.305  11.630  0.2149 -0.2668  0.1769
 7469W        W22938   1.797   7.724   2.726  0.1506 -0.1831  0.1396
 7470W        W22939   8.583   8.309  14.365  0.2746 -0.0925  0.1325
 7471W        W22940  10.849  12.504   2.096 -0.1399 -0.2100 -0.1252
 7472W        W22941   5.985   4.869  13.125 -0.1210  0.5462 -0.0308
 7473W        W22942   4.811  16.823  14.790  0.0369 -0.0592  0.0104
 7474W        W22943  16.712  10.980   4.315 -0.0755  0.0256 -0.1347
 7475W        W22944   8.773   0.793   9.533 -0.5029 -0.0183 -0.1164
 7476W        W22945   0.453  15.374   1.276  0.2144  0.0682  0.1126
 7477W        W22946   0.811  13.053  13.414 -0.2614 -0.0181  0.0500
 7478W        W22947  18.604  14.095  13.114 -0.2216  0.0436 -0.2948
 7479W        W22948  13.586  11.100  13.760 -0.0128 -0.2526 -0.2968
 7480W        W22949  15.953   5.833  12.543  0.2782  0.1796 -0.0164
 7481W        W22950  10.990   4.791   3.240  0.0340 -0.2424 -0.2812
 7482W        W22951  10.381   0.515   4.798  0.0838 -0.2891 -0.2559
 7483W        W22952   2.237  10.278  12.950  0.0391  0.1006  0.2126
 7484W        W22953  13.847   6.242  13.574  0.1678  0.0574 -0.0177
 7485W        W22954  13.180  15.499   4.190  0.0429 -0.5059 -0.3319
 7486W        W22955  12.764   0.654  12.403 -0.1309  0.1555  0.0052
 7487W        W22956  15.672  10.231   4.173  0.0057  0.1466  0.1464
 7488W        W22957   2.852  17.480  14.735  0.0873  0.0419 -0.1094
 7489W        W22958   4.816   7.164  12.231  0.2186  0.0797  0.2509
 7490W        W22959   6.982  17.942  13.847  0.1974 -0.1046  0.3591
 7491W        W22960   1.896  10.421   3.730 -0.0962 -0.2566  0.0213
 7492W        W22961  11.130   8.810   2.138  0.1808 -0.1939  0.0740
 7493W        W22962  16.285   7.078  12.115 -0.0095 -0.1683  0.1040
 7494W        W22963  16.843   6.889  11.237  0.0848  0.0308  0.2296
 7495W        W22964  13.372  10.089   0.807 -0.0504  0.1177  0.1404
 7496W        W22965   9.649  16.818  15.154  0.2900  0.1640 -0.4193
 7497W        W22966   3.874  10.825  10.931  0.2858  0.1154  0.2112
 7498W        W22967   5.239   6.538   4.840  0.2577  0.0138 -0.0552
 7499W        W22968   2.414  16.948   6.105 -0.0090  0.1604  0.1358
 7500W        W22969  10.030   2.580  11.047 -0.0783  0.2278  0.2564
 7501W        W22970  16.192  11.911  12.762 -0.0997  0.0648 -0.1019
 7502W        W22971   9.180   0.868  12.774  0.0364  0.0261 -0.1570
 7503W        W22972  17.807   3.630   5.223 -0.2592  0.0754 -0.3118
 7504W        W22973   5.739   3.853   0.460  0.1401  0.0369  0.0295
 7505W        W22974   7.455   7.278  12.848 -0.3685 -0.1233 -0.2230
 7506W        W22975   6.256  17.845  15.344  0.0892  0.1028 -0.2283
 7507W        W22976  10.977  14.660   4.921 -0.0094 -0.1825 -0.0046
 7508W        W22977   5.072   4.956   4.350 -0.1067 -0.0633 -0.2284
 7509W        W22978   9.675  17.597  14.898 -0.1668 -0.2027  0.1187
 7510W        W22979   8.669  14.513   3.732 -0.0194 -0.1244 -0.0507
 7511W        W22980   5.064  14.597  13.873 -0.0998 -0.2990 -0.0068
 7512W        W22981   5.732   4.161  13.913  0.0561  0.1030  0.0830
 7513W        W22982  14.764  15.849  14.464  0.1179  0.1658  0.3159
 7514W        W22983  15.927  11.957   2.811 -0.3192 -0.2318  0.0387
 7515W        W22984  16.249   8.014   4.116  0.0653 -0.0184  0.2708
 7516W        W22985   9.265   1.202   1.131 -0.0892  0.0289 -0.1164
 7517W        W22986   2.139  14.311  13.763 -0.1998 -0.1901 -0.0049
 7518W        W22987   4.137   6.811   0.178  0.1218  0.2603  0.2481
 7519W        W22988  15.673  14.886   0.260  0.2030 -0.1014  0.3135
 7520W        W22989  14.173   2.101   1.963 -0.2574 -0.0748 -0.1123
 7521W        W22990   9.894  15.374  10.670 -0.0902  0.1412  0.1949
 7522W        W22991  12.526  11.617   5.842 -0.1199 -0.1231 -0.3534
 7523W        W22992  14.585   0.637   4.411 -0.1738  0.1836  0.1226
 7524W        W22993  17.604  18.330   2.344  0.0232  0.0734 -0.1357
 7525W        W22994  13.100   0.335  14.335 -0.1370  0.5427 -0.1209
 7526W        W22995  13.180   8.149  15.331 -0.0221  0.0948 -0.2007
 7527W        W22996  11.575   9.385   0.350  0.0366  0.1426  0.3050
 7528W        W22997  10.489   4.783   2.533  0.0505 -0.2389  0.0526
 7529W        W22998  14.348  14.671  10.928 -0.0931 -0.0452 -0.0906
 7530W        W22999  14.614   8.297   1.169 -0.1277 -0.0949  0.0180
 7531W        W23000  10.182   5.034  11.661 -0.0348  0.1301  0.3649
 7532W        W23001   4.517   5.448  13.532  0.1554 -0.0812  0.2318
 7533W        W23002  12.866   2.911  13.476 -0.2718 -0.0065  0.0349
 7534W        W23003   9.492   7.409   0.890  0.2491  0.1675  0.3109
 7535W        W23004   9.014   5.287  13.826 -0.1018 -0.4163  0.1636
 7536W        W23005   6.469   6.916  15.576 -0.3762 -0.6002  0.1446
 7537W        W23006   8.091  10.524   4.150  0.2219  0.1983 -0.0451
 7538W        W23007   2.531   1.610   1.058 -0.2984  0.2403  0.3394
 7539W        W23008  14.172  10.298   5.282  0.1278 -0.2856 -0.3067
 7540W        W23009   4.580  13.559  11.804  0.1090 -0.0345 -0.0488
 7541W        W23010   1.722   9.865   1.935  0.2338 -0.4439 -0.0345
 7542W        W23011  11.232  15.009  12.626  0.2355  0.1434  0.1544
 7543W        W23012   0.595  14.975   1.642 -0.3055  0.2270  0.0101
 7544W        W23013  13.675   9.483  12.983  0.0959  0.2619  0.0578
 7545W        W23014  16.790  15.973   0.712  0.1594 -0.0172  0.2109
 7546W        W23015  17.255  10.894   1.238 -0.0694  0.2271 -0.1425
 7547W        W23016  13.533  14.124  11.831  0.1120 -0.2176 -0.0860
 7548W        W23017  15.509  18.736   2.040  0.1560 -0.1434  0.2881
 7549W        W23018  16.748  17.757   2.488  0.0602  0.1632 -0.0867
 7550W        W23019   6.296  12.301   2.366  0.1766 -0.2760 -0.0895
 7551W        W23020  10.733   5.728  11.511 -0.0074  0.0091  0.0459
 7552W        W23021  10.635   3.998  13.707 -0.1290  0.0032  0.1425
 7553W        W23022   9.596  15.917  13.685  0.0538  0.1949  0.0708
 7554W        W23023   8.052  14.907   4.019  0.5086  0.2937  0.0928
 7555W        W23024  14.432  18.215  13.525  0.2404  0.1966  0.0496
 7556W        W23025  18.060  15.572   3.160  0.0595 -0.1928  0.0928
 7557W        W23026   4.986   4.124  14.939  0.1808  0.1143  0.0343
 7558W        W23027  16.045  13.298   0.071  0.1782 -0.0420 -0.1872
 7559W        W23028  14.625   6.148  12.937 -0.0558 -0.1013 -0.0812
 7560W        W23029  14.599   8.543  11.496  0.0085 -0.0861 -0.0522
 7561W        W23030  18.368  10.110   5.252 -0.2164  0.1294  0.1835
 7562W        W23031  11.455   1.090   1.999  0.2068  0.0287  0.3120
 7563W        W23032  17.956   8.160   3.754 -0.0698  0.0354  0.1057
 7564W        W23033  13.582   3.666  10.990  0.0882  0.1563  0.0701
 7565W        W23034   5.055  17.412   4.867 -0.1370 -0.1254 -0.3228
 7566W        W23035  17.498   0.782  11.502 -0.1903 -0.2593 -0.0573
 7567W        W23036   5.344  13.464   0.411 -0.0871  0.0517  0.3797
 7568W        W23037   1.228   4.108  11.624  0.3196 -0.0543  0.0436
 7569W        W23038   5.928   7.278  13.442 -0.4318 -0.3010  0.1907
 7570W        W23039  18.355  16.499   5.330 -0.0287  0.0761  0.1425
 7571W        W23040   0.307   6.985   2.866 -0.1779 -0.0979 -0.1006
 7572W        W23041  18.285   8.439   3.357  0.1192  0.0258  0.2616
 7573W        W23042  17.784   9.432  12.944 -0.1435  0.1489  0.3588
 7574W        W23043   1.600   7.844   4.467  0.3300  0.1054  0.2047
 7575W        W23044   2.370  10.244   0.894 -0.2433 -0.0258  0.0423
 7576W        W23045  15.798   5.382   5.693  0.1621  0.0772 -0.0507
 7577W        W23046   7.175   1.449  12.025 -0.3421  0.2041  0.3116
 7578W        W23047  11.453  15.522   4.926  0.0204  0.0148 -0.0332
 7579W        W23048   7.198   4.867  15.402 -0.0799  0.2191 -0.1834
 7580W        W23049   7.264  13.946   0.813  0.0006 -0.1766  0.0311
 7581W        W23050   2.415   3.430  11.233 -0.1624  0.0018 -0.2012
 7582W        W23051   0.160  15.802   0.654 -0.2109  0.4015 -0.1426
 7583W        W23052   8.824   5.038   2.195  0.0324 -0.1062 -0.0923
 7584W        W23053   3.683   6.673   2.917  0.2059 -0.1138 -0.0931
 7585W        W23054   5.829  10.875  14.468 -0.2271 -0.0315 -0.0711
 7586W        W23055  13.094   5.300   3.780  0.0238 -0.1192 -0.1089
 7587W        W23056  11.716   2.333   4.616 -0.0672 -0.2522 -0.0577
 7588W        W23057   0.900   1.294  11.417 -0.2133  0.0059  0.1588
 7589W        W23058  11.338  11.771  10.912 -0.1812 -0.2415  0.1503
 7590W        W23059  14.122  11.212  12.983  0.3972  0.0398 -0.1629
 7591W        W23060   8.608  10.735  10.468 -0.2752 -0.0234  0.0050
 7592W        W23061   7.027   4.931  13.652  0.0583  0.1263  0.1771
 7593W        W23062  18.440  13.056  12.925  0.2590 -0.0483 -0.0760
 7594W        W23063   0.535   1.353   3.388  0.0617 -0.1032 -0.0617
 7595W        W23064  11.780  12.310   2.301  0.1543  0.3034 -0.0861
 7596W        W23065  17.834  12.058   5.107  0.1359  0.0561 -0.0115
 7597W        W23066   9.064   4.375  12.199  0.2543 -0.1285  0.1665
 7598W        W23067  16.087   2.467   3.322  0.0142  0.3491 -0.1163
 7599W        W23068   0.840  17.921   1.315  0.4358 -0.0172 -0.1682
 7600W        W23069   0.034  11.092  12.682  0.1182  0.1719  0.0483
 7601W        W23070   9.685  16.000  11.007 -0.1541  0.0355 -0.2307
 7602W        W23071   9.312  12.853   2.275  0.2496 -0.1481 -0.1231
 7603W        W23072   3.441   2.276  10.835  0.1143  0.0280 -0.0628
 7604W        W23073   8.278   7.717   4.397 -0.0218  0.2237 -0.2351
 7605W        W23074  11.099  11.650   3.161  0.0503 -0.0159 -0.1872
 7606W        W23075  11.371  13.339   2.100 -0.0319  0.0445  0.1208
 7607W        W23076  10.273  10.703  15.066 -0.2775  0.0983  0.1606
 7608W        W23077   5.280   5.803  11.925 -0.1398  0.1715 -0.0281
 7609W        W23078   1.414   6.644  13.704 -0.2141  0.2310 -0.2096
 7610W        W23079   4.835   0.064   4.291  0.0805 -0.0155 -0.1487
 7611W        W23080   4.519   5.499   4.733  0.1571  0.1135 -0.0619
 7612W        W23081   7.354  14.141  14.509  0.0735  0.0849 -0.1427
 7613W        W23082   1.431   0.141   6.157  0.0056 -0.2312 -0.0279
 7614W        W23083   1.708   9.332   5.558  0.0574  0.2344  0.0032
 7615W        W23084  12.014   6.898  12.865 -0.1777  0.0722 -0.1033
 7616W        W23085  10.026   5.092  13.441  0.0358 -0.1845 -0.1398
 7617W        W23086  10.689  16.262   3.892  0.0580  0.0916 -0.0505
 7618W        W23087   7.766   6.175  10.367  0.0145  0.3506  0.0445
 7619W        W23088  18.699   7.816  11.008 -0.0500  0.0999  0.1504
 7620W        W23089   7.464  11.866  12.573 -0.0745 -0.2497  0.0466
 7621W        W23090  14.028   8.023  10.542  0.1821 -0.0573 -0.1481
 7622W        W23091   9.919   7.755   1.298  0.1242  0.0305  0.0958
 7623W        W23092   8.883   5.330   2.610  0.2476 -0.0962  0.0383
 7624W        W23093  12.602  15.517   2.986  0.3156 -0.0558  0.1566
 7625W        W23094  14.072  13.456   4.326  0.0314  0.1972  0.0680
 7626W        W23095  14.395   9.721   1.674 -0.2701  0.0885 -0.2718
 7627W        W23096  15.985   0.121   2.845  0.1853 -0.4829 -0.2712
 7628W        W23097   3.506  17.607   0.734  0.0354 -0.1478 -0.2827
 7629W        W23098  10.514   8.787   5.467 -0.2698  0.1969  0.2066
 7630W        W23099  12.484   1.208  15.482 -0.1640 -0.2903  0.3316
 7631W        W23100  16.898  16.752  13.889  0.0014  0.2798  0.3845
 7632W        W23101  12.423  17.047   2.003  0.1215  0.0331  0.0810
 7633W        W23102   5.996  12.075   1.061  0.2244  0.0027 -0.0615
 7634W        W23103  13.877  11.244   4.763  0.0536 -0.4177  0.0797
 7635W        W23104   8.290  18.081  14.776  0.0171  0.4036  0.0097
 7636W        W23105  11.153  14.039  11.593  0.3285  0.4363  0.1015
 7637W        W23106  17.008  15.017   2.686 -0.1391 -0.0992 -0.0381
 7638W        W23107   2.000  10.032  15.357 -0.1334 -0.1067 -0.2580
 7639W        W23108   8.955  11.290  11.901  0.0197 -0.0741  0.3411
 7640W        W23109   4.857   8.993   1.601  0.0741  0.4248  0.1781
 7641W        W23110  13.967   8.038  15.657  0.1563  0.2382 -0.1990
 7642W        W23111  16.761   2.827  11.137  0.2033  0.0227 -0.1879
 7643W        W23112  16.098  16.571   9.997  0.1010 -0.1481  0.1894
 7644W        W23113   0.030  10.965   1.977 -0.2893  0.0850  0.1511
 7645W        W23114   2.386  11.719  12.701  0.2249 -0.0969 -0.2368
 7646W        W23115   6.854  17.568  11.322 -0.0664  0.0582  0.1026
 7647W        W23116   4.442  15.745  13.660  0.2032 -0.0953 -0.1803
 7648W        W23117  14.304  17.283  11.605 -0.3952 -0.1285 -0.3710
 7649W        W23118   6.144   1.044   4.472 -0.2046  0.1261 -0.2622
 7650W        W23119  10.202   7.413   5.161  0.0326  0.1070  0.1177
 7651W        W23120  15.412  17.865   3.659 -0.4109  0.3814  0.0095
 7652W        W23121   5.554  11.395   3.552 -0.1352  0.0724  0.1312
 7653W        W23122  10.346  15.627   3.065 -0.0333 -0.1892  0.1149
 7654W        W23123   0.405  18.164  12.962  0.1457  0.1443  0.2945
 7655W        W23124   5.292   3.077  12.871  0.0822  0.0605 -0.1728
 7656W        W23125  14.291   2.538  14.165  0.0355 -0.2121  0.1526
 7657W        W23126   7.780   3.371  12.782  0.1243  0.2509  0.2447
 7658W        W23127  18.658  12.821  14.968 -0.1782 -0.2265  0.0350
 7659W        W23128  14.558   4.850  13.360  0.0737 -0.2679  0.2970
 7660W        W23129   3.903   4.017   2.359  0.0192 -0.2430 -0.4237
 7661W        W23130  16.788  11.165   1.292 -0.1602  0.0038  0.3571
 7662W        W23131   2.062  15.962   0.312  0.1722 -0.0664  0.1611
 7663W        W23132  13.603  13.106   4.610  0.1140  0.0586  0.2902
 7664W        W23133   3.622   0.866   6.305  0.2673 -0.1477  0.2359
 7665W        W23134  11.073   1.977   2.024 -0.4470  0.5742 -0.1333
 7666W        W23135  10.891  12.450   4.880 -0.4691 -0.3063 -0.0248
 7667W        W23136   1.945   5.584  13.809 -0.0366  0.1434 -0.1697
 7668W        W23137  17.070   0.594  14.670 -0.1478  0.0734  0.1076
 7669W        W23138   0.661  17.259  14.561 -0.1081  0.0793  0.3745
 7670W        W23139   7.661   8.822   3.051 -0.2362  0.3573 -0.0459
 7671W        W23140  15.868   8.251  12.981 -0.3487 -0.1269 -0.0781
 7672W        W23141  12.919   9.940  10.741  0.0061  0.0749 -0.2194
 7673W        W23142   4.652  15.401   4.612 -0.0420 -0.2800  0.2411
 7674W        W23143   0.117  11.668  12.384 -0.1451  0.1023 -0.0615
 7675W        W23144  16.135   3.840  14.828 -0.0192 -0.2657 -0.0672
 7676W        W23145   8.455   7.159   3.564  0.2655 -0.0467 -0.1424
 7677W        W23146  17.822  12.879   4.716  0.1974 -0.3519 -0.1573
 7678W        W23147  12.542  13.317  11.248  0.1835  0.0741  0.0901
 7679W        W23148  13.216  13.577  13.417 -0.0930 -0.1838 -0.2068
 7680W        W23149   1.394   4.917   0.789  0.1336 -0.0771  0.0418
 7681W        W23150   9.131   2.698  14.868 -0.2837  0.2256 -0.2415
 7682W        W23151  14.125  18.398  12.853 -0.1074  0.0828  0.3105
 7683W        W23152   5.442   8.813   3.329  0.0652  0.5113  0.2486
 7684W        W23153   5.860   5.596  10.540 -0.2096  0.3706  0.0027
 7685W        W23154  12.592   1.272  11.819 -0.0286  0.1637 -0.1512
 7686W        W23155  15.022   5.332   5.084 -0.2382 -0.3275  0.0866
 7687W        W23156   5.064  18.091   0.268  0.2632 -0.2904 -0.0775
 7688W        W23157   6.961  12.354   5.094  0.0845 -0.0036 -0.0279
 7689W        W23158   6.105   4.329   2.459  0.1559 -0.0565 -0.4046
 7690W        W23159   4.755   8.558   2.486 -0.2443  0.0991  0.1326
 7691W        W23160  16.974  15.802  13.999 -0.0091  0.1446 -0.0613
 7692W        W23161   0.736   6.441   1.584  0.2096  0.0535  0.0356
 7693W        W23162  11.435  18.678   5.433 -0.0245  0.0020 -0.1660
 7694W        W23163   8.700   4.544  14.986 -0.0511 -0.2795 -0.2253
 7695W        W23164  16.622  15.687   5.639  0.2645  0.2149  0.0082
 7696W        W23165  15.174   4.499   4.036  0.1049  0.2201 -0.1489
 7697W        W23166   2.246  13.830  12.645  0.0691  0.0839  0.1054
 7698W        W23167  15.866   2.471  15.659  0.1214  0.0859 -0.0666
 7699W        W23168   3.230   4.549   9.588  0.0569 -0.1204 -0.3160
 7700W        W23169  13.682  13.973   0.658 -0.0999  0.0302  0.2205
 7701W        W23170  12.582  11.433   1.833 -0.1665  0.3016  0.1381
 7702W        W23171  13.808  12.897   1.984  0.0594 -0.2517  0.0319
 7703W        W23172   9.191   2.924  14.395 -0.0414 -0.2780  0.2121
 7704W        W23173   5.228  18.472  13.029 -0.2039 -0.1045  0.2215
 7705W        W23174   8.845  14.144  12.660  0.1786  0.2247  0.0692
 7706W        W23175   6.298   7.753  14.318  0.2190 -0.0598  0.0202
 7707W        W23176   4.286   1.071   3.699 -0.1091 -0.0736 -0.1746
 7708W        W23177   7.630   8.580  15.251 -0.1843 -0.2685  0.1471
 7709W        W23178   7.924  12.444  11.377  0.0101 -0.0037  0.1123
 7710W        W23179   1.083   1.276   1.273 -0.1675  0.0523 -0.3366
 7711W        W23180   4.195  18.284   3.544  0.0528  0.0542  0.0961
 7712W        W23181   3.302   3.032   5.502  0.0095  0.1376 -0.1427
 7713W        W23182   6.788  10.680  11.820 -0.1882 -0.1051 -0.0214
 7714W        W23183   8.774   1.443  14.771  0.1328 -0.1444  0.0580
 7715W        W23184  10.016   4.470  14.063  0.3020  0.0184  0.0914
 7716W        W23185  12.592  11.730   2.956 -0.1083 -0.0012 -0.0156
 7717W        W23186  12.881  15.516   1.635 -0.0274  0.0985 -0.0679
 7718W        W23187   8.344  13.323   4.621 -0.2214 -0.0995  0.0435
 7719W        W23188   1.635  12.654   3.342  0.2075  0.1671  0.1315
 7720W        W23189  13.338  18.693  15.302 -0.2653 -0.0615  0.2651
 7721W        W23190  10.688   1.350   2.130 -0.2476  0.3586  0.0776
 7722W        W23191   0.272   6.397  14.412  0.1068 -0.0274 -0.5492
 7723W        W23192   6.044  10.744   0.218 -0.2338  0.0589  0.4694
 7724W        W23193  14.874  13.022  13.081  0.2028  0.0213 -0.0048
 7725W        W23194  10.952  14.173   0.535  0.3098  0.2285  0.0808
 7726W        W23195   9.261   1.540   2.045  0.0483 -0.1529 -0.2885
 7727W        W23196   7.059   1.611   0.347 -0.3501 -0.1929 -0.0595
 7728W        W23197  14.684  11.981   1.218  0.0981  0.1553  0.1460
 7729W        W23198  17.472   4.854   1.963  0.2309  0.2090  0.1811
 7730W        W23199   2.694  18.261  13.380 -0.2335  0.1357  0.0156
 7731W        W23200  12.226  17.055   2.879  0.3350 -0.0857  0.0071
 7732W        W23201   9.026   6.833   1.414 -0.0852 -0.3256  0.0832
 7733W        W23202  17.049  15.657  14.919  0.0473 -0.0419 -0.1560
 7734W        W23203  13.230   8.863   2.495  0.1140 -0.1999  0.1957
 7735W        W23204  11.302   7.711   3.353 -0.0343 -0.4248 -0.1617
 7736W        W23205   1.976   6.032   2.442 -0.0059  0.1812  0.0972
 7737W        W23206   2.212  12.520  13.143 -0.0536 -0.2008  0.1731
 7738W        W23207   1.385   0.550  14.307 -0.1801 -0.0795  0.2614
 7739W        W23208  18.190   6.638   2.518  0.3068  0.3125  0.0214
 7740W        W23209  10.946   0.249  15.608 -0.0412  0.1937  0.0030
 7741W        W23210   9.137  12.742  12.343 -0.0116 -0.3940 -0.1812
 7742W        W23211   3.789  18.074  12.673 -0.1116  0.2479 -0.0408
 7743W        W23212  15.348  11.729  10.670 -0.1300  0.1237  0.0602
 7744W        W23213   8.409   1.095  11.321  0.2876 -0.0876  0.1178
 7745W        W23214   6.679  11.290  12.710 -0.3147 -0.0422 -0.1487
 7746W        W23215   8.498  14.213  13.804 -0.0206 -0.0696  0.1730
 7747W        W23216   2.441  17.628   5.368  0.2324 -0.1272 -0.1332
 7748W        W23217  10.405   6.606  14.528 -0.2221  0.1744 -0.3291
 7749W        W23218   3.196   2.877   4.989 -0.1926 -0.1131 -0.0617
 7750W        W23219  18.730  16.116  12.770  0.2067  0.1122 -0.0317
 7751W        W23220  11.214   1.455   2.908  0.1779 -0.1317 -0.1071
 7752W        W23221   5.027   5.783   3.259 -0.4289 -0.0915  0.3915
 7753W        W23222   6.984   4.592  14.086 -0.0382  0.1351  0.2011
 7754W        W23223   7.904   9.542   3.338 -0.0227  0.0289  0.2814
 7755W        W23224   6.134  15.814   2.161  0.1851 -0.0384  0.0719
 7756W        W23225  14.578  15.751  14.977 -0.1373 -0.0787  0.2240
 7757W        W23226   9.355  14.494   2.799 -0.5789  0.2533  0.3724
 7758W        W23227   8.209  17.782  12.289  0.1362  0.2219 -0.1081
 7759W        W23228   9.079  14.780  10.879  0.1044  0.3240 -0.2249
 7760W        W23229  14.522  12.519  10.977 -0.2095  0.2723 -0.1642
 7761W        W23230   4.385   7.074   3.201  0.2012  0.2715  0.0410
 7762W        W23231   4.297  14.745   4.162  0.2438 -0.1259  0.0966
 7763W        W23232  16.741  17.836   1.656  0.1153 -0.1596  0.0848
 7764W        W23233   5.036  12.047   3.180 -0.2533  0.1333 -0.1324
 7765W        W23234   1.589   2.863   4.291  0.1570  0.2267  0.1152
 7766W        W23235  15.463  14.350   1.965  0.1531 -0.0704  0.1379
 7767W        W23236   8.594  18.535   2.116 -0.0526  0.0340 -0.1143
 7768W        W23237   6.918   5.872  11.114 -0.0283  0.2253 -0.0233
 7769W        W23238   8.048  15.548   5.240 -0.0867 -0.0687  0.3111
 7770W        W23239  16.580  18.652   0.374 -0.1044  0.1542  0.3136
 7771W        W23240  17.845   9.354   5.548 -0.2192 -0.1927  0.0386
 7772W        W23241   3.283   9.955   5.252  0.2884 -0.0547  0.3927
 7773W        W23242  12.333   4.773  13.157  0.2565  0.0722  0.1648
 7774W        W23243   1.993  15.411  13.523  0.2360  0.4125  0.2111
 7775W        W23244  17.806  11.760   2.852  0.0384 -0.2274 -0.1247
 7776W        W23245   6.797  11.851  14.006  0.0249  0.3425  0.1313
 7777W        W23246  17.821   4.436   1.909  0.0819 -0.3814 -0.0703
 7778W        W23247   7.357  15.025  15.563 -0.1572 -0.3607 -0.1131
 7779W        W23248  13.946   2.044   3.738 -0.3033 -0.0765 -0.0662
 7780W        W23249  10.644   1.001   4.547 -0.1591  0.0569  0.3118
 7781W        W23250   3.669   5.415  14.296 -0.1504 -0.0544  0.1766
 7782W        W23251  17.263  10.461  12.462 -0.0083 -0.2100  0.2915
 7783W        W23252  15.224   3.336  14.741 -0.0482  0.2278 -0.1011
 7784W        W23253  16.221  11.493  11.635 -0.0056  0.1783  0.1694
 7785W        W23254  10.097   7.265  11.623 -0.1247  0.0372 -0.1076
 7786W        W23255  10.158   9.057   3.809  0.1247  0.2732 -0.0365
 7787W        W23256   7.649   3.164  11.018 -0.1236  0.0349  0.3564
 7788W        W23257   4.835  13.234   3.730  0.0646 -0.0897  0.2650
 7789W        W23258   1.415   4.302  13.994  0.3441  0.2311 -0.1713
 7790W        W23259   9.670   8.313   2.074  0.2458  0.1723  0.2912
 7791W        W23260   9.940   0.816   1.042  0.1671 -0.0389 -0.3842
 7792W        W23261   2.302  17.396   1.161 -0.1343 -0.1024  0.0023
 7793W        W23262  17.865  15.774   5.718 -0.1623 -0.2798  0.2359
 7794W        W23263   0.902  14.660   0.876  0.3555  0.1422 -0.1302
 7795W        W23264  18.507  15.424   1.560 -0.1103 -0.3187  0.2174
 7796W        W23265   9.069  10.281  11.233 -0.2686 -0.0124 -0.1873
 7797W        W23266   7.000   7.119  13.179 -0.1050 -0.0297 -0.2399
 7798W        W23267   0.872  18.212  13.111 -0.1354  0.1769 -0.0856
 7799W        W23268  11.924  10.431  14.785  0.0822  0.1391  0.0069
 7800W        W23269  15.290  14.331   3.647  0.1772 -0.0327  0.3776
 7801W        W23270   1.691   8.828  14.079  0.2127 -0.0230 -0.1077
 7802W        W23271   8.496   7.092  10.928  0.0288  0.1712  0.1240
 7803W        W23272  10.201   2.117   3.736  0.0937  0.1836 -0.4463
 7804W        W23273   5.490  11.029  10.647 -0.0318 -0.1818  0.1262
 7805W        W23274  13.417  13.775  13.800  0.2062  0.0365  0.0245
 7806W        W23275  16.583   5.369  12.026 -0.1723  0.1226  0.0081
 7807W        W23276   8.054   1.662   1.799  0.1563  0.2578 -0.1914
 7808W        W23277   9.269  13.695  14.158  0.0457 -0.0529  0.1682
 7809W        W23278  17.301   6.905  14.840  0.3009 -0.0206 -0.0199
 7810W        W23279   7.676   5.883   0.922 -0.0597 -0.1012 -0.0590
 7811W        W23280   9.369   6.130   5.388  0.1910  0.0691  0.0431
 7812W        W23281  16.975  14.587   0.592  0.1623 -0.0979  0.1615
 7813W        W23282  11.258  10.990   0.857 -0.1962 -0.0623 -0.1320
 7814W        W23283   5.440   5.468  14.464 -0.0081 -0.0600 -0.1109
 7815W        W23284  15.296  13.637   1.624  0.1661 -0.0004 -0.0028
 7816W        W23285  17.305   7.290  11.815 -0.0895 -0.0516 -0.1401
 7817W        W23286  12.464  10.230  14.063  0.1301 -0.0911  0.0442
 7818W        W23287  17.478   3.335   1.024 -0.0854  0.1249 -0.0276
 7819W        W23288   4.400   6.906   5.161  0.1159  0.1225  0.5114
 7820W        W23289  10.420   5.277  14.367  0.1575  0.2682 -0.3687
 7821W        W23290  14.594   4.708   2.458  0.0173  0.0358  0.0714
 7822W        W23291  16.029  10.087  12.185 -0.3969  0.1538  0.0523
 7823W        W23292   2.761   3.984   1.411  0.2456 -0.1868 -0.1796
 7824W        W23293  10.649  14.464  12.597 -0.4484  0.1898  0.0358
 7825W        W23294  13.259  16.126   2.818  0.1071  0.0950  0.0647
 7826W        W23295   9.162  12.761   4.747 -0.3484 -0.1638  0.0921
 7827W        W23296   8.392  17.060   4.537 -0.5638  0.3013  0.0966
 7828W        W23297  18.245   4.277  13.379 -0.5028 -0.2810 -0.1074
 7829W        W23298  16.122  10.567   0.170 -0.4839 -0.1306 -0.0895
 7830W        W23299  15.970   7.511  12.057 -0.0968 -0.2722  0.1956
 7831W        W23300   4.781  12.224  12.480  0.0071  0.2790  0.3420
 7832W        W23301   9.206   6.593  14.489  0.1505  0.1214  0.0452
 7833W        W23302   1.414  15.738   5.489  0.1484 -0.1002 -0.0584
 7834W        W23303  14.851   0.816  14.688  0.0219 -0.2373 -0.0553
 7835W        W23304  13.752   3.773   1.156  0.1782  0.1964  0.1213
 7836W        W23305  17.696  11.874   6.268 -0.1253 -0.0379 -0.1737
 7837W        W23306   1.263   2.834  15.365 -0.1030  0.0600  0.1321
 7838W        W23307   0.820  13.315   3.421 -0.1595  0.2192 -0.0078
 7839W        W23308   2.971  18.500   1.490  0.1238  0.1020 -0.0250
 7840W        W23309  17.462  15.955  13.955 -0.0025  0.0496  0.3213
 7841W        W23310   4.726   6.031   2.958 -0.0962  0.0421  0.0403
 7842W        W23311   9.565   9.205   2.047 -0.1957 -0.0057  0.1224
 7843W        W23312  13.592   9.005  13.411 -0.0908  0.4305 -0.0476
 7844W        W23313  16.204   3.084   4.088 -0.1384  0.0675 -0.0313
 7845W        W23314   3.950   4.799   0.671  0.4213  0.0650 -0.0013
 7846W        W23315   6.842  16.757  15.025 -0.1060 -0.0882 -0.0736
 7847W        W23316   9.829  11.474  14.042 -0.0406  0.2684  0.2146
 7848W        W23317  15.324   1.577  14.381 -0.2234 -0.1120  0.0885
 7849W        W23318  10.491  15.256   3.383  0.1200 -0.2610 -0.0527
 7850W        W23319   7.256   2.171   2.199  0.0688  0.3405  0.1726
 7851W        W23320   4.258   7.976   0.192  0.0104 -0.0353  0.4968
 7852W        W23321   6.723  10.731   0.841  0.2305  0.0529 -0.1898
 7853W        W23322   5.831   6.212   0.577  0.0782  0.2618 -0.1522
 7854W        W23323   3.393   3.349   5.093 -0.4473 -0.1267 -0.0911
 7855W        W23324  17.940  13.418   4.146 -0.0945 -0.2368 -0.0321
 7856W        W23325  16.550   7.618   2.183  0.1917 -0.0231  0.0707
 7857W        W23326   4.649   2.204   5.275  0.1826  0.1100 -0.1786
 7858W        W23327  12.095  14.942  15.033  0.1092  0.2010 -0.3069
 7859W        W23328  12.799  16.252   0.324  0.1185 -0.1367  0.3364
 7860W        W23329  17.287   5.997  14.314  0.0014  0.0750 -0.2052
 7861W        W23330   7.758  12.541   1.538 -0.0945  0.0741 -0.2733
 7862W        W23331   8.905  10.312  15.035  0.0456 -0.2129  0.2284
 7863W        W23332   2.564   6.144   3.180 -0.3065 -0.3494  0.0204
 7864W        W23333  15.770   8.181   3.313 -0.2103  0.0484  0.2157
 7865W        W23334  13.060   8.339   2.622 -0.0462 -0.1761 -0.0259
 7866W        W23335   1.643  11.711   1.044 -0.1482  0.1987  0.0237
 7867W        W23336   6.139   0.712  10.414  0.0523  0.1262  0.1822
 7868W        W23337   6.333  18.278  10.842  0.2459  0.0395 -0.0548
 7869W        W23338   1.679  12.555  15.440 -0.2686  0.0383  0.0749
 7870W        W23339   8.036  11.446   0.819  0.1482 -0.1500  0.1669
 7871W        W23340  12.999   8.401   3.518 -0.0063 -0.1698  0.1410
 7872W        W23341  13.103   1.200   4.153  0.2380  0.0084  0.2008
 7873W        W23342   4.641   5.598  14.309  0.3212  0.2997  0.1586
 7874W        W23343   6.379   1.627  13.496  0.2435 -0.0497  0.2139
 7875W        W23344  12.755  15.183  12.141 -0.0088  0.0670  0.2642
 7876W        W23345  16.279  11.925   3.807 -0.0478 -0.0444 -0.0369
 7877W        W23346  18.589  11.086  13.796 -0.0521 -0.0174 -0.2741
 7878W        W23347  15.492   3.455  10.732  0.2002 -0.1368  0.0484
 7879W        W23348   0.345   9.556   1.899 -0.1132  0.2797 -0.2503
 7880W        W23349  11.849   5.089  14.827 -0.3660 -0.1574  0.1517
 7881W        W23350   9.313  13.998   3.233 -0.5341  0.1010 -0.0623
 7882W        W23351   7.061  16.128  14.392 -0.1422  0.0853 -0.2161
 7883W        W23352   1.754   9.045   0.634  0.0129  0.0614 -0.2455
 7884W        W23353  15.428  16.056   5.194  0.0286 -0.0464 -0.0314
 7885W        W23354   1.766  14.882  14.232 -0.1840  0.0513  0.2146
 7886W        W23355   1.378  18.496  14.198 -0.3867 -0.1616 -0.1068
 7887W        W23356   3.061  18.493   0.413 -0.1678 -0.3212  0.0512
 7888W        W23357   8.766  15.466   4.537  0.3092 -0.1950  0.3878
 7889W        W23358   9.307  12.223  11.282  0.2752  0.2749 -0.1330
 7890W        W23359  12.921   8.797   5.546  0.3826  0.0467 -0.0497
 7891W        W23360  13.181  18.292   0.732 -0.0614 -0.0623 -0.1881
 7892W        W23361   6.387   3.376   9.610  0.0018 -0.1774  0.0052
 7893W        W23362   2.416   4.015  11.063  0.3761 -0.2812  0.1940
 7894W        W23363   8.352   7.435  15.670 -0.0665  0.0113 -0.0572
 7895W        W23364   6.082  12.905   2.833 -0.2044  0.0941 -0.0037
 7896W        W23365  17.091  11.211  15.043 -0.2507  0.0196 -0.2673
 7897W        W23366   6.395  12.027   3.278  0.2736 -0.3731 -0.1187
 7898W        W23367   7.096  10.334   1.506 -0.2787  0.0680 -0.4992
 7899W        W23368  10.827   8.806   1.527 -0.1751  0.1027 -0.1741
 7900W        W23369   4.229  18.583  11.006  0.1788  0.2463 -0.2672
 7901W        W23370   5.987  11.626   1.752  0.0049  0.0171  0.4987
 7902W        W23371   4.699   6.847   0.480 -0.0129 -0.0217 -0.0791
 7903W        W23372   5.955   3.010   4.301  0.0935  0.2085  0.2364
 7904W        W23373   5.733   1.911   3.107  0.0889  0.2941 -0.4551
 7905W        W23374  13.233   6.285  13.308 -0.0368 -0.0154  0.4270
 7906W        W23375   5.602  18.781  14.858  0.0817  0.0018 -0.0016
 7907W        W23376   8.865  13.962  15.544  0.0192  0.2972 -0.1880
 7908W        W23377   1.141   9.418  12.732 -0.0297 -0.1395  0.3769
 7909W        W23378  16.563  17.811  12.326  0.1645  0.1000 -0.4103
 7910W        W23379  13.758  11.482   1.872 -0.3953 -0.0156  0.2999
 7911W        W23380  15.909  17.912  11.010  0.0563 -0.0118 -0.1147
 7912W        W23381   7.168  14.242  10.066  0.0611  0.3200  0.1539
 7913W        W23382   9.407   7.295   2.993  0.0770 -0.1797  0.1512
 7914W        W23383  11.522   4.323   1.750 -0.2155  0.0158 -0.2102
 7915W        W23384   5.443  11.584  15.039  0.0234  0.2402 -0.1035
 7916W        W23385   0.831   6.387  14.333 -0.2975  0.1334 -0.1357
 7917W        W23386   7.025  14.649  12.306  0.0167  0.0491  0.1882
 7918W        W23387   0.169   8.784  12.886 -0.0088 -0.0038 -0.1620
 7919W        W23388  16.876  17.829   3.953 -0.3529 -0.0606 -0.4322
 7920W        W23389   0.406   2.695   4.563  0.4400  0.3245 -0.0752
 7921W        W23390  16.349  15.834   0.916 -0.1421  0.0027 -0.3058
 7922W        W23391  12.774  15.548   4.480  0.0301 -0.0054  0.1512
 7923W        W23392   0.124  18.064   5.347  0.1107  0.1987  0.1928
 7924W        W23393   1.677   8.318  14.876 -0.0352  0.3280 -0.1119
 7925W        W23394  12.429   6.241   2.647 -0.3006 -0.1188  0.1624
 7926W        W23395   8.816  17.137  11.124 -0.1850 -0.0279  0.0492
 7927W        W23396  15.303  11.001  11.160  0.4602 -0.1421 -0.2174
 7928W        W23397   1.181  17.456  15.219 -0.0560  0.1561  0.2133
 7929W        W23398   0.863   4.860  14.607  0.1222  0.1904  0.0923
 7930W        W23399  11.715  10.761   0.137 -0.3714  0.2185 -0.0943
 7931W        W23400  15.304   0.007   5.307  0.1471  0.2469  0.2527
 7932W        W23401   4.686  17.282  14.611 -0.0385 -0.0264  0.0742
 7933W        W23402  10.007   1.374   3.143  0.2552  0.1071  0.3523
 7934W        W23403  11.114  13.648  13.832 -0.0666  0.0784 -0.1139
 7935W        W23404   2.417  13.294   2.214  0.0977  0.3297 -0.1009
 7936W        W23405  15.089   1.253  13.806  0.1488 -0.2566  0.2714
 7937W        W23406   2.166  12.678   3.627  0.0939 -0.0172 -0.3060
 7938W        W23407   0.458  17.721  13.297 -0.1772  0.0432  0.0482
 7939W        W23408  13.709  13.548  13.449  0.2657  0.1199 -0.1961
 7940W        W23409  17.856  11.838   4.541 -0.4543  0.0549  0.0991
 7941W        W23410   5.178  11.457   1.202 -0.0457  0.1965 -0.4011
 7942W        W23411  12.144   3.708  11.172  0.1613 -0.0564 -0.3373
 7943W        W23412  10.896  17.672   3.951 -0.0550 -0.1495  0.1062
 7944W        W23413   2.084  17.587  11.410 -0.1028  0.0221 -0.0436
 7945W        W23414  11.888  13.040   4.886  0.2022 -0.1741  0.1094
 7946W        W23415   3.105  18.064   1.154 -0.0848  0.1504 -0.3408
 7947W        W23416   9.187  15.687   4.679  0.0243  0.0192 -0.1951
 7948W        W23417   6.686  12.815  12.658 -0.3475  0.1442  0.0331
 7949W        W23418  16.803  13.387   2.802 -0.4317 -0.2084  0.1196
 7950W        W23419   0.057  14.793   0.061 -0.1107  0.3164  0.1340
 7951W        W23420   1.278  14.829  12.986 -0.1101  0.3067  0.2016
 7952W        W23421  13.118   8.300   4.421 -0.0040 -0.0773  0.3443
 7953W        W23422  17.967  14.374   5.932 -0.0861 -0.0919 -0.0543
 7954W        W23423  12.048  17.383  11.163 -0.3137  0.1380  0.1174
 7955W        W23424  12.204  10.640  13.839  0.2049 -0.4552  0.0692
 7956W        W23425  11.514   9.516  13.536 -0.0041  0.0966  0.3108
 7957W        W23426  17.487   5.458  11.056  0.0696  0.0681 -0.3246
 7958W        W23427  17.250   2.092  10.680 -0.0458 -0.3202 -0.4792
 7959W        W23428   4.518  16.696  11.003  0.2032 -0.3077  0.1531
 7960W        W23429  12.755   4.730  12.013  0.1362  0.0894  0.2004
 7961W        W23430  16.464   5.224  12.709  0.0750 -0.2623 -0.1471
 7962W        W23431  14.620   9.373  10.875  0.0509  0.1047  0.1089
 7963W        W23432   2.715  13.479   2.935 -0.1228  0.0940  0.0730
 7964W        W23433   7.166  15.603   0.051  0.1386 -0.3480 -0.1314
 7965W        W23434   5.119   3.184   1.593 -0.4047 -0.2250  0.0334
 7966W        W23435   4.943   4.956   0.563  0.1357  0.2444  0.0366
 7967W        W23436   9.154   8.848   3.565  0.0746  0.0062  0.0612
 7968W        W23437   4.227   6.232  12.768  0.1807 -0.1528  0.0325
 7969W        W23438  10.806   8.420  13.681  0.0010 -0.0229  0.0418
 7970W        W23439   6.042  16.478  10.911 -0.1501 -0.0825 -0.0530
 7971W        W23440   1.168   1.624   2.174 -0.1536 -0.0308  0.0610
 7972W        W23441  10.579  12.582  11.964  0.3414 -0.1676  0.0590
 7973W        W23442  14.393   2.874   0.353  0.1963 -0.1531 -0.2294
 7974W        W23443  12.666  14.599   6.238 -0.2204  0.0756 -0.2225
 7975W        W23444   1.782  18.299  12.987 -0.1180  0.1848  0.6775
 7976W        W23445  14.925  17.070   4.261 -0.0007 -0.0007  0.1188
 7977W        W23446  15.858  15.802   4.552  0.0986 -0.1865 -0.0521
 7978W        W23447   8.810   9.168  13.147  0.2350  0.0738  0.0658
 7979W        W23448  14.874  17.192  13.252 -0.3350 -0.3458 -0.4740
 7980W        W23449   5.730   1.846   4.004  0.0848  0.0063 -0.1523
 7981W        W23450  18.024  13.721   3.760 -0.2307 -0.1064 -0.2079
 7982W        W23451   1.726   0.629  14.785 -0.2400 -0.3123 -0.1446
 7983W        W23452   7.384  18.699   2.732  0.0742  0.0696 -0.0581
 7984W        W23453  18.475  10.340   0.300  0.1197 -0.3003 -0.1157
 7985W        W23454  15.198   1.287  11.092  0.3472 -0.0427 -0.3311
 7986W        W23455   5.347   4.017   3.705 -0.0927  0.4741  0.1751
 7987W        W23456   9.010  11.775   4.123 -0.1360 -0.1887 -0.0325
 7988W        W23457   3.896  11.385  10.123 -0.1727  0.0959  0.0774
 7989W        W23458   3.900  14.917   4.623  0.0062 -0.0555 -0.2969
 7990W        W23459   0.200  13.071   2.212  0.0586 -0.0108  0.1176
 7991W        W23460   9.774  13.059  10.839 -0.0301  0.1397  0.3352
 7992W        W23461   4.619  10.452   2.838 -0.1849 -0.0193 -0.0296
 7993W        W23462   7.713   6.003  15.638 -0.1825  0.1676 -0.0836
 7994W        W23463   7.690   0.126   1.130 -0.1542  0.3695  0.0470
 7995W        W23464   3.190  18.716   4.397  0.2867  0.0689  0.2519
 7996W        W23465  16.698   4.331   2.694 -0.0606  0.0041 -0.1815
 7997W        W23466   3.578   1.365  10.884  0.1823  0.0229 -0.0871
 7998W        W23467  13.323   5.406  14.224 -0.0076 -0.2689 -0.1154
 7999W        W23468   4.405  18.566  11.473 -0.2725  0.0526 -0.3142
 8000W        W23469   3.835   5.231   0.798  0.2878 -0.1183 -0.4006
 8001W        W23470   6.920   1.172  14.609  0.1007  0.0479  0.3364
 8002W        W23471  15.706  17.887  11.781  0.1118 -0.2636  0.0285
 8003W        W23472   9.572   8.894  12.330 -0.0038 -0.1657  0.0815
 8004W        W23473   4.811  14.540   4.837 -0.2296  0.1026 -0.2253
 8005W        W23474   6.840   4.874  10.784  0.0872  0.0229  0.2356
 8006W        W23475  17.648   7.136   9.555  0.1020 -0.1411  0.0707
 8007W        W23476  18.469  10.283   0.803  0.0907  0.0977  0.2361
 8008W        W23477   3.919   2.168  10.687  0.1652 -0.2921  0.1137
 8009W        W23478   5.864   7.043  11.103  0.4343  0.0419  0.2628
 8010W        W23479  16.414   4.482   1.512  0.1988  0.1709  0.1991
 8011W        W23480   3.536   7.234  13.005  0.0213 -0.0202 -0.2480
 8012W        W23481  10.774  15.917  15.084 -0.0383 -0.1416 -0.1043
 8013W        W23482  17.971   7.436  13.521 -0.0550  0.1276 -0.1324
 8014W        W23483  15.334  10.624   1.151  0.3203 -0.2808  0.0498
 8015W        W23484  13.620   3.548   5.240 -0.1384  0.0970  0.2030
 8016W        W23485  17.021  17.416   5.449 -0.0116  0.0141 -0.3255
 8017W        W23486  17.516   1.390   4.161  0.0650 -0.0914 -0.0194
 8018W        W23487   6.985   6.923   2.321 -0.1218  0.1746 -0.2324
 8019W        W23488   8.103  16.998  11.659 -0.4556 -0.0266 -0.0610
 8020W        W23489   2.048  13.868  11.430  0.0684 -0.3118 -0.0316
 8021W        W23490   7.042  18.773   5.766  0.1557 -0.2378 -0.1229
 8022W        W23491  13.449   1.563   3.900  0.0473  0.1506  0.0229
 8023W        W23492   5.365   1.151   3.309 -0.4695  0.4544  0.0509
 8024W        W23493   6.134   3.081  11.228 -0.0674 -0.2684 -0.0398
 8025W        W23494   2.806  18.425   5.113 -0.0774 -0.1927  0.0947
 8026W        W23495   4.577   3.514   1.771  0.4529  0.0848  0.3347
 8027W        W23496  17.493   9.228   0.129 -0.0063 -0.2771  0.0785
 8028W        W23497  16.297  16.115   5.395  0.0887  0.1255 -0.3402
 8029W        W23498  14.288   7.439   0.966  0.0983  0.1615  0.1904
 8030W        W23499   1.855  12.780  13.927 -0.0430  0.0839  0.4125
 8031W        W23500  17.051   2.796   4.168  0.0919 -0.1361  0.2715
 8032W        W23501   5.141  10.934  15.531  0.0497 -0.0086 -0.0958
 8033W        W23502  13.642   2.191   1.417 -0.0900 -0.0333  0.1591
 8034W        W23503  12.874   3.790  10.628 -0.2282  0.3052 -0.2384
 8035W        W23504   0.365  18.331  12.231  0.2627  0.2880  0.2682
 8036W        W23505  13.504   6.487  14.488 -0.0822  0.1131 -0.0058
 8037W        W23506  13.012  10.509   1.745  0.0830 -0.2166  0.0087
 8038W        W23507   4.233  12.454  14.958 -0.0325 -0.0450 -0.2901
 8039W        W23508   9.838   3.470   1.279 -0.1230 -0.0002 -0.1647
 8040W        W23509  12.428   4.469   1.440  0.3281  0.1702 -0.0031
 8041W        W23510   2.253   6.262   1.454 -0.1421 -0.2172 -0.0624
 8042W        W23511   2.779  11.483  11.658  0.5478  0.1786 -0.1559
 8043W        W23512   4.947  16.977  13.181  0.0740 -0.0768  0.2490
 8044W        W23513   1.721   5.310   0.466  0.2819  0.2680 -0.1184
 8045W        W23514  16.540  10.647   3.800  0.1843  0.4141  0.0382
 8046W        W23515   3.248   2.331   4.165  0.1199 -0.1459  0.0596
 8047W        W23516  11.214  13.919  14.925  0.1455  0.1417 -0.0332
 8048W        W23517   0.836   4.719  12.574 -0.1594  0.0277  0.1220
 8049W        W23518  10.985  17.411  14.847  0.1880 -0.2725 -0.1346
 8050W        W23519   1.813  13.415   1.584 -0.1124  0.1401 -0.0809
 8051W        W23520  11.835   0.763   4.927 -0.1802  0.2210 -0.2779
 8052W        W23521   9.043   6.247   9.361  0.3606 -0.1455  0.0600
 8053W        W23522   8.899   8.519   4.402  0.1796  0.0355 -0.0440
 8054W        W23523   6.957   6.933  14.874  0.1599 -0.0685  0.1292
 8055W        W23524   7.775  15.026   1.655 -0.0006 -0.0218  0.2807
 8056W        W23525  16.318   6.676  15.049 -0.3168  0.3949 -0.1062
 8057W        W23526  17.410   8.657  10.080  0.2660  0.3199  0.0125
 8058W        W23527   6.019  15.950   1.414  0.0975 -0.0153  0.2999
 8059W        W23528  13.752  12.229   0.975 -0.2618 -0.3933  0.2391
 8060W        W23529   2.958  15.270  13.423 -0.0700  0.0442 -0.0691
 8061W        W23530  14.690   8.214  15.147  0.0597  0.1866  0.1728
 8062W        W23531   8.007   7.307   0.337 -0.1902  0.1078 -0.2901
 8063W        W23532  10.076   9.584   1.365 -0.3269 -0.0822  0.4220
 8064W        W23533   9.011  13.234  10.538 -0.1404 -0.0886  0.1429
 8065W        W23534   5.838   4.507   4.971 -0.0743 -0.1841  0.2400
 8066W        W23535  17.202  13.258   6.194 -0.2034  0.1009  0.0035
 8067W        W23536   9.518   4.744  10.365  0.1420  0.4816 -0.0714
 8068W        W23537  14.880   4.254   2.651 -0.0057 -0.1818 -0.1707
 8069W        W23538   7.796   9.061   3.579 -0.1059  0.3932 -0.2433
 8070W        W23539  12.237   4.838   3.370 -0.0007  0.4202  0.1060
 8071W        W23540  10.984   1.191   9.996 -0.0908 -0.0409  0.0864
 8072W        W23541   2.536  12.410   4.929 -0.3543 -0.0570 -0.2728
 8073W        W23542  12.666   1.063  15.018  0.0052 -0.2691 -0.0397
 8074W        W23543   6.445  11.562  15.589 -0.0803 -0.0297  0.1051
 8075W        W23544  15.151  16.458  11.826 -0.3001 -0.0481  0.0100
 8076W        W23545  14.338   2.167   1.496 -0.2345  0.1930 -0.3035
 8077W        W23546  13.481   4.870  12.629 -0.0822 -0.0759  0.1300
 8078W        W23547   2.878   1.524  15.134  0.1724  0.1378  0.0479
 8079W        W23548  10.601  12.938   1.162 -0.1476 -0.0415  0.2335
 8080W        W23549  14.973   6.462   1.133  0.4052  0.1613  0.1449
 8081W        W23550  11.683   4.765  10.503 -0.0117  0.1032 -0.3379
 8082W        W23551  11.337   0.423   2.827  0.0703 -0.1527 -0.0096
 8083W        W23552   4.436  15.898   1.012 -0.1351  0.0196 -0.2236
 8084W        W23553  18.759   5.704  13.704 -0.1449 -0.1803  0.1892
 8085W        W23554   7.825   6.020   4.548  0.0730 -0.0551  0.0834
 8086W        W23555   2.186   6.731  13.356  0.2342 -0.0565 -0.2824
 8087W        W23556   3.412   1.880   3.410 -0.0874 -0.0174 -0.0676
 8088W        W23557   5.041   8.935   1.099  0.2204 -0.1298 -0.0104
 8089W        W23558   7.791  16.684   1.559  0.0605 -0.1721 -0.1094
 8090W        W23559  12.168   8.732  14.263 -0.3226 -0.1290 -0.0247
 8091W        W23560   0.293  15.203   0.298  0.0471 -0.0184 -0.2423
 8092W        W23561  11.708   7.626  14.976 -0.1152  0.0634  0.2310
 8093W        W23562   3.991   3.403  15.279  0.0295 -0.1479 -0.0368
 8094W        W23563   5.120   3.123   9.791  0.0104  0.0112 -0.1969
 8095W        W23564   5.325  15.082  11.514 -0.0331  0.0282 -0.1827
 8096W        W23565   8.154  11.474  15.654 -0.1350  0.0383  0.2057
 8097W        W23566   6.072   1.149   0.037 -0.0062  0.0108  0.2479
 8098W        W23567   8.779  11.020  14.374 -0.0340 -0.2310 -0.3470
 8099W        W23568  11.214   3.248  10.234 -0.1096  0.2058  0.1052
 8100W        W23569  16.250  17.350  12.474  0.3506 -0.1202 -0.2721
 8101W        W23570  16.980  15.023  15.326 -0.1059 -0.1227 -0.1067
 8102W        W23571   5.946   1.979   1.704 -0.1096  0.3742  0.1100
 8103W        W23572   4.830  12.260  11.450  0.2450  0.1278  0.1661
 8104W        W23573  18.273   7.780  13.743  0.0799 -0.1793  0.1385
 8105W        W23574   9.854   3.953  11.211  0.2245 -0.1562  0.0424
 8106W        W23575   5.131   6.961  12.660  0.1052 -0.5131 -0.0744
 8107W        W23576   0.502   1.200   4.277 -0.2343  0.1600 -0.1066
 8108W        W23577   2.656   9.082   0.870  0.3094 -0.3345 -0.0488
 8109W        W23578  15.577  17.849  10.649  0.3940  0.0414  0.1626
 8110W        W23579   4.246   5.931   1.425  0.2905  0.0245  0.0885
 8111W        W23580  13.129   3.131   1.482 -0.0776  0.0221  0.3540
 8112W        W23581  12.907   9.852  10.164  0.0813 -0.0306  0.3230
 8113W        W23582  16.641   4.861  12.290 -0.1263  0.3104  0.0195
 8114W        W23583  12.160  12.926   1.790 -0.0285  0.1303 -0.0645
 8115W        W23584  12.366   6.887  12.442 -0.0608  0.1147  0.0967
 8116W        W23585  11.962  16.540   2.766  0.2595  0.0005 -0.1285
 8117W        W23586  17.640  17.810  15.337 -0.1811  0.0996  0.5167
 8118W        W23587   0.190   7.000  12.717 -0.4109 -0.1907 -0.0970
 8119W        W23588  11.239   3.756   5.340  0.0570  0.4535 -0.0067
 8120W        W23589  18.431  11.572  14.741  0.0329  0.2853  0.2194
 8121W        W23590   4.652  18.368   3.975 -0.0898  0.0766 -0.2055
 8122W        W23591   1.670  16.586  13.695  0.3608 -0.2297 -0.1443
 8123W        W23592   7.253   5.946  15.291 -0.3217 -0.1464 -0.0438
 8124W        W23593  11.143   9.702  11.012  0.0841  0.1797 -0.0671
 8125W        W23594  11.761   3.340  15.022 -0.0335  0.2702  0.3734
 8126W        W23595   8.567  16.348   3.725  0.2249  0.2682  0.0536
 8127W        W23596  12.039   3.195  13.133 -0.0513  0.1084 -0.1264
 8128W        W23597  13.227   9.966   1.274  0.0479  0.0636 -0.2781
 8129W        W23598   7.098  17.326   3.152 -0.2049  0.1873  0.0801
 8130W        W23599   7.823   7.726   2.742 -0.4272  0.3898  0.0710
 8131W        W23600   4.753   9.475   1.436 -0.3126  0.1450  0.0625
 8132W        W23601   2.365   7.372   1.438  0.3473 -0.0563 -0.0679
 8133W        W23602  11.024  17.228  15.317  0.0020 -0.0414 -0.1813
 8134W        W23603  10.198   9.944  12.812  0.1748  0.0513 -0.2523
 8135W        W23604   5.075  14.698   2.984  0.3228  0.1167 -0.0268
 8136W        W23605  15.725   9.584   4.203 -0.1819 -0.1769 -0.0317
 8137W        W23606  17.707   4.385   3.437  0.1317 -0.2426 -0.2604
 8138W        W23607  13.246   5.328   1.050 -0.1304 -0.0341  0.5616
 8139W        W23608  10.874   1.505  11.621  0.2122 -0.2130 -0.2170
 8140W        W23609  10.039   6.759  13.964 -0.2339  0.0191 -0.2440
 8141W        W23610  15.727  14.779   3.671 -0.0429 -0.2086 -0.0903
 8142W        W23611   7.555   1.894   4.712  0.1651  0.2511 -0.0676
 8143W        W23612  15.495   3.627   4.454 -0.0093 -0.1220 -0.5984
 8144W        W23613  15.536  11.066   1.943  0.2904  0.3249 -0.1837
 8145W        W23614  14.664   9.801   3.303  0.0748 -0.1614 -0.2067
 8146W        W23615   8.663   3.278   2.335 -0.2831  0.0659 -0.0870
 8147W        W23616   7.890   2.626   4.125  0.0669  0.0277 -0.2333
 8148W        W23617   5.068  11.903  15.298  0.2471 -0.0523 -0.0237
 8149W        W23618   7.378  13.091  13.314 -0.0096  0.1232  0.0474
 8150W        W23619  12.364  10.255   0.726  0.0536  0.0124  0.1807
 8151W        W23620  15.648   1.678  15.105 -0.0621  0.2637  0.0932
 8152W        W23621   3.022  18.432   2.135  0.0787 -0.0707  0.3527
 8153W        W23622  13.996   6.808   0.571  0.0487 -0.3951  0.1057
 8154W        W23623   1.101  17.260   2.256  0.0167 -0.0338 -0.1629
 8155W        W23624  15.363   8.565   1.824  0.3121 -0.0393  0.0804
 8156W        W23625   2.395   4.822  10.964  0.0728  0.0200  0.0478
 8157W        W23626  12.518   6.245   9.729 -0.0028 -0.1889  0.2425
 8158W        W23627   2.991  13.741  11.867 -0.0657 -0.3118 -0.2516
 8159W        W23628   4.017   4.514  14.391  0.0081 -0.5228 -0.0366
 8160W        W23629  18.660   0.690   1.022  0.3418  0.1242 -0.5631
 8161W        W23630   2.523  12.072  12.344  0.0995 -0.1767  0.1877
 8162W        W23631  17.321  17.730   5.730  0.0802  0.1138 -0.1990
 8163W        W23632  18.428  14.237  12.515  0.1981  0.0632  0.0620
 8164W        W23633  14.440  16.393  13.335 -0.1218  0.1928  0.0245
 8165W        W23634  15.286   5.290  13.872 -0.0578 -0.1883 -0.2970
 8166W        W23635   0.735   5.378  14.543  0.2368 -0.0338  0.1998
 8167W        W23636   2.756  11.190  13.442 -0.1659  0.1104 -0.0270
 8168W        W23637   8.903  11.506   3.244  0.1425 -0.2444 -0.2061
 8169W        W23638   3.018  13.603   5.082 -0.1450 -0.2134  0.0077
 8170W        W23639  15.690   6.677  13.737 -0.0882 -0.0959  0.1865
 8171W        W23640   2.891  14.723  14.954  0.2339 -0.0697 -0.1439
 8172W        W23641   2.634  16.404   3.769  0.0975 -0.1414 -0.1046
 8173W        W23642   2.041   5.835   4.424 -0.1304  0.2807 -0.1872
 8174W        W23643  15.815   1.240  11.760 -0.0113  0.1779 -0.3223
 8175W        W23644   3.496  16.105   2.762  0.1263 -0.3003 -0.0881
 8176W        W23645   0.732  18.327   0.706  0.1957 -0.2489  0.0094
 8177W        W23646  13.339   1.160  13.689  0.0392 -0.2832 -0.3325
 8178W        W23647  18.122   1.361   0.974 -0.3434 -0.2546  0.1347
 8179W        W23648   9.910   1.799   0.564 -0.1110  0.2571 -0.0654
 8180W        W23649  16.959   9.967   0.088  0.0048  0.2098 -0.3689
 8181W        W23650   0.940   6.579  12.634 -0.2147  0.1302  0.1991
 8182W        W23651   3.243  10.845   5.105  0.0457  0.1330 -0.1069
 8183W        W23652  13.912   9.259  13.677  0.1594  0.0878  0.0374
 8184W        W23653  11.758   5.749  12.028  0.1625  0.1740  0.3611
 8185W        W23654  11.321   4.847  12.041 -0.3100  0.0432 -0.1844
 8186W        W23655   5.217   8.096   2.268 -0.0750 -0.0069 -0.0025
 8187W        W23656  16.498   1.717   5.552 -0.3030 -0.0473 -0.2100
 8188W        W23657   4.004  16.180   2.663  0.2016 -0.1202  0.0516
 8189W        W23658   5.714  12.011   9.786  0.0126 -0.1893  0.0651
 8190W        W23659  16.890  13.217   0.884  0.1638 -0.0291  0.0094
 8191W        W23660   4.474   8.369  14.607 -0.1629 -0.0254 -0.0070
 8192W        W23661   4.125  12.937  12.296  0.2345  0.2465 -0.0312
 8193W        W23662   0.999   6.001   2.293 -0.0172 -0.1097 -0.3547
 8194W        W23663  13.667  15.380   0.758  0.0965 -0.0843  0.2299
 8195W        W23664  14.134  11.439  14.883  0.0131 -0.0494  0.0378
 8196W        W23665   7.289   3.723  11.788 -0.2706  0.1073 -0.1942
 8197W        W23666  11.268   0.873  14.343 -0.1405  0.0921 -0.2376
 8198W        W23667   7.131  14.246   4.448 -0.2311  0.1462 -0.1008
 8199W        W23668  16.578   6.175   1.686  0.1162 -0.0907  0.0437
 8200W        W23669  17.877  16.731   0.434 -0.0449  0.2941  0.2521
 8201W        W23670   8.925  15.761   2.972 -0.2156  0.1450 -0.0143
 8202W        W23671   0.553  12.546   5.143 -0.1267  0.0025 -0.1044
 8203W        W23672  15.752   8.821  10.647 -0.2992  0.1719 -0.1209
 8204W        W23673  12.802   7.327   3.314  0.2829 -0.2098  0.0426
 8205W        W23674   6.812  12.293  13.450 -0.3297  0.0370  0.2801
 8206W        W23675   2.993   5.157  15.188 -0.1868  0.2146 -0.1784
 8207W        W23676  15.084  14.610   4.372 -0.1311  0.2323  0.2108
 8208W        W23677   8.496   1.581   2.660  0.0433 -0.3268 -0.0010
 8209W        W23678  13.735   6.172   5.566 -0.1179 -0.0028 -0.1533
 8210W        W23679   5.441   4.067  15.158 -0.0708  0.1083  0.0152
 8211W        W23680   4.889  10.989   4.866 -0.1877  0.2620  0.0377
 8212W        W23681   0.728   3.656   9.952 -0.3884 -0.1143 -0.2314
 8213W        W23682  17.308  12.957   9.981 -0.0696  0.0754 -0.0328
 8214W        W23683  17.737   7.479  12.546  0.1485 -0.0669  0.0295
 8215W        W23684  15.051   7.494   0.239 -0.3261 -0.1756  0.0984
 8216W        W23685   9.773  17.604  14.367  0.1380 -0.1658 -0.0175
 8217W        W23686   4.424   8.796   5.033 -0.2463  0.2239 -0.0675
 8218W        W23687   3.520   2.214  15.148 -0.3393 -0.0754  0.0148
 8219W        W23688  18.051   4.816   2.098 -0.3561  0.4756  0.0544
 8220W        W23689   1.696   2.504   4.719 -0.2039 -0.1671  0.2450
 8221W        W23690   2.016  16.903  13.873  0.0837 -0.0962  0.0439
 8222W        W23691   5.295   4.773   1.128  0.0020  0.0842  0.1163
 8223W        W23692  15.716   8.294  11.003  0.2169  0.0103 -0.0510
 8224W        W23693   2.462  10.780   3.631 -0.4804 -0.2029  0.0515
 8225W        W23694   6.334   1.499   4.579 -0.1015  0.2152 -0.3482
 8226W        W23695   4.116   1.134   2.859  0.2541  0.2165  0.3987
 8227W        W23696  17.070  12.276   1.114 -0.2281 -0.2037 -0.0445
 8228W        W23697  18.382   0.242   4.651  0.3180  0.1625  0.0087
 8229W        W23698   8.432   5.269   1.945 -0.1832  0.2797  0.4527
 8230W        W23699   7.962   3.621   2.086  0.1282  0.0937 -0.2095
 8231W        W23700  14.824  14.178   4.412  0.0390 -0.1610 -0.1189
 8232W        W23701   5.617   7.086  10.230  0.0898  0.0108  0.1449
 8233W        W23702   1.640   3.806  10.739  0.1016 -0.1076 -0.0533
 8234W        W23703   8.855   5.947  11.286  0.0767 -0.0100  0.3737
 8235W        W23704  12.966  15.848   3.280 -0.0159 -0.0824  0.0374
 8236W        W23705  15.639  12.469   4.439 -0.1338 -0.0945  0.0943
 8237W        W23706   9.234  12.189  12.412  0.1838 -0.2706  0.0608
 8238W        W23707  11.193   8.208  14.407  0.0215  0.0704 -0.1396
 8239W        W23708  12.687  16.029  11.163  0.2238 -0.1132 -0.0086
 8240W        W23709   8.383  10.334   3.694  0.3668 -0.0209 -0.0365
 8241W        W23710   8.456  14.532  12.792  0.2603 -0.2351  0.1363
 8242W        W23711   7.331  15.748   4.444  0.1916 -0.3459  0.0597
 8243W        W23712  10.626   5.091  10.586  0.1527  0.0487 -0.1351
 8244W        W23713   8.931   3.806   4.535 -0.2276  0.0075  0.0559
 8245W        W23714   5.225   8.071   3.179  0.2252  0.2432  0.0566
 8246W        W23715  14.352   7.699  11.808  0.1828 -0.1030 -0.2567
 8247W        W23716  18.453   4.847   3.536 -0.0236  0.0075 -0.2914
 8248W        W23717  13.326  17.332   2.218  0.2058  0.2774  0.0551
 8249W        W23718  16.409  15.961   2.316 -0.2552 -0.3806  0.1094
 8250W        W23719   2.758   2.253   2.853 -0.0492  0.0101  0.3293
 8251W        W23720   5.971  16.772   0.234  0.5569  0.2299  0.4269
 8252W        W23721  14.493   1.898  13.656  0.0602 -0.0269 -0.1212
 8253W        W23722   7.666   5.249   1.904  0.0466 -0.0843  0.0169
 8254W        W23723   6.268  15.030   3.045  0.2538 -0.0333 -0.0405
 8255W        W23724  16.923  16.158   6.229 -0.2639  0.2214  0.2715
 8256W        W23725  14.046  14.242  12.268  0.2498 -0.0799  0.0079
 8257W        W23726  15.636   4.667   2.289  0.2648 -0.0911 -0.0539
 8258W        W23727   5.508  15.088  10.570 -0.0316  0.2539  0.2565
 8259W        W23728   4.253   1.239   1.642 -0.3705  0.1614 -0.2677
 8260W        W23729  10.501   4.088  15.575  0.1847 -0.3417 -0.4256
 8261W        W23730   3.597   9.317   1.228 -0.3309 -0.1234  0.1241
 8262W        W23731  18.603   6.033  11.738 -0.0956 -0.1927  0.2052
 8263W        W23732  14.113  12.970  13.829  0.0294 -0.2104  0.1421
 8264W        W23733  12.616   3.480   2.691  0.1743 -0.0586  0.0571
 8265W        W23734   8.501   3.739   3.173 -0.1178 -0.0940  0.0512
 8266W        W23735   3.521  12.675  11.722 -0.2796  0.2645 -0.0479
 8267W        W23736   5.959  11.509  12.469  0.1965 -0.2660 -0.1664
 8268W        W23737   2.757   0.674  13.889  0.1921  0.2363 -0.1668
 8269W        W23738   5.802  12.592   0.119 -0.0833  0.3165  0.2471
 8270W        W23739   9.073   4.240  15.124  0.0471 -0.0436  0.1023
 8271W        W23740   5.797   1.412  11.674  0.1930 -0.1024 -0.0507
 8272W        W23741   1.697  10.601  13.674 -0.0056 -0.1083  0.0639
 8273W        W23742   3.986   1.357   3.363  0.1988  0.1171  0.2171
 8274W        W23743   6.847   7.952   9.470  0.0123 -0.1922  0.0317
 8275W        W23744  10.395   3.505   1.526 -0.0730 -0.1422  0.0030
 8276W        W23745   4.670   8.449  10.719  0.2132 -0.3161  0.2561
 8277W        W23746   6.420   7.179  11.057 -0.0453 -0.1091 -0.0727
 8278W        W23747  10.401  11.394  15.530  0.0379  0.0610  0.2277
 8279W        W23748  12.063  16.251   2.229 -0.1070  0.4096 -0.1359
 8280W        W23749   6.712   2.615  13.031  0.0470 -0.1381  0.0256
 8281W        W23750  17.884   3.398   3.929 -0.2162 -0.1611  0.1584
 8282W        W23751  16.239   1.518   1.068 -0.2284 -0.2188  0.2878
 8283W        W23752   4.207  16.790  15.563 -0.0380 -0.0976  0.1193
 8284W        W23753   1.690  17.391   0.433 -0.0405  0.2353 -0.1871
 8285W        W23754   3.255   0.032  10.760 -0.1201  0.0984  0.0403
 8286W        W23755  12.206   5.824  11.806 -0.0562  0.0249 -0.0337
 8287W        W23756   0.545  16.335   1.482 -0.0989  0.4393 -0.2565
 8288W        W23757   7.657  11.426   1.249  0.0428  0.0669  0.0058
 8289W        W23758   8.408   3.297  14.644  0.1230 -0.0899  0.0505
 8290W        W23759   9.965   2.634   4.406  0.1954 -0.4592  0.0516
 8291W        W23760  13.823  11.705  14.493  0.1839 -0.2650 -0.1756
 8292W        W23761   4.835  10.105  11.533  0.3178  0.0854 -0.0303
 8293W        W23762  11.051  17.255   4.734 -0.1575 -0.1390 -0.2190
 8294W        W23763   3.272  14.459   4.084  0.3866 -0.2014 -0.2055
 8295W        W23764   2.762  12.935  12.051  0.3922 -0.0901 -0.0492
 8296W        W23765   6.599  10.684  11.254 -0.0383 -0.3507 -0.3920
 8297W        W23766   7.183  12.110  13.111 -0.0605 -0.0903  0.0165
 8298W        W23767  17.280   2.361   3.322  0.2636 -0.0712 -0.0184
 8299W        W23768  12.294  10.879  13.129 -0.0985 -0.1539  0.0418
 8300W        W23769   8.515   5.540   3.102 -0.0564  0.0929 -0.0221
 8301W        W23770  18.771   2.168  10.863  0.0890 -0.1501  0.0361
 8302W        W23771   8.261   3.907  15.452  0.1918 -0.0156  0.1665
 8303W        W23772   1.519   9.097  13.661  0.2283 -0.1431  0.2425
 8304W        W23773  12.198   8.675   2.967  0.3082 -0.3444 -0.3967
 8305W        W23774  13.138   8.166  11.261  0.0107  0.4675 -0.0182
 8306W        W23775  10.113   1.226  13.882  0.3551  0.2951  0.0594
 8307W        W23776  14.906   2.699   5.629  0.7453  0.2201  0.1956
 8308W        W23777   3.983  15.826   0.033  0.2021  0.3137  0.0015
 8309W        W23778   3.818  18.438   3.865  0.2260  0.1334 -0.1187
 8310W        W23779  10.359   6.101   1.053  0.1043 -0.1876 -0.0613
 8311W        W23780  18.648  14.158  11.520 -0.0898 -0.0295 -0.3479
 8312W        W23781   5.290  17.229  12.605  0.2333 -0.2977  0.1259
 8313W        W23782   3.968   8.348   4.561  0.0747 -0.3501  0.1033
 8314W        W23783   1.232   3.800   5.276  0.0656 -0.0454 -0.2572
 8315W        W23784   6.231   7.932   1.480 -0.0644 -0.1332 -0.2116
 8316W        W23785  13.492   0.183  11.472  0.4818 -0.0565 -0.0071
 8317W        W23786   0.205   4.862  15.094 -0.0930 -0.2367 -0.0744
 8318W        W23787   6.982   6.548   0.855 -0.0073 -0.1316  0.1738
 8319W        W23788   3.434  15.377  11.523  0.0455  0.1408 -0.1853
 8320W        W23789   9.637  17.606   1.192 -0.0515 -0.0273  0.2986
 8321W        W23790   5.579   6.550  13.724  0.1795 -0.4500 -0.0650
 8322W        W23791  14.605  18.251   3.238  0.1967  0.1167  0.0863
 8323W        W23792   0.901   0.256  15.567 -0.0801 -0.0700  0.1999
 8324W        W23793   8.294   2.338  12.269 -0.0301 -0.0174  0.0575
 8325W        W23794  17.337  11.681   2.808 -0.1268  0.0364  0.1492
 8326W        W23795   5.581   4.726   1.897  0.0350 -0.1706 -0.2482
 8327W        W23796   2.511  14.416  11.715  0.1263  0.0665  0.1832
 8328W        W23797  12.567  18.728  14.170  0.0279 -0.3042 -0.1462
 8329W        W23798   1.086   6.666  14.726 -0.0417  0.1881  0.0791
 8330W        W23799  10.319  15.002  12.244  0.0243 -0.0520 -0.0034
 8331W        W23800  16.164  18.464   5.816 -0.1579 -0.1556 -0.0348
 8332W        W23801   6.031   7.069  12.980  0.2038 -0.0276 -0.0298
 8333W        W23802   0.828   3.788  12.419  0.1299 -0.3142  0.1062
 8334W        W23803  17.194  11.782   6.300 -0.2442 -0.2340  0.0166
 8335W        W23804   7.540   3.632   1.262 -0.0946 -0.1174  0.2060
 8336W        W23805  17.938  18.602   5.117 -0.0721  0.1576  0.1051
 8337W        W23806   6.364  12.723   9.733  0.2692 -0.4150  0.2431
 8338W        W23807   0.878   0.305   1.861  0.1107  0.1397 -0.1981
 8339W        W23808   2.681   8.686  12.850  0.2674  0.1005 -0.0540
 8340W        W23809   9.720  13.745  13.913  0.0916  0.1279 -0.1795
 8341W        W23810  14.517   7.969  11.282 -0.0576  0.0279 -0.0225
 8342W        W23811  15.882   7.488   0.908 -0.1392  0.1321  0.1347
 8343W        W23812  15.448  13.805  15.109  0.0209  0.2314 -0.0194
 8344W        W23813   5.563  15.836  13.395 -0.2677  0.0015 -0.4035
 8345W        W23814  10.562  17.687   2.499 -0.2183  0.1610 -0.4604
 8346W        W23815   4.136  10.760   1.007  0.1691  0.0483 -0.0899
 8347W        W23816   0.320   6.660  13.596  0.1156  0.0216  0.1520
 8348W        W23817   9.219  15.148   4.594 -0.1047 -0.2281  0.0188
 8349W        W23818   7.150   4.731   5.260 -0.1567 -0.0898  0.4328
 8350W        W23819  11.013  16.228   0.566 -0.0474  0.0167 -0.1388
 8351W        W23820  13.800  13.616   2.514  0.1824  0.2654  0.0634
 8352W        W23821   3.588  17.092   3.085  0.3075  0.0749 -0.2493
 8353W        W23822   3.188   2.374  11.709  0.2478  0.1481 -0.2093
 8354W        W23823   5.336  12.812  12.603  0.1338  0.2256  0.0171
 8355W        W23824   1.235   3.576  13.305  0.2103  0.1706  0.0101
 8356W        W23825   0.830   1.591  11.846 -0.1012 -0.1772 -0.4511
 8357W        W23826  13.179  16.007   0.471 -0.0075 -0.0700 -0.0010
 8358W        W23827   1.358   9.348  14.156 -0.1677  0.1730  0.0180
 8359W        W23828  16.981   1.070  14.878  0.1120 -0.3742  0.0958
 8360W        W23829   4.630   4.696  11.311 -0.4989 -0.0110  0.2351
 8361W        W23830   0.479  13.444  11.830  0.0037 -0.5673  0.2238
 8362W        W23831   0.354  12.839  12.377 -0.2552  0.3432 -0.0768
 8363W        W23832  17.690   1.339   5.023  0.1495 -0.0866  0.1167
 8364W        W23833   0.813   7.615  11.074 -0.2433  0.1236  0.2685
 8365W        W23834   3.406   9.234  12.337  0.2334 -0.0984 -0.2101
 8366W        W23835  15.496   1.331   2.471  0.0423  0.0438 -0.1343
 8367W        W23836  10.554   0.518  10.588  0.0843  0.1239 -0.1346
 8368W        W23837   9.050  11.304  13.414  0.1060 -0.0047  0.1549
 8369W        W23838   7.040  17.812   4.512 -0.2723 -0.0673  0.1417
 8370W        W23839   5.121  17.660  11.653  0.0485  0.0951  0.0740
 8371W        W23840  11.168   5.953  10.465  0.0328  0.0762  0.1442
 8372W        W23841   2.943  10.141  15.475 -0.3183  0.0914  0.1629
 8373W        W23842   0.814   7.033   4.301 -0.1569  0.1180 -0.2629
 8374W        W23843  11.769   7.249  12.680  0.2298 -0.0348 -0.1537
 8375W        W23844  16.692  15.853  12.706  0.4487 -0.1790 -0.1128
 8376W        W23845  12.824  11.009   0.546  0.1646 -0.0905 -0.0734
 8377W        W23846   0.603   8.138  10.432 -0.0625  0.1654 -0.0145
 8378W        W23847  10.935   6.855  11.215  0.0467  0.0964  0.2750
 8379W        W23848  16.866   3.117   2.958 -0.0916  0.0788 -0.1665
 8380W        W23849   1.354   3.194   0.731 -0.0829  0.0484 -0.0548
 8381W        W23850   0.809   7.445  14.710 -0.0850 -0.5869 -0.0020
 8382W        W23851  16.407   7.687   0.902  0.2058 -0.2370 -0.0102
 8383W        W23852   4.080   6.145   1.010 -0.3339 -0.0047 -0.0120
 8384W        W23853  12.430  12.823  15.579 -0.2028  0.0878  0.2664
 8385W        W23854  10.989   3.950  14.059 -0.0758 -0.1412 -0.1390
 8386W        W23855   1.775   0.874  11.231  0.2501 -0.1021  0.1371
 8387W        W23856   5.340   4.347  14.216  0.3156 -0.0307 -0.0618
 8388W        W23857   1.782   3.984  13.853  0.0267  0.2077  0.2807
 8389W        W23858   9.925  14.382   4.409  0.1832  0.2370 -0.1201
 8390W        W23859  13.073   1.795  15.574 -0.0362  0.2285 -0.2164
 8391W        W23860   1.079   8.065  12.111  0.2418  0.1947 -0.1584
 8392W        W23861  17.803   2.696  11.327 -0.0087 -0.1700  0.2671
 8393W        W23862  14.113  16.930  13.162  0.1861  0.1849  0.0554
 8394W        W23863   9.131  10.436   0.722  0.1774  0.1087  0.3189
 8395W        W23864   1.029  18.294   5.014  0.2641 -0.2040 -0.3497
 8396W        W23865   6.677   5.967   0.390 -0.2474 -0.2439 -0.2668
 8397W        W23866   1.264   1.313   2.886  0.1857  0.3933  0.2761
 8398W        W23867  12.323  16.149   2.684  0.1557 -0.0101 -0.1929
 8399W        W23868   4.362  13.204   3.434 -0.0896  0.0421  0.2484
 8400W        W23869   5.445  13.595   4.442 -0.3409 -0.2439 -0.2020
 8401W        W23870   7.940   2.445  14.902  0.1559 -0.0108 -0.2196
 8402W        W23871   4.858  15.860   0.223  0.0891  0.1048 -0.0230
 8403W        W23872  12.161  13.172  15.134 -0.1104  0.1159 -0.0236
 8404W        W23873  10.836   7.622   5.107 -0.1985  0.3267  0.0560
 8405W        W23874   8.578  15.870   4.151  0.0553 -0.0699  0.0397
 8406W        W23875   0.065  17.454   3.790  0.0370  0.0814 -0.0003
 8407W        W23876  10.677   9.672   0.032  0.3943 -0.0289  0.0064
 8408W        W23877   3.214  13.414   4.013  0.0231  0.4313  0.0803
 8409W        W23878  12.251   8.841   4.536  0.0525 -0.2524 -0.2134
 8410W        W23879  12.463   5.188  13.828  0.1546 -0.0349 -0.0945
 8411W        W23880  11.484  10.216   0.871 -0.1234  0.3140 -0.1548
 8412W        W23881   9.128   7.242   3.439  0.0320  0.0318  0.2319
 8413W        W23882   9.895   8.357   1.561  0.0438 -0.1017 -0.1467
 8414W        W23883   7.618  16.896  14.892  0.2351  0.0505  0.2717
 8415W        W23884   5.507  17.127   2.828  0.1739  0.2329  0.2110
 8416W        W23885   3.620  10.676   0.149 -0.2449 -0.1834  0.1048
 8417W        W23886   8.376  14.952  12.405 -0.1316 -0.2044 -0.0463
 8418W        W23887  10.934  10.113  13.354 -0.1509 -0.2518  0.0857
 8419W        W23888  11.263  15.213   0.738 -0.0449 -0.2624  0.0439
 8420W        W23889  15.136  17.654  14.609  0.0152  0.1318  0.1218
 8421W        W23890   2.162   3.961   5.109  0.1714  0.0219  0.2193
 8422W        W23891   2.740   1.339  13.383 -0.0593 -0.1140 -0.1048
 8423W        W23892  17.450  12.697   2.297  0.1232  0.1772  0.0742
 8424W        W23893   2.096   1.158  14.276 -0.0859  0.2748  0.0430
 8425W        W23894   4.469  12.768   3.680 -0.0278  0.2189 -0.0584
 8426W        W23895  18.580   6.560  11.958  0.4471 -0.0631 -0.0763
 8427W        W23896  11.237   4.091  11.290 -0.1410 -0.1479 -0.1168
 8428W        W23897   0.173  13.763   0.578  0.0717  0.1443 -0.1995
 8429W        W23898   7.470  11.034   0.209 -0.1172 -0.0151  0.1338
 8430W        W23899  13.877  12.851   0.737  0.1691  0.2201  0.0339
 8431W        W23900  15.610  16.882  11.172  0.1661 -0.3968  0.0157
 8432W        W23901  13.129   4.951   4.629 -0.1560 -0.2478 -0.1564
 8433W        W23902  16.661   3.387   5.317  0.1740 -0.2615  0.0626
 8434W        W23903  12.942  12.518   4.256  0.1123  0.1331  0.1096
 8435W        W23904   9.889  12.269  15.664 -0.0633 -0.3514 -0.3397
 8436W        W23905  10.250  15.988   9.584  0.1629  0.0910 -0.0538
 8437W        W23906  16.243   2.787   4.748 -0.0656 -0.1572 -0.1428
 8438W        W23907   3.212  12.774  12.865  0.1019 -0.0744 -0.3439
 8439W        W23908  16.501   9.282  15.098 -0.3763 -0.0815  0.2619
 8440W        W23909   6.251  16.588   1.599  0.1237  0.0433 -0.3131
 8441W        W23910   4.626   7.180   4.172 -0.2868 -0.0256  0.1853
 8442W        W23911   9.112   3.886   5.032 -0.0045 -0.0546 -0.3886
 8443W        W23912  18.733  15.203   5.275 -0.0824  0.0366 -0.2716
 8444W        W23913   7.612   0.550   3.448  0.2176 -0.1688  0.0413
 8445W        W23914  10.190   5.074  14.777 -0.2521 -0.3355 -0.1297
 8446W        W23915  13.623  18.371  13.726  0.0764 -0.3700 -0.1190
 8447W        W23916   7.076  17.332   0.177  0.1173 -0.0292 -0.0283
 8448W        W23917   4.934   2.594  11.264  0.2580  0.2145 -0.0176
 8449W        W23918  11.772  12.349   3.017 -0.2026  0.1917  0.1000
 8450W        W23919   0.598  16.594   5.387 -0.0723  0.2214 -0.0949
 8451W        W23920  13.137  11.832  15.598 -0.2721  0.3416  0.3825
 8452W        W23921  12.369   9.577  11.790  0.6388 -0.0727  0.0881
 8453W        W23922   8.517  12.045   0.421 -0.6161 -0.1088 -0.1750
 8454W        W23923  10.201   1.827   5.336 -0.2524 -0.1094 -0.0407
 8455W        W23924  17.002  13.449   4.380 -0.1358  0.1633 -0.0292
 8456W        W23925  15.805   0.436   3.203 -0.2183  0.1772 -0.2922
 8457W        W23926   9.828   7.958   6.135  0.0048 -0.3882 -0.1578
 8458W        W23927   0.013   7.407   1.048  0.0285  0.2397 -0.4175
 8459W        W23928   1.809  17.318   3.495  0.2098 -0.0901 -0.0891
 8460W        W23929  18.081  18.219   1.301 -0.0002 -0.1194  0.1405
 8461W        W23930  13.498   1.914   3.130  0.0620 -0.0266 -0.1282
 8462W        W23931   3.664  15.873   4.665  0.0242 -0.0780 -0.1136
 8463W        W23932  11.721   7.977   1.673  0.1662 -0.1023 -0.0411
 8464W        W23933   3.973   2.474   0.101  0.2531 -0.0426 -0.0978
 8465W        W23934  15.032  14.378  13.753  0.3066  0.2411 -0.1069
 8466W        W23935  13.843   4.355   3.000 -0.1288  0.0303 -0.0769
 8467W        W23936   4.093  12.793   0.853  0.0027 -0.1594  0.1589
 8468W        W23937  15.289  10.441   4.468  0.0615  0.4651 -0.1259
 8469W        W23938   7.642  15.483   0.079 -0.0820 -0.1622 -0.0570
 8470W        W23939   2.157   9.077   9.737  0.2456 -0.2153  0.1438
 8471W        W23940   9.964   6.311  13.753 -0.1201 -0.3036 -0.2491
 8472W        W23941  13.841   2.079  15.101  0.2189 -0.0831 -0.0425
 8473W        W23942  15.581   4.281  10.618 -0.1047  0.2672 -0.1354
 8474W        W23943   2.324   5.152   2.067  0.2785 -0.0188 -0.0026
 8475W        W23944   5.196   7.426  13.651  0.1010 -0.4198  0.0826
 8476W        W23945   6.897   4.023   2.611  0.0394  0.2111 -0.1835
 8477W        W23946  14.479   7.486   3.721  0.2040 -0.1270  0.2921
 8478W        W23947  14.241  12.111   2.154  0.3928 -0.3545 -0.0403
 8479W        W23948  14.946  16.391  13.279  0.2755 -0.1159 -0.0037
 8480W        W23949   7.332   1.071   2.098 -0.3071  0.1178 -0.3693
 8481W        W23950  14.159   9.605  10.915 -0.1525  0.0283  0.0886
 8482W        W23951  11.283   2.601   2.725  0.1227  0.3519 -0.0640
 8483W        W23952  16.904   9.930   0.550 -0.1401  0.1211 -0.0438
 8484W        W23953   5.297   8.779   4.699  0.0978 -0.0975  0.0918
 8485W        W23954  10.691  18.201  12.749 -0.1324 -0.1371  0.1414
 8486W        W23955  11.765   5.741  12.523  0.3824 -0.1382 -0.1650
 8487W        W23956  15.634  18.548  14.799  0.2171  0.0298  0.1069
 8488W        W23957   7.239   9.832   0.014  0.0836  0.3481 -0.1887
 8489W        W23958   2.075   0.304  14.891  0.0951 -0.0428 -0.0402
 8490W        W23959  12.660   7.118  14.058 -0.0489  0.2828 -0.0683
 8491W        W23960   7.639  11.417  15.476 -0.2264 -0.2038  0.1410
 8492W        W23961   5.347  16.203   3.523  0.0288  0.0807 -0.1395
 8493W        W23962   1.558  15.268  13.263  0.0304  0.1737 -0.0859
 8494W        W23963   2.698  16.706   2.770 -0.1868  0.3179  0.0240
 8495W        W23964  14.472  16.342   4.396 -0.3572 -0.5430  0.3542
 8496W        W23965   8.195  16.448  14.153 -0.0201 -0.1436  0.0802
 8497W        W23966   8.874   5.628  15.334 -0.1085 -0.0331  0.0120
 8498W        W23967  15.063  16.967   3.181  0.1867 -0.4582 -0.0125
 8499W        W23968   1.655   9.232   2.670  0.1984  0.1311  0.0483
 8500W        W23969  18.196  15.824   0.814  0.1495 -0.1972  0.4175
 8501W        W23970  12.558   8.509   3.667 -0.0628  0.2640 -0.3986
 8502W        W23971  17.308   7.970   5.400 -0.0324 -0.0209  0.2749
 8503W        W23972  15.915   6.780   0.004 -0.1333  0.0675 -0.1419
 8504W        W23973   9.693   5.676   2.734 -0.0030  0.0579  0.0097
 8505W        W23974   9.887  18.646  10.794  0.0432 -0.0082 -0.1269
 8506W        W23975   8.142  13.253  14.026  0.2081  0.0172 -0.3796
 8507W        W23976  10.564   3.024   3.647  0.1649 -0.5361 -0.0350
 8508W        W23977  15.219   3.197   4.079  0.3359  0.2894  0.2004
 8509W        W23978   1.444  14.586  12.556 -0.0702 -0.3174  0.1268
 8510W        W23979   3.846  17.422  11.976  0.0613 -0.0134  0.1006
 8511W        W23980  11.822  17.494   4.254 -0.0582  0.1414 -0.1504
 8512W        W23981   4.605  11.355   5.599  0.0737 -0.2334 -0.0497
 8513W        W23982   8.931  12.645   5.181 -0.3251  0.0046 -0.1615
 8514W        W23983   5.852  13.850  15.471  0.2499 -0.2194 -0.0470
 8515W        W23984   5.128   2.274  12.351  0.0206 -0.1076 -0.1417
 8516W        W23985  13.563  14.845  10.060  0.2832 -0.0106 -0.1028
 8517W        W23986   6.779   7.850  14.046  0.0153  0.2482 -0.3351
 8518W        W23987  13.317   9.769   0.043 -0.2674 -0.0637  0.1903
 8519W        W23988   0.840  17.053   0.216 -0.0103 -0.1794 -0.1996
 8520W        W23989  17.874  13.959   4.624  0.0703  0.0954 -0.3193
 8521W        W23990   4.376  10.878   2.984 -0.1773 -0.1758  0.2598
 8522W        W23991   9.982  18.376  13.888  0.0635 -0.0721  0.2879
 8523W        W23992   2.356  11.244  10.791 -0.1945  0.0110  0.2398
 8524W        W23993  13.233   7.387   0.060  0.2843 -0.2091 -0.2857
 8525W        W23994  13.116   3.827  15.189 -0.0226 -0.0263 -0.1554
 8526W        W23995   8.706  10.307   0.956  0.1557 -0.0947  0.2576
 8527W        W23996  10.551   1.900   0.850  0.2483 -0.0652  0.1501
 8528W        W23997  14.928   0.407  12.128  0.0913  0.0469  0.0055
 8529W        W23998  12.593   9.991  13.693  0.0315  0.0836 -0.0534
 8530W        W23999  15.706  11.566   4.346 -0.0151  0.1484  0.1962
 8531W        W24000  18.025   0.733  15.435  0.1137 -0.2572  0.0967
 8532W        W24001  11.725  18.730  14.275  0.1349  0.1362 -0.1954
 8533W        W24002   0.065   1.786   0.389  0.1841 -0.4093  0.1740
 8534W        W24003  17.365   9.456   2.655 -0.1479  0.0730  0.2083
 8535W        W24004   0.523  17.520  12.340  0.2697  0.4462 -0.4394
 8536W        W24005   6.516   4.992  12.412  0.2861  0.0244  0.1404
 8537W        W24006  11.252   2.497   4.741 -0.0665  0.0990  0.0260
 8538W        W24007  15.265   2.557   0.012  0.2172  0.0766 -0.1374
 8539W        W24008   9.914  17.983  13.620  0.0637 -0.0128  0.1447
 8540W        W24009   9.494   9.764   3.193 -0.0814  0.0250  0.1273
 8541W        W24010  13.723   2.061   0.320 -0.2649 -0.0469  0.4248
 8542W        W24011  14.959  11.465   0.083 -0.0237 -0.1215  0.0907
 8543W        W24012   3.576   5.158   9.636  0.0297  0.1772 -0.0455
 8544W        W24013  11.955   7.709  12.565  0.0658  0.1066 -0.1084
 8545W        W24014   9.259  18.303  11.527 -0.3518  0.0775 -0.1810
 8546W        W24015  11.278  14.888  13.167 -0.3388  0.2959 -0.1648
 8547W        W24016   4.705  15.787   2.534 -0.0936 -0.0292  0.4541
 8548W        W24017  15.388  11.519   0.869 -0.1525 -0.1519  0.2524
 8549W        W24018   0.240  10.920   0.166 -0.1223 -0.0563  0.0107
 8550W        W24019   0.010   9.774   3.937  0.1669  0.0819 -0.1105
 8551W        W24020  12.818   1.901  11.065 -0.3081 -0.3072 -0.1303
 8552W        W24021   2.102   1.274   5.019  0.2206 -0.0757  0.0028
 8553W        W24022  16.693  17.470   2.856  0.0496  0.0979  0.0969
 8554W        W24023  13.917  13.443   2.073 -0.6363 -0.5582 -0.1123
 8555W        W24024  16.186   1.212   0.304 -0.0347  0.2810  0.0691
 8556W        W24025   3.264  16.499  13.292 -0.2353  0.0289 -0.0982
 8557W        W24026  14.713   2.248  12.315  0.1978  0.0399 -0.0369
 8558W        W24027  11.407  10.238  14.532 -0.2637  0.0429  0.1159
 8559W        W24028   2.446   3.043   1.649 -0.3391 -0.1630  0.4820
 8560W        W24029   9.199   5.426   2.134  0.0138 -0.0833  0.2976
 8561W        W24030   8.238   5.554  13.097  0.1059  0.0603  0.0423
 8562W        W24031   1.233   2.292   4.740  0.3849 -0.1249 -0.2364
 8563W        W24032  17.798   1.069   4.633 -0.2141  0.0529 -0.0303
 8564W        W24033  10.136   5.539  14.796 -0.2541 -0.3119  0.1395
 8565W        W24034   4.602   1.504  12.347  0.2883 -0.1774  0.0443
 8566W        W24035  13.531  12.755   0.006 -0.0107  0.3385 -0.1408
 8567W        W24036  11.647   8.127  13.471 -0.1248  0.1510 -0.0831
 8568W        W24037   6.311   4.513  10.975 -0.1604 -0.0189  0.0906
 8569W        W24038   3.576  15.794   1.341 -0.1303 -0.0287  0.0567
 8570W        W24039  18.253   1.290  12.561 -0.0404 -0.1206  0.1295
 8571W        W24040   8.216  14.736   4.674 -0.0391 -0.1518 -0.0183
 8572W        W24041  13.643   2.229  12.219  0.0008  0.0877 -0.3363
 8573W        W24042   6.724  17.229  13.155 -0.2540  0.1043 -0.0443
 8574W        W24043  18.168   6.421  14.521 -0.2173  0.1521  0.3637
 8575W        W24044  15.763  18.198   4.067 -0.1114  0.0243  0.0020
 8576W        W24045   9.677   3.567   0.511 -0.1584  0.1165 -0.1817
 8577W        W24046   5.328   5.118   2.117  0.3829  0.1400 -0.1858
 8578W        W24047   9.471  10.171  15.095  0.0955 -0.2071  0.2848
 8579W        W24048  14.787  11.918  13.026  0.4204  0.2736 -0.0212
 8580W        W24049   5.471  11.181  13.557  0.0300 -0.2356 -0.1664
 8581W        W24050   0.302   4.211   5.073 -0.1509 -0.1401 -0.0069
 8582W        W24051   5.381   0.379  11.438  0.3545  0.2385 -0.0657
 8583W        W24052  13.279   3.088  13.246  0.2339  0.4128  0.1488
 8584W        W24053  14.352  12.204  13.239  0.3499  0.0832  0.3961
 8585W        W24054   4.046  11.915   1.332 -0.2211 -0.1809 -0.0190
 8586W        W24055   3.202   4.717  15.346  0.2778 -0.1616 -0.2663
 8587W        W24056  17.903  17.130   4.691  0.2118 -0.0728  0.0702
 8588W        W24057   8.397  18.084   1.959 -0.0216 -0.0107 -0.1591
 8589W        W24058  16.523   2.424   0.700 -0.4437  0.0260 -0.1224
 8590W        W24059  13.945  15.772   4.296 -0.0806  0.1870  0.2441
 8591W        W24060   9.888  18.229   5.030  0.2268 -0.0904 -0.2214
 8592W        W24061   1.780   2.884  13.813 -0.0747 -0.0262  0.0646
 8593W        W24062   4.055   0.334   0.615 -0.1567 -0.1556 -0.1339
 8594W        W24063  13.153   9.772  11.696 -0.2492  0.0776 -0.2456
 8595W        W24064   3.099   2.760  11.469  0.0490  0.0383 -0.0925
 8596W        W24065   0.262  13.891   3.895 -0.0201  0.0433 -0.2152
 8597W        W24066   9.735  12.413  15.022 -0.2822 -0.4045 -0.2150
 8598W        W24067   6.090   8.489  11.230 -0.1982  0.5593  0.2107
 8599W        W24068  17.627   7.575   5.416 -0.2169 -0.0696  0.3627
 8600W        W24069   4.186  15.964  12.139  0.4398  0.0017 -0.2070
 8601W        W24070   9.435  13.651   4.903  0.2312 -0.1613 -0.0634
 8602W        W24071   0.355   0.401   0.669  0.0860 -0.0795  0.4069
 8603W        W24072  10.448  16.065   3.448  0.1033 -0.1312 -0.2340
 8604W        W24073  12.145   8.955   0.399 -0.0635  0.0362 -0.2190
 8605W        W24074   7.505  11.583   5.048  0.1292  0.0942 -0.1480
 8606W        W24075   5.277  11.392  13.103  0.0356  0.1666 -0.0613
 8607W        W24076  13.678  13.879   3.083 -0.0961  0.1189 -0.0195
 8608W        W24077   8.819   4.163   0.560  0.1535  0.1045  0.3446
 8609W        W24078   6.599   1.829   1.033  0.0163 -0.2680  0.0924
 8610W        W24079  15.746  13.041   2.335  0.0043 -0.1110  0.2136
 8611W        W24080   7.854  10.434   2.968  0.0097 -0.0070  0.2662
 8612W        W24081  18.499  11.409   5.613 -0.1310  0.0122 -0.0731
 8613W        W24082   8.540  10.104   0.233  0.0399 -0.1241 -0.1727
 8614W        W24083  13.885   4.987   3.560  0.5055  0.2742  0.2636
 8615W        W24084   5.671   7.045  11.581  0.0330 -0.2343 -0.2030
 8616W        W24085  10.561   4.456   3.976 -0.3171  0.1229  0.2849
 8617W        W24086   9.491  16.253  11.395  0.2560 -0.3311 -0.0673
 8618W        W24087  13.954  16.264  14.364  0.3227 -0.1377  0.2676
 8619W        W24088  11.204   8.144   0.791  0.1552  0.1719 -0.3397
 8620W        W24089   6.621  16.463   3.315  0.0269  0.1596  0.0246
 8621W        W24090   4.926   4.066  13.259 -0.3232 -0.1800 -0.0789
 8622W        W24091  14.558  13.079   0.062  0.3834  0.2612  0.1531
 8623W        W24092   1.815   8.663   2.357  0.0868 -0.0609  0.0350
 8624W        W24093  15.744  10.788   2.281  0.2334 -0.2860  0.0438
 8625W        W24094   3.924   9.299  12.994 -0.0644 -0.3340 -0.1970
 8626W        W24095  12.670   8.483   5.203  0.0753 -0.1573 -0.1719
 8627W        W24096  15.375  13.174   2.903  0.1797 -0.1625  0.1328
 8628W        W24097   8.185   0.498  12.386 -0.0156 -0.0334  0.0695
 8629W        W24098   9.845  16.271  12.395  0.3845  0.0391 -0.1871
 8630W        W24099  17.003  16.576  15.089 -0.0187  0.4107  0.3651
 8631W        W24100  12.152   4.441  11.864 -0.2176  0.0670  0.1321
 8632W        W24101   6.178  13.919  11.588  0.1759 -0.0238  0.0271
 8633W        W24102   9.217  12.570  15.071  0.0454 -0.0509 -0.0217
 8634W        W24103   8.179   2.852   5.182  0.0186  0.0655  0.1795
 8635W        W24104  18.210   9.506  12.140 -0.2032 -0.2609 -0.0817
 8636W        W24105   2.689  18.025   2.773 -0.1376 -0.1571  0.2921
 8637W        W24106   4.063   2.247   0.857 -0.1793  0.0871  0.0051
 8638W        W24107  13.249   9.854  13.024  0.4726 -0.4583  0.0625
 8639W        W24108  14.742  17.233  14.586 -0.0453  0.1421 -0.1001
 8640W        W24109  16.413  15.913  15.550  0.1582 -0.0915 -0.0903
 8641W        W24110  14.878   7.248  13.957 -0.0151  0.2061 -0.1233
 8642W        W24111   4.825  12.368   4.557 -0.0416 -0.1643  0.1356
 8643W        W24112  17.061   1.493  11.113 -0.1890 -0.1416  0.1470
 8644W        W24113   5.373  13.849   1.173  0.3495 -0.3937 -0.3038
 8645W        W24114  10.383   8.222  14.535  0.1753 -0.1167  0.1291
 8646W        W24115   2.102   6.968  12.044  0.3801  0.0404 -0.2580
 8647W        W24116   3.584   5.373   3.677 -0.2071  0.0929 -0.2795
 8648W        W24117   6.704  17.274  15.103 -0.2092 -0.1938  0.1634
 8649W        W24118   8.549   7.879   3.015 -0.1102 -0.1027  0.3478
 8650W        W24119   3.469   7.571   2.158  0.1791 -0.2018  0.0053
 8651W        W24120   7.101  14.969   4.882  0.2564 -0.0267  0.1537
 8652W        W24121   0.000   9.141  13.342  0.1039 -0.2787 -0.0252
 8653W        W24122  13.710   2.583  10.504  0.1976 -0.1644  0.0189
 8654W        W24123   4.410  11.926   3.441  0.0311 -0.2671 -0.1713
 8655W        W24124  10.322   7.912  14.153  0.0041  0.0941  0.0309
 8656W        W24125  11.370   0.533  14.843  0.0922  0.0970 -0.4223
 8657W        W24126  10.773   6.454   1.396  0.1130 -0.0764  0.2285
 8658W        W24127   1.466   8.874   4.848  0.0882  0.1730 -0.0327
 8659W        W24128  12.142   3.919  12.531  0.1931 -0.1310 -0.2112
 8660W        W24129  15.068   6.913   2.576  0.0505  0.1182  0.2636
 8661W        W24130  10.990   1.995   1.055 -0.0893 -0.0002 -0.2776
 8662W        W24131   9.443   6.080   1.259 -0.0764 -0.1464  0.1048
 8663W        W24132  16.241  13.187   2.581  0.0737 -0.2987  0.2844
 8664W        W24133  10.385   7.843  11.931  0.1353 -0.3751  0.2123
 8665W        W24134   5.963  15.564   3.138 -0.1060  0.1050  0.3036
 8666W        W24135   1.861  13.649   4.949  0.0555  0.0538 -0.1443
 8667W        W24136  14.327   3.419  11.179 -0.0602  0.2430  0.0049
 8668W        W24137   7.994   1.137   1.826  0.0668  0.1853 -0.1026
 8669W        W24138   6.511   7.165  13.396 -0.0736 -0.1144  0.0992
 8670W        W24139   5.453   1.484  12.137  0.0611  0.0993 -0.0094
 8671W        W24140  12.341   3.415  12.714  0.0150 -0.0169  0.3413
 8672W        W24141   5.794  15.418  10.786 -0.3194  0.0660 -0.0356
 8673W        W24142  11.861  17.508  14.754 -0.1657  0.0852  0.1791
 8674W        W24143  11.257  16.577  13.791  0.2315  0.2535  0.0294
 8675W        W24144   1.189  14.420  14.260  0.0085  0.1849 -0.3920
 8676W        W24145  14.071  10.935  12.528 -0.0414 -0.1201  0.2586
 8677W        W24146  12.020   3.792  13.028 -0.1525 -0.2713  0.1164
 8678W        W24147  11.803   1.559   3.350  0.1556 -0.1321  0.2120
 8679W        W24148   8.632  15.187  14.980 -0.0009 -0.2953 -0.2068
 8680W        W24149  18.330  10.720  13.943  0.1091 -0.0305  0.1786
 8681W        W24150   4.814  10.267   0.349  0.0866  0.0767 -0.4133
 8682W        W24151   3.840   2.453  12.974  0.0837 -0.0419 -0.2572
 8683W        W24152  13.656   6.555   2.355  0.1116 -0.3392  0.2451
 8684W        W24153   7.696   0.568   2.480 -0.1923  0.1083  0.0089
 8685W        W24154  10.376   4.347   2.080  0.2452  0.2371  0.0912
 8686W        W24155   9.817  16.263   3.725  0.0481 -0.1955 -0.1738
 8687W        W24156   6.227   4.247   2.970 -0.0557  0.0352 -0.1959
 8688W        W24157   9.253  15.564  11.750 -0.4517 -0.0125 -0.1162
 8689W        W24158   3.527  12.834   2.011  0.0491 -0.1645  0.0352
 8690W        W24159   7.592   9.080   1.772  0.0901 -0.4816 -0.2207
 8691W        W24160  11.399   5.153  10.697 -0.0646  0.1941 -0.1467
 8692W        W24161   9.557   9.719  14.028 -0.1210  0.3235  0.0453
 8693W        W24162  17.893  11.106  12.698  0.1187  0.1459  0.3533
 8694W        W24163  15.193  15.627   3.479 -0.2742 -0.0745 -0.2746
 8695W        W24164  13.195   3.865  12.476 -0.0451  0.0655  0.0003
 8696W        W24165   4.528  15.335   0.784  0.0185  0.2418 -0.3166
 8697W        W24166  13.906   9.830   2.622  0.1089 -0.0721 -0.0134
 8698W        W24167   6.739   2.102   2.846 -0.3322  0.0919  0.1785
 8699W        W24168   5.902   3.611   9.496 -0.2710 -0.0552 -0.2913
 8700W        W24169  11.405  16.952   9.501 -0.2762 -0.1052 -0.0023
 8701W        W24170   1.132  11.446  13.172 -0.1349 -0.1513  0.0643
 8702W        W24171   2.976  13.006  13.351 -0.1639 -0.2573 -0.0220
 8703W        W24172   9.428   8.080  15.430  0.0124  0.1460 -0.0642
 8704W        W24173   5.905  17.838   3.399 -0.0444 -0.0227 -0.1373
 8705W        W24174  17.350   0.037  13.320 -0.1880  0.1674 -0.1637
 8706W        W24175  17.122   7.898  14.745 -0.0138  0.1514 -0.0575
 8707W        W24176  11.951   8.125   4.045 -0.1117 -0.2916  0.2544
 8708W        W24177   4.946  16.728   1.666 -0.0133  0.0459  0.2585
 8709W        W24178  12.853  13.772  12.484 -0.0665  0.2081  0.1206
 8710W        W24179   0.792   2.976   4.747 -0.2160  0.0718  0.0855
 8711W        W24180   2.994  10.767  14.720 -0.2671 -0.0334  0.0864
 8712W        W24181   7.124   5.461  13.721  0.0837 -0.1743 -0.1314
 8713W        W24182  18.065  11.070   0.891  0.2198  0.1172  0.1444
 8714W        W24183  11.834  11.922  11.665 -0.2359 -0.1421 -0.1314
 8715W        W24184   5.068  10.587   2.660  0.0491  0.1628 -0.3473
 8716W        W24185   1.886   0.619   5.356  0.0558  0.0787  0.1764
 8717W        W24186  11.058   5.677   4.371  0.2078 -0.2639 -0.4304
 8718W        W24187  10.769  14.221   2.628  0.1636  0.1837  0.2320
 8719W        W24188   0.694   9.393   2.214  0.4536  0.2464  0.3700
 8720W        W24189  11.068  14.588  14.921 -0.1229 -0.2166  0.0642
 8721W        W24190  13.987   7.370  14.109 -0.0501  0.5663  0.1789
 8722W        W24191  10.928   6.252  12.902 -0.0264  0.0146  0.1220
 8723W        W24192  12.037  11.583   2.943  0.0235  0.1485  0.1015
 8724W        W24193   6.971   3.421   4.985 -0.0264 -0.0300  0.2211
 8725W        W24194  10.349   7.712  15.402 -0.3356  0.2457 -0.1258
 8726W        W24195  14.179  13.868   1.547  0.0239  0.0579 -0.2570
 8727W        W24196   6.819  18.508  13.170 -0.1337 -0.1255  0.2746
 8728W        W24197   9.010   6.022  15.082  0.2709 -0.1446  0.0747
 8729W        W24198  18.073  12.820  12.427  0.1289 -0.0346  0.0605
 8730W        W24199   2.430   3.531   5.221  0.3990 -0.0396 -0.0030
 8731W        W24200   1.483  10.688   4.479  0.0201  0.0016  0.0899
 8732W        W24201   1.381  12.701  11.556  0.4174  0.1889  0.0434
 8733W        W24202  11.599   9.541   4.077 -0.3066 -0.0417 -0.0808
 8734W        W24203  18.200   9.300   1.687 -0.2063  0.0688 -0.2166
 8735W        W24204  17.055  13.457   1.919 -0.0356  0.0647  0.2165
 8736W        W24205   0.802   6.172   3.602  0.0068  0.0129  0.0864
 8737W        W24206  12.175  14.768   5.084 -0.1826 -0.0489  0.0812
 8738W        W24207  14.568   3.366  10.627 -0.2637  0.3654  0.2743
 8739W        W24208  11.506   1.510   0.673  0.0724 -0.2706  0.0739
 8740W        W24209   5.492  10.323   3.219 -0.2059 -0.0958  0.4449
 8741W        W24210   6.756  12.796  13.170 -0.0187 -0.0048 -0.0214
 8742W        W24211   1.102   2.689   0.626  0.1006  0.2480  0.0964
 8743W        W24212   3.931   5.968  13.128  0.1149 -0.0020  0.0812
 8744W        W24213   7.295  11.481  10.766 -0.0652 -0.3748 -0.1517
 8745W        W24214   2.912   0.037   2.472 -0.0359 -0.2166 -0.0189
 8746W        W24215  17.749  10.159   1.782 -0.1827  0.3363 -0.1667
 8747W        W24216  17.093  14.655   5.576  0.6346 -0.2685 -0.0933
 8748W        W24217  10.878   8.587   4.920  0.0274  0.0525 -0.0044
 8749W        W24218  11.382   5.158   4.896 -0.0064 -0.3644 -0.0496
 8750W        W24219   6.154  10.531   2.632 -0.0414 -0.3744 -0.1266
 8751W        W24220  14.501   4.367   4.614  0.0766  0.0649  0.0319
 8752W        W24221  16.621   3.004   0.410 -0.2431  0.1157 -0.2631
 8753W        W24222   1.506   1.987   1.410  0.2345 -0.4041 -0.1692
 8754W        W24223  10.447  16.209  15.356 -0.0538 -0.1721 -0.2111
 8755W        W24224   8.458   0.485  13.510  0.0236 -0.0835 -0.2602
 8756W        W24225  14.257   6.136  13.831  0.1262  0.3279  0.0815
 8757W        W24226  16.826   5.770  12.147 -0.0895  0.3678  0.0526
 8758W        W24227   7.739  15.411  11.609 -0.2380 -0.1317 -0.0550
 8759W        W24228  15.297  12.063  15.536 -0.1233 -0.1482  0.2513
 8760W        W24229   8.698  15.361   3.179 -0.0352  0.1698  0.0438
 8761W        W24230   6.510   8.864   1.701  0.1603 -0.0481  0.1394
 8762W        W24231   4.756  17.595   0.223 -0.0699 -0.1520 -0.0698
 8763W        W24232   0.315  13.543   5.344 -0.2977  0.1400 -0.0620
 8764W        W24233   3.869  10.751  13.450  0.0148  0.0584  0.2764
 8765W        W24234  15.969   4.969  13.675 -0.0946 -0.3014  0.1226
 8766W        W24235  18.071   1.630   1.473  0.1104 -0.0061  0.0857
 8767W        W24236  10.317  13.875  13.814 -0.2082 -0.1019  0.4302
 8768W        W24237   9.319   7.663  10.161  0.1235  0.2863 -0.1401
 8769W        W24238  12.704   0.594  11.186  0.0051 -0.1859 -0.1354
 8770W        W24239   7.501  15.345   3.534  0.1502 -0.2242  0.0878
 8771W        W24240  16.288  16.089  11.974 -0.1200 -0.1694 -0.3200
 8772W        W24241  17.334  16.177  11.093 -0.3507  0.0204 -0.0172
 8773W        W24242  14.348  13.338   1.667  0.0078  0.2295  0.3023
 8774W        W24243   6.326   5.143  11.967  0.2765 -0.0744  0.1290
 8775W        W24244   4.468  10.883  15.408 -0.2443  0.1477  0.1429
 8776W        W24245  18.616  13.973   4.727  0.1389 -0.0363 -0.0469
 8777W        W24246   7.538   0.415  11.679  0.3611 -0.1973 -0.0998
 8778W        W24247  12.203   7.557  14.999 -0.0919  0.2442  0.0947
 8779W        W24248  10.692  12.741   1.704 -0.0994 -0.3158 -0.2691
 8780W        W24249   6.980   0.221   2.885 -0.1272 -0.0850  0.0446
 8781W        W24250  16.885   3.003   5.516  0.1791  0.0835 -0.4345
 8782W        W24251  16.587   8.034  14.652 -0.3505 -0.0604  0.2307
 8783W        W24252   3.757   5.830   4.420 -0.3634  0.0279 -0.0262
 8784W        W24253   2.528  15.331  15.112  0.2030  0.0641 -0.0079
 8785W        W24254  17.911   9.433  14.979  0.2083 -0.3007 -0.0812
 8786W        W24255   4.559  14.925   4.540  0.3102  0.2614 -0.0054
 8787W        W24256  16.650   3.516   1.644 -0.0129 -0.3911  0.1793
 8788W        W24257  15.134  13.287  13.585  0.1486 -0.2178 -0.2199
 8789W        W24258   0.976  12.366  11.768 -0.0872 -0.2252 -0.3120
 8790W        W24259  11.038   2.950   2.982 -0.3268  0.1696  0.0385
 8791W        W24260   0.790   4.034   5.228 -0.2925  0.0041  0.2078
 8792W        W24261  10.762   1.090  12.478 -0.1067  0.1016  0.2644
 8793W        W24262   7.436  18.710  11.727  0.3038 -0.1827  0.1777
 8794W        W24263   2.017  12.802   0.021  0.2467 -0.0361 -0.0764
 8795W        W24264  18.240   4.656  12.654 -0.2638 -0.0710  0.0328
 8796W        W24265   0.164  12.462   3.131 -0.1056  0.2661  0.0601
 8797W        W24266  14.787   7.565   4.341  0.2693  0.2875 -0.0317
 8798W        W24267  11.035  11.432  11.189 -0.1067 -0.2249  0.0723
 8799W        W24268  15.875   1.308   0.721 -0.1305 -0.1225  0.1559
 8800W        W24269   1.666   4.464   4.668 -0.1926  0.0380  0.4242
 8801W        W24270   9.780   8.786   2.274  0.1365 -0.1854  0.0050
 8802W        W24271   4.518   1.715  14.027 -0.2469 -0.3399  0.0401
 8803W        W24272  15.914  14.047  14.517 -0.0661 -0.2797 -0.1156
 8804W        W24273  18.214   9.848  14.597 -0.2307 -0.0527 -0.4490
 8805W        W24274   9.142  11.994   3.210  0.0006 -0.0751 -0.1267
 8806W        W24275  14.115  12.685   5.019  0.0306 -0.1984  0.1921
 8807W        W24276   3.020   2.779   3.603  0.1395  0.2481 -0.3001
 8808W        W24277  15.139  12.369   4.299  0.0350  0.1030 -0.2480
 8809W        W24278   3.018  10.870   1.861  0.2950 -0.1857 -0.0895
 8810W        W24279   4.544  12.711  11.507  0.0719 -0.2971 -0.1536
 8811W        W24280   5.827  10.725  11.528  0.0118 -0.2166  0.0551
 8812W        W24281   7.092  11.991   1.040 -0.0113 -0.2499 -0.0911
 8813W        W24282  14.260  14.617  11.417 -0.2182  0.3290  0.0453
 8814W        W24283  16.891   1.044   1.442  0.3651 -0.0761  0.4529
 8815W        W24284  12.508  18.066  14.453  0.2706  0.1448  0.0360
 8816W        W24285  16.243  16.669   1.940  0.2500 -0.3513 -0.0471
 8817W        W24286   2.021  16.250  15.559  0.0703  0.0016 -0.0757
 8818W        W24287  13.587   2.845   2.086  0.0279  0.4016  0.2923
 8819W        W24288   9.626  14.677   9.982  0.1822 -0.1904  0.2237
 8820W        W24289   9.766  16.900   0.521  0.4552  0.1825  0.1165
 8821W        W24290   9.287   7.452  13.028  0.0036  0.1207  0.0197
 8822W        W24291   8.661  13.613  11.701 -0.1145  0.3319 -0.1642
 8823W        W24292  10.588  16.701  11.988  0.0188 -0.0331  0.1248
 8824W        W24293   3.309  14.576   5.037 -0.3186  0.1363 -0.2539
 8825W        W24294   2.576  17.607   2.513 -0.0312 -0.3089 -0.1003
 8826W        W24295   6.176   3.457  15.663 -0.2232 -0.1031 -0.2019
 8827W        W24296   2.618   2.853   2.149  0.3213 -0.1273 -0.2860
 8828W        W24297   9.473  16.543  10.484 -0.0550 -0.2188  0.0751
 8829W        W24298  12.270  13.516   3.725 -0.1492  0.1898  0.0046
 8830W        W24299   3.221  18.349  15.609  0.2421  0.5233  0.1975
 8831W        W24300  11.299   7.301   2.611  0.0762  0.3237 -0.0224
 8832W        W24301  14.694  17.398   1.146 -0.3409 -0.0468 -0.0287
 8833W        W24302   9.252   4.390  13.524 -0.2223  0.1557  0.1658
 8834W        W24303   5.204   8.480   9.530 -0.2303  0.2218  0.1346
 8835W        W24304  13.739   4.477  15.518  0.3283 -0.0317 -0.1281
 8836W        W24305   6.644  13.023   3.528 -0.1883  0.1077 -0.2824
 8837W        W24306  15.456  13.674   4.978  0.2285  0.1809 -0.0248
 8838W        W24307   4.181  13.564   4.803  0.1795  0.0242 -0.0097
 8839W        W24308   6.629   0.003   2.027  0.1493 -0.1954 -0.1265
 8840W        W24309  15.248   1.409  11.714  0.0268 -0.4304  0.2450
 8841W        W24310  17.859   3.628  15.590 -0.0731 -0.0217 -0.3316
 8842W        W24311  13.170  13.575   2.462  0.0992  0.0338  0.1085
 8843W        W24312   4.202   2.022  11.024  0.2585  0.4906 -0.0658
 8844W        W24313   1.150  16.675   1.713 -0.1420  0.2775 -0.0465
 8845W        W24314   2.953  15.258   4.394  0.0774 -0.0964 -0.1116
 8846W        W24315  18.223  12.522  11.649 -0.0582 -0.3004 -0.0403
 8847W        W24316  11.388  12.207   2.675 -0.1548 -0.2168 -0.1295
 8848W        W24317  14.755   1.202   3.175  0.0993 -0.1414 -0.3033
 8849W        W24318   1.309  10.146  13.663  0.0400 -0.3369 -0.1816
 8850W        W24319   9.314   3.250   4.178 -0.3010  0.0904  0.0476
 8851W        W24320  13.519   5.442   3.434 -0.2096 -0.0875 -0.1362
 8852W        W24321   7.905  14.313   4.867 -0.3011  0.2019 -0.1981
 8853W        W24322  13.837  16.594  13.479  0.2846  0.2394 -0.0807
 8854W        W24323  17.176  15.653   2.046 -0.0834 -0.1149  0.0766
 8855W        W24324  13.982   2.064   1.109  0.3861 -0.2468  0.0468
 8856W        W24325   2.878  10.819   0.391  0.2387 -0.2276  0.0240
 8857W        W24326   3.657   6.441   4.863  0.0004 -0.2785  0.3326
 8858W        W24327   4.570   6.661  11.894 -0.3826 -0.1292 -0.2036
 8859W        W24328   2.588   8.309  14.250  0.0845  0.4204  0.0032
 8860W        W24329  11.470   7.473  11.191  0.2229  0.0163  0.2707
 8861W        W24330   5.660   4.916  11.547  0.1272  0.1921 -0.0426
 8862W        W24331  13.259  17.822   4.588 -0.2572  0.1815 -0.0301
 8863W        W24332   1.251  12.401   5.380 -0.0180 -0.0092 -0.0601
 8864W        W24333   9.198   7.728   3.433  0.1151 -0.0687 -0.3529
 8865W        W24334  15.053   7.705   3.935 -0.0281 -0.2432 -0.1876
 8866W        W24335   9.365  17.679  15.505  0.0169  0.0487 -0.1897
 8867W        W24336   4.004  16.424   2.101 -0.1213 -0.0751  0.1227
 8868W        W24337   6.605  17.482  15.602 -0.3971 -0.2037  0.3160
 8869W        W24338   1.393   3.070   1.498 -0.0834  0.0756  0.2419
 8870W        W24339   6.392  13.480  13.836 -0.4652 -0.1163  0.1612
 8871W        W24340  13.018   3.028  12.158  0.3707 -0.1049 -0.0106
 8872W        W24341  12.331  17.547   4.211  0.0391 -0.2998 -0.0026
 8873W        W24342  16.947  10.049  15.246  0.0589 -0.0019 -0.1019
 8874W        W24343  17.000   4.104  11.684  0.0169 -0.2489  0.1793
 8875W        W24344   1.421   8.367   0.626  0.1882 -0.2494 -0.1193
 8876W        W24345  14.927   4.489  13.509 -0.2004  0.0692 -0.0674
 8877W        W24346  17.336  14.662   4.259  0.1689  0.0687  0.0126
 8878W        W24347  13.751   7.533   2.748  0.0515  0.3490  0.0362
 8879W        W24348  11.089  17.834   2.356  0.1705 -0.0828 -0.2045
 8880W        W24349   6.508   9.643  11.260  0.0844  0.1974 -0.3622
 8881W        W24350   7.136  17.066   4.847  0.0166  0.4811 -0.0761
 8882W        W24351  14.444  15.260  11.930 -0.0663 -0.0762  0.0444
 8883W        W24352   8.573  11.791   2.209  0.0624  0.0643  0.0894
 8884W        W24353  18.278   8.293  13.538 -0.0321 -0.1065 -0.1034
 8885W        W24354   0.067   3.731   0.904 -0.2021  0.2331 -0.0044
 8886W        W24355   0.822  18.460   3.258  0.1935 -0.0827 -0.2580
 8887W        W24356  17.856   9.504  11.787 -0.0410  0.2043 -0.3616
 8888W        W24357  16.680   5.326   1.001 -0.3420  0.0156 -0.1863
 8889W        W24358   7.857  10.528   2.487  0.2130 -0.0423  0.1092
 8890W        W24359   1.392   3.358   5.093 -0.2874  0.1353 -0.0025
 8891W        W24360  18.717   5.817   1.645  0.0027 -0.3317  0.1389
 8892W        W24361  14.515  16.324  11.062 -0.5139  0.0233  0.0963
 8893W        W24362   8.885   8.348   0.062 -0.1911 -0.1477 -0.0217
 8894W        W24363   1.333  11.920   3.355 -0.0396 -0.2434  0.2633
 8895W        W24364  18.615  16.203  10.009  0.2682  0.4897 -0.1075
 8896W        W24365   3.272  14.120   1.679  0.0890  0.0217  0.0022
 8897W        W24366   4.156  11.421  11.530  0.0888 -0.2840  0.0430
 8898W        W24367   5.364   0.143   3.381  0.4030  0.2036  0.1150
 8899W        W24368  16.969   9.513   0.252 -0.0299  0.1626 -0.2348
 8900W        W24369  15.711  10.653  15.169  0.3794 -0.1462 -0.0492
 8901W        W24370  10.343  11.036   0.231 -0.1194  0.1907 -0.0297
 8902W        W24371   4.809   2.974  12.989  0.1566  0.0972 -0.2570
 8903W        W24372  15.387   9.418   1.434 -0.3952  0.0737 -0.1134
 8904W        W24373   8.530   2.820   0.574  0.0598  0.1891  0.0932
 8905W        W24374  16.888  10.436   5.968 -0.1586  0.2880  0.1253
 8906W        W24375  13.809  11.382  14.128 -0.1536  0.0987 -0.1005
 8907W        W24376   7.681   7.385  14.322 -0.1370  0.1095 -0.3236
 8908W        W24377  13.222   5.764   4.092 -0.0083  0.0844  0.1869
 8909W        W24378   0.216  11.747   5.499 -0.1085 -0.3247  0.0411
 8910W        W24379  18.176  12.048  13.902  0.2374 -0.0208 -0.1911
 8911W        W24380   0.667  14.534  14.263  0.0903  0.0443  0.1710
 8912W        W24381  15.394  14.408   5.581  0.1217  0.1779  0.0274
 8913W        W24382  12.597  11.077  12.755 -0.0363 -0.0903 -0.0481
 8914W        W24383   0.531  17.024   1.008 -0.2701  0.1280  0.0798
 8915W        W24384   1.061   8.439   1.011 -0.0028 -0.0714  0.0819
 8916W        W24385  10.567   4.492   4.946 -0.2256  0.1567  0.0055
 8917W        W24386  15.633  14.562  13.130  0.2476  0.0776 -0.1504
 8918W        W24387  17.007   8.552   0.715  0.2011  0.1056  0.4121
 8919W        W24388   9.830   0.117   4.285  0.0910 -0.2647  0.0886
 8920W        W24389  14.112   8.924  13.418 -0.1150 -0.0381 -0.1271
 8921W        W24390   4.119  18.553  10.497 -0.3753 -0.2811  0.1983
 8922W        W24391   5.276   8.533   1.073  0.1602  0.2723  0.2818
 8923W        W24392   3.251   1.175  13.274  0.2293 -0.0735  0.2836
 8924W        W24393  10.950  16.097   3.355  0.0305 -0.1870  0.0999
 8925W        W24394   7.177   0.398   0.523  0.1272 -0.2287  0.5073
 8926W        W24395  11.241   4.657  11.058  0.0960 -0.2959 -0.1037
 8927W        W24396  13.158   4.266  15.441 -0.0956 -0.1176 -0.0280
 8928W        W24397  17.270   3.957  11.232  0.1515 -0.0109 -0.0988
 8929W        W24398  13.345  16.598  10.908 -0.0890 -0.1906 -0.1529
 8930W        W24399  17.949  16.116   1.540  0.0505 -0.0655 -0.1538
 8931W        W24400   7.572  17.726   5.771  0.2171  0.0032  0.3347
 8932W        W24401   7.258  11.906  15.026 -0.2519 -0.4829 -0.0113
 8933W        W24402   7.992  10.777   3.700  0.0931 -0.0317 -0.0016
 8934W        W24403   2.367  18.097  12.338  0.0405  0.0311  0.0521
 8935W        W24404   2.519  13.867  13.744 -0.1317  0.0235 -0.2317
 8936W        W24405  18.485   5.860  15.248  0.2547  0.1334  0.0737
 8937W        W24406  15.400  17.181  12.036  0.0207 -0.0666 -0.2812
 8938W        W24407  16.737  18.690  12.640 -0.1848 -0.0049  0.3220
 8939W        W24408  12.130  14.052   4.870 -0.3431 -0.3070  0.0497
 8940W        W24409  17.490  18.441   3.863  0.0434 -0.1219 -0.1034
 8941W        W24410  12.128   0.456   0.966  0.4358  0.1601  0.2594
 8942W        W24411  12.078  12.802   4.408 -0.0473 -0.0798  0.0537
 8943W        W24412   7.216  15.567  12.561 -0.1979 -0.0952  0.2088
 8944W        W24413   5.198   8.945  12.216 -0.1172  0.0703 -0.0863
 8945W        W24414  18.437  16.770   5.741 -0.0314  0.3076  0.2561
 8946W        W24415   8.663  14.723   3.229 -0.1757  0.1352 -0.2071
 8947W        W24416  11.959   1.926  13.247  0.0518 -0.0517 -0.0406
 8948W        W24417  12.278   7.394  12.769 -0.1438  0.1123  0.2071
 8949W        W24418   5.358   5.685  10.591  0.3913 -0.1214  0.0274
 8950W        W24419   9.865   5.998   3.448 -0.2722 -0.0633 -0.1468
 8951W        W24420   4.417   1.757  11.442 -0.4215 -0.0333 -0.0350
 8952W        W24421   1.788  13.573   2.509  0.0220  0.0643 -0.0193
 8953W        W24422  11.458   9.200  11.548  0.0655  0.0513  0.3182
 8954W        W24423  13.794   5.326  15.391  0.0317 -0.1451  0.1538
 8955W        W24424   7.630  13.114  14.160  0.1400  0.0480  0.1148
 8956W        W24425   5.217   4.751   2.958 -0.1850 -0.0798 -0.3845
 8957W        W24426  11.850   0.470  15.595  0.2340 -0.3808  0.0747
 8958W        W24427   0.453   7.606  12.103  0.1158  0.0033  0.1834
 8959W        W24428   3.382  10.705   2.615 -0.0300  0.2632 -0.0052
 8960W        W24429  15.360  14.016  11.769  0.2401  0.1303  0.2252
 8961W        W24430  17.997   2.565  12.332  0.0565 -0.0406  0.0068
 8962W        W24431   8.711   0.441   0.119 -0.3409  0.1278 -0.0923
 8963W        W24432  14.624   3.712  11.920  0.1569  0.2196  0.1794
 8964W        W24433   1.093   7.535   1.729  0.2056 -0.0310 -0.0373
 8965W        W24434  15.358  16.970  12.451 -0.1369  0.0957 -0.0348
 8966W        W24435  15.521   5.274   9.773  0.1400 -0.3683 -0.3803
 8967W        W24436   0.636  18.329  11.809 -0.3623  0.1213  0.1251
 8968W        W24437  13.152  17.180  13.493 -0.4195 -0.3477 -0.2301
 8969W        W24438  18.606  12.097  14.598 -0.1856  0.0864  0.3451
 8970W        W24439   5.410  10.032  11.377 -0.1258  0.4827 -0.1003
 8971W        W24440   9.794   2.099  10.908  0.1909 -0.2846  0.1186
 8972W        W24441   8.641  15.386   3.672  0.0556  0.0820  0.2213
 8973W        W24442  10.155  12.139  15.186 -0.0061  0.0067 -0.3329
 8974W        W24443  14.950  18.327  11.814 -0.1608 -0.3077 -0.0253
 8975W        W24444   7.947  16.155   2.921  0.2459 -0.2744  0.1579
 8976W        W24445   1.987   2.546   1.812 -0.2564  0.1549 -0.4651
 8977W        W24446  10.197   6.234   3.082  0.0675  0.2629 -0.3509
 8978W        W24447   0.650  17.763  10.747  0.0011  0.0862 -0.1550
 8979W        W24448   3.901   8.875   2.532  0.2335  0.1205 -0.0220
 8980W        W24449  11.016   6.313   4.807  0.2138 -0.2691 -0.0096
 8981W        W24450   5.935  14.926  13.610 -0.0755 -0.0460 -0.1091
 8982W        W24451   1.579  18.013   1.755  0.1375  0.0548  0.2191
 8983W        W24452  17.892   8.662   3.589 -0.0566 -0.1763  0.1268
 8984W        W24453   7.070  16.114  10.514 -0.1303  0.1838 -0.4052
 8985W        W24454  15.000   3.672   1.153 -0.1445 -0.0784  0.0366
 8986W        W24455  11.158   6.737   2.784  0.1639 -0.0001 -0.3644
 8987W        W24456  15.045   3.921   2.024  0.3187  0.2845 -0.0281
 8988W        W24457   5.323   0.564   2.148 -0.2223 -0.0836  0.0254
 8989W        W24458   6.979   5.819   1.513  0.0191  0.1832  0.0089
 8990W        W24459  10.511   4.068   4.561  0.0700  0.0872 -0.1195
 8991W        W24460  16.156   7.296   5.191 -0.0057  0.1986 -0.0048
 8992W        W24461  12.408   6.757   4.020  0.3060 -0.3620  0.1185
 8993W        W24462  12.298   1.427   0.190 -0.4502 -0.2690  0.0800
 8994W        W24463  16.592  10.336  15.005 -0.2520  0.0850 -0.3855
 8995W        W24464   5.208   6.542  10.755  0.0393  0.0884 -0.3079
 8996W        W24465  14.327   4.149   3.769  0.2042  0.1113 -0.2594
 8997W        W24466   6.925  15.938   3.764 -0.2601  0.2689 -0.2932
 8998W        W24467   4.121   6.820  13.720 -0.1393 -0.6189 -0.0303
 8999W        W24468   2.977   0.535  11.622 -0.1650 -0.0022 -0.0478
 9000W        W24469   9.218   5.926  14.099 -0.2030 -0.1552  0.2664
 9001W        W24470   3.735   0.105   0.946 -0.1224  0.1740 -0.2898
 9002W        W24471  16.813   7.631  13.280  0.2959  0.0230 -0.0582
 9003W        W24472   0.150   1.804   2.693 -0.1174  0.1488  0.3639
 9004W        W24473  12.354  18.439   1.991 -0.1846  0.0755 -0.2023
 9005W        W24474   8.707  13.086   0.016  0.3444  0.4360 -0.0936
 9006W        W24475   4.629  10.756   1.086 -0.0666  0.2627  0.0281
 9007W        W24476  11.841   1.121   4.601  0.0854  0.0151 -0.1821
 9008W        W24477  12.971   1.229   2.036 -0.0253 -0.1022  0.2791
 9009W        W24478  12.523   7.433   5.305 -0.0326  0.1345  0.1382
 9010W        W24479  15.070   0.098   2.403 -0.0210 -0.1711 -0.2106
 9011W        W24480   2.163  13.517  13.380 -0.0845  0.0408  0.1120
 9012W        W24481   6.826   8.504  11.115  0.4357  0.1156 -0.1959
 9013W        W24482  14.241  10.668   4.033 -0.1074  0.2062  0.2217
 9014W        W24483   1.433   0.805  12.743  0.3463  0.1704  0.1328
 9015W        W24484   9.682   9.838  11.844 -0.0279 -0.1686  0.0748
 9016W        W24485  17.570  18.481   4.824 -0.1382 -0.1424 -0.2582
 9017W        W24486   3.998  18.689   0.296  0.0632  0.1704 -0.0407
 9018W        W24487  14.029   9.871   5.106  0.1935  0.1551  0.0796
 9019W        W24488  13.778   8.714   1.884 -0.2257 -0.0444  0.3123
 9020W        W24489   2.030   0.288   1.240 -0.1452  0.0047  0.0317
 9021W        W24490  18.195  13.637  14.575  0.2092 -0.1087  0.3480
 9022W        W24491   9.723   1.564  11.894 -0.0815 -0.0927  0.0541
 9023W        W24492   5.093   8.636  10.904  0.0485 -0.1500 -0.2737
 9024W        W24493   7.110  14.559   0.127 -0.0497 -0.1982 -0.0942
 9025W        W24494  14.442   3.680   4.237  0.1409  0.2692  0.0374
 9026W        W24495   8.797   1.207   5.802  0.1180  0.1613  0.1123
 9027W        W24496   3.359  15.481  14.600  0.3288  0.0903 -0.3236
 9028W        W24497  12.194  13.706  11.280 -0.2796 -0.1375  0.0483
 9029W        W24498  16.793   5.172  14.666  0.1889 -0.1641  0.2374
 9030W        W24499   3.521   6.920  11.171 -0.0230 -0.1155 -0.0270
 9031W        W24500  16.351  16.566  14.370  0.1471  0.0266 -0.1792
 9032W        W24501  14.960   0.258  15.075  0.1977 -0.0658 -0.0453
 9033W        W24502  15.319  13.931   2.455 -0.1888  0.1226 -0.1263
 9034W        W24503  15.022  12.487   0.627  0.3963 -0.2026 -0.2610
 9035W        W24504  16.882   9.071  12.622 -0.0038 -0.0691 -0.1242
 9036W        W24505  17.226   7.391  12.313  0.4480 -0.0891  0.0905
 9037W        W24506  17.137  17.767   1.298 -0.0101  0.0549  0.3116
 9038W        W24507   6.806   2.768  11.471  0.2028 -0.1896 -0.1239
 9039W        W24508   5.064  15.954  14.285  0.0970  0.1307 -0.0834
 9040W        W24509   7.066  18.320  10.785 -0.2326 -0.1623  0.0614
 9041W        W24510   0.326  12.067   1.382  0.2475 -0.1220 -0.1848
 9042W        W24511   2.225  11.821  15.582  0.2861  0.3331  0.2943
 9043W        W24512  13.800   0.349  15.475  0.2262  0.0614 -0.1305
 9044W        W24513   8.085   8.324   3.542  0.0485 -0.1122  0.1141
 9045W        W24514   2.010   6.382   0.483 -0.2834  0.1997  0.1603
 9046W        W24515  16.889   8.805  11.338 -0.2425 -0.1525  0.2870
 9047W        W24516   6.997   8.457  15.101 -0.2106  0.3749 -0.0287
 9048W        W24517   6.245  11.744   1.337  0.1476 -0.3398  0.0058
 9049W        W24518  11.254   6.223  14.475 -0.0178  0.1496  0.2016
 9050W        W24519   9.606   8.366  12.305  0.0097  0.2707 -0.2915
 9051W        W24520  10.106   4.305  12.963  0.2689  0.3235  0.2238
 9052W        W24521   4.703   1.431   4.179  0.1784  0.2110 -0.2396
 9053W        W24522  18.534  17.727  15.133  0.0632  0.5343  0.0592
 9054W        W24523  11.326  15.655  11.465 -0.1737 -0.0829  0.3954
 9055W        W24524  17.636  15.153   1.454  0.1048 -0.1981  0.2063
 9056W        W24525  10.548   5.373   2.314 -0.0474  0.5539  0.0779
 9057W        W24526  13.867   1.124  12.065  0.1516  0.0876 -0.1882
 9058W        W24527   7.617   8.317  10.527 -0.3473  0.1601 -0.2343
 9059W        W24528  15.166   6.079  15.584 -0.4202 -0.0317  0.0953
 9060W        W24529   8.755  17.890   3.651  0.0225  0.0492  0.3026
 9061W        W24530  15.705  14.456  14.245  0.0828 -0.1058  0.2775
 9062W        W24531  15.052  12.664   1.957 -0.1448  0.3235  0.0637
 9063W        W24532   7.235   5.719  11.992  0.1134  0.1931 -0.1101
 9064W        W24533   1.769  16.054   5.718  0.0677  0.0234  0.0529
 9065W        W24534  14.696   6.346   3.620  0.0471 -0.0056 -0.0958
 9066W        W24535   3.662   7.857   0.841 -0.1605 -0.3337 -0.1452
 9067W        W24536   3.603  11.227  12.248 -0.2062 -0.3595  0.2831
 9068W        W24537   4.301  16.848   2.027  0.1658  0.2032 -0.1982
 9069W        W24538  13.671   6.342   3.560  0.0137 -0.0698 -0.2322
 9070W        W24539  12.547  15.225   0.099  0.2639  0.1436 -0.3990
 9071W        W24540  15.729  11.707  14.373 -0.0279 -0.3719 -0.1667
 9072W        W24541  13.963  15.898   1.141  0.0604  0.0052 -0.0742
 9073W        W24542  16.310  16.714   0.043  0.0457 -0.0258  0.0258
 9074W        W24543  12.704   8.541  11.837 -0.0730  0.0469 -0.0430
 9075W        W24544   6.799  10.535  13.809  0.2457 -0.2585  0.2516
 9076W        W24545   6.619  15.141   4.656 -0.1724 -0.3027 -0.1518
 9077W        W24546  17.030   0.236  14.980 -0.2370 -0.0118 -0.1450
 9078W        W24547  18.678   4.822  13.730 -0.2052 -0.1444  0.0415
 9079W        W24548   6.459  16.516   2.174  0.1701  0.1595 -0.0937
 9080W        W24549   2.541   1.740  13.252 -0.0516  0.2663 -0.1075
 9081W        W24550   5.184  17.098   0.869  0.0708  0.1613 -0.1675
 9082W        W24551   8.535  13.014   2.645 -0.0398 -0.1453 -0.0337
 9083W        W24552  17.048  15.499  12.407  0.0471 -0.0808 -0.2967
 9084W        W24553  11.139  13.496   3.237  0.0773 -0.1819  0.2786
 9085W        W24554  14.174   5.607  15.495  0.0681 -0.2190  0.4577
 9086W        W24555  16.552   9.697   3.978 -0.3315  0.2534 -0.0699
 9087W        W24556   2.743  15.781   2.096 -0.0505 -0.0599 -0.0178
 9088W        W24557   2.740   4.123  13.347 -0.1772 -0.0348  0.0463
 9089W        W24558  14.799  15.669   3.147 -0.0027  0.0281  0.1609
 9090W        W24559   4.161  13.733  11.613  0.2305 -0.0715  0.2667
 9091W        W24560   3.301   5.319  13.965  0.4371  0.1493  0.1430
 9092W        W24561   8.684  14.894  13.313  0.3475 -0.1544 -0.1532
 9093W        W24562  13.730  10.561   5.256 -0.2330  0.0647 -0.0282
 9094W        W24563   3.611   1.740  13.602 -0.2658 -0.2460 -0.0920
 9095W        W24564   7.338   2.360  14.434 -0.4884  0.1319 -0.1671
 9096W        W24565   1.760  11.289   5.004  0.2909  0.1465 -0.0163
 9097W        W24566  14.982   9.438   3.532 -0.0807  0.3086  0.0469
 9098W        W24567  15.580  10.758  15.654  0.1130  0.3324  0.1246
 9099W        W24568   1.409  14.717   1.581 -0.3770  0.3797  0.1751
 9100W        W24569   1.609   1.366  12.588 -0.1424  0.0555  0.0089
 9101W        W24570   0.160  14.496  11.317  0.0051 -0.3367 -0.1120
 9102W        W24571  10.390  18.426   2.374  0.0920  0.3492 -0.0248
 9103W        W24572  16.166   1.292   5.763  0.3281 -0.0222  0.0431
 9104W        W24573   9.501   0.446   4.101 -0.4930  0.1121  0.2219
 9105W        W24574  13.935  10.757  13.945 -0.1387 -0.1569 -0.2998
 9106W        W24575   3.272   8.789   0.120  0.4181 -0.2194 -0.1442
 9107W        W24576   2.534   7.414  15.530 -0.1809  0.0950 -0.0730
 9108W        W24577  17.585   4.924   9.946 -0.2263  0.1162  0.3410
 9109W        W24578   3.029   0.233   3.942  0.1332  0.3198 -0.3499
 9110W        W24579   6.063   9.346  12.506  0.1650 -0.1963  0.2263
 9111W        W24580  12.672   5.064  12.368 -0.0465 -0.2547 -0.0634
 9112W        W24581  12.628  10.943  13.809 -0.4131  0.0287 -0.0370
 9113W        W24582   4.241   6.255  13.978 -0.0588 -0.0427 -0.5387
 9114W        W24583   8.268   3.737   5.270  0.3468 -0.0470 -0.0194
 9115W        W24584  18.308   8.945   5.013 -0.0838  0.1619  0.0295
 9116W        W24585  13.082  14.593   2.733  0.3155  0.3317  0.0561
 9117W        W24586  11.453  16.075   3.063  0.1580  0.0891 -0.0339
 9118W        W24587  11.194  12.172  14.085 -0.0376 -0.1120 -0.1513
 9119W        W24588  17.614   7.934  14.659  0.0491  0.0670 -0.0423
 9120W        W24589  16.593   2.882   5.148 -0.4499  0.1440 -0.0192
 9121W        W24590   3.586   8.912  10.702  0.0602 -0.0268  0.3557
 9122W        W24591   0.429   9.240  11.186 -0.1593  0.0658  0.1589
 9123W        W24592   3.544  18.510  12.748 -0.2628  0.1079  0.2982
 9124W        W24593  15.552  14.726   5.239  0.2425 -0.1183 -0.1397
 9125W        W24594  17.096   3.896  15.049  0.1902 -0.1099 -0.0509
 9126W        W24595  10.814   8.003   1.169  0.2187 -0.1128  0.0733
 9127W        W24596   4.958   5.169  13.586 -0.0359 -0.0963  0.0535
 9128W        W24597  16.571  12.448   1.016  0.0246  0.1637 -0.0099
 9129W        W24598   6.412   0.401  11.528  0.2016 -0.0465  0.0876
 9130W        W24599   1.723  11.171   3.354  0.0392 -0.1296 -0.0016
 9131W        W24600   0.330  15.039   4.472  0.1395  0.2660  0.0565
 9132W        W24601   6.424  11.527   0.444  0.1257 -0.1001  0.3325
 9133W        W24602  16.098   2.299  14.790 -0.2289 -0.1027 -0.2553
 9134W        W24603   6.199  12.710  12.918 -0.0863  0.0917 -0.2122
 9135W        W24604   0.535  14.276   1.564 -0.4080  0.4871  0.2636
 9136W        W24605   8.714  18.685   4.401 -0.1571 -0.0644  0.0035
 9137W        W24606  12.020   6.361   3.116 -0.1485  0.0456 -0.0628
 9138W        W24607   4.183  16.124  10.205  0.0386  0.0671 -0.2185
 9139W        W24608  16.369  15.660  13.085 -0.4120 -0.1306 -0.2341
 9140W        W24609   0.170   3.637   5.121 -0.0140  0.1565 -0.2885
 9141W        W24610  11.022   7.891  10.254 -0.1373 -0.2607  0.1505
 9142W        W24611  17.853   9.035  11.049  0.1400 -0.0642  0.0516
 9143W        W24612  13.162  17.888  15.008 -0.0699  0.1290  0.0773
 9144W        W24613   6.134   1.130   2.808  0.1375  0.1280  0.0885
 9145W        W24614  10.831  11.055   0.384  0.2068  0.1786  0.0135
 9146W        W24615  17.098  17.801   5.079  0.1911  0.1480  0.0357
 9147W        W24616  14.601  12.379   3.325 -0.0102 -0.0695  0.2060
 9148W        W24617   9.264   6.122  12.431  0.0903 -0.0810 -0.0942
 9149W        W24618  14.819   3.754   3.923 -0.1514  0.2100 -0.1606
 9150W        W24619  14.435  17.617  12.097  0.1267  0.2675  0.2531
 9151W        W24620   4.812   7.199  13.443 -0.3724 -0.2291 -0.0485
 9152W        W24621   4.371   9.235   2.385 -0.0975  0.0531 -0.1600
 9153W        W24622   3.477   2.063   2.847  0.0473  0.1538 -0.2575
 9154W        W24623   4.200   3.749  15.530 -0.0936 -0.0446  0.0610
 9155W        W24624   4.200   4.018  14.426  0.2100 -0.0793  0.1692
 9156W        W24625  16.981  12.130   3.018 -0.1837  0.1755  0.1188
 9157W        W24626  12.769  15.388   0.663 -0.2682  0.1579  0.2371
 9158W        W24627   2.195  18.486   3.421 -0.2283  0.0937 -0.0318
 9159W        W24628   3.822  18.106   5.238  0.0198 -0.0875 -0.1047
 9160W        W24629  10.019  18.089   4.129  0.0756 -0.0813 -0.3455
 9161W        W24630   6.932   5.818  12.417 -0.2675  0.0585 -0.1472
 9162W        W24631   8.104   2.110  11.545  0.3812  0.1838 -0.3842
 9163W        W24632   6.014   4.029  11.250 -0.1627  0.2406  0.0671
 9164W        W24633  15.830  12.656   5.839 -0.1399  0.1816 -0.1478
 9165W        W24634   3.017  11.114   9.792 -0.0645 -0.1102 -0.0621
 9166W        W24635   6.972  12.850  11.854  0.0849  0.0058 -0.0272
 9167W        W24636  11.179  17.513   0.102 -0.1066 -0.1706 -0.1750
 9168W        W24637  15.610   7.256  14.526 -0.1479 -0.1144 -0.0944
 9169W        W24638   1.782  16.985   2.794 -0.2960 -0.7046  0.2009
 9170W        W24639   4.491   2.605  14.219 -0.1884 -0.1399 -0.2963
 9171W        W24640   5.106  17.397   3.016  0.0454  0.1503 -0.2379
 9172W        W24641  16.461   8.286  13.855 -0.1078  0.1054  0.1115
 9173W        W24642  11.766  16.004  10.616 -0.0463  0.0783  0.1215
 9174W        W24643   5.233  11.545  12.093  0.1124 -0.4380  0.1456
 9175W        W24644  17.453   4.400  11.544 -0.2812 -0.0197  0.4466
 9176W        W24645  18.628   4.957   4.222  0.2543 -0.1958  0.1642
 9177W        W24646  17.014   3.400  15.023  0.0657  0.0759 -0.2489
 9178W        W24647   9.931  11.818  13.561  0.0961  0.0958  0.2266
 9179W        W24648   3.089   5.634  13.261  0.1112 -0.1532 -0.0313
 9180W        W24649   2.649   7.845   1.291  0.1349  0.2406  0.1673
 9181W        W24650  10.154   1.211  13.111  0.0806 -0.3135  0.0457
 9182W        W24651  17.568  17.950  13.920  0.0060  0.0824  0.1122
 9183W        W24652  10.232  10.756   3.021 -0.1010 -0.2183  0.4400
 9184W        W24653  11.623   8.524  14.216  0.1073  0.1571 -0.1057
 9185W        W24654   6.336   2.011   0.080 -0.1361  0.1641 -0.0667
 9186W        W24655  18.227   3.489  14.328  0.0221 -0.2690  0.0444
 9187W        W24656  13.121  18.233   2.735 -0.0430 -0.2484 -0.0344
 9188W        W24657  16.157  11.476  14.748  0.1479  0.5957 -0.0019
 9189W        W24658   4.759  17.811  12.572  0.1618 -0.1130 -0.0321
 9190W        W24659  18.563   5.034   0.884 -0.0826 -0.1552  0.0809
 9191W        W24660   2.622   7.396   3.768 -0.1791 -0.2732  0.2820
 9192W        W24661   4.836  12.556   0.459  0.0720 -0.1424  0.0896
 9193W        W24662  18.626  13.140   0.123  0.0488  0.1179  0.0763
 9194W        W24663  15.999   7.627   4.394  0.3330 -0.0246 -0.2702
 9195W        W24664   8.022   0.920   4.156  0.0422  0.2515  0.0005
 9196W        W24665   9.085   8.576  12.635  0.4102  0.2168 -0.0437
 9197W        W24666  17.688   7.591  10.992  0.0790 -0.0460 -0.1467
 9198W        W24667  10.828  14.791   1.281  0.2008  0.1026 -0.2967
 9199W        W24668  11.083  11.706  13.782 -0.0531  0.1996  0.0955
 9200W        W24669   5.688   0.815   1.489 -0.1417 -0.1083  0.0655
 9201W        W24670  17.142   1.603   3.980 -0.0295 -0.2394 -0.0425
 9202W        W24671   5.886  18.216   2.339 -0.1639  0.1687  0.2267
 9203W        W24672   3.894  11.453   1.662  0.1700  0.1741 -0.1423
 9204W        W24673   6.315  13.311  14.893 -0.1245 -0.2033 -0.0194
 9205W        W24674   6.748  12.821  14.194  0.2558  0.3402  0.0508
 9206W        W24675   7.549  11.733  13.560  0.0287  0.4601 -0.0369
 9207W        W24676   5.534   5.251  10.694  0.0646  0.1751  0.1855
 9208W        W24677   9.187   0.150   4.462 -0.0243 -0.1706 -0.0132
 9209W        W24678   9.381  10.255  12.749 -0.0037  0.4911 -0.3012
 9210W        W24679   4.944   1.508   3.741  0.0642  0.0466 -0.1211
 9211W        W24680   8.836   7.797  10.324  0.2106 -0.0523  0.2452
 9212W        W24681  16.661   1.267   2.325 -0.3000 -0.0897  0.2737
 9213W        W24682  16.270  18.599  13.881  0.3363  0.0758  0.2136
 9214W        W24683  18.130   9.136   9.896 -0.0174 -0.1236  0.0954
 9215W        W24684  12.957  12.231  14.246 -0.1314  0.2635  0.0197
 9216W        W24685   3.097   4.322   0.926 -0.1669  0.1697 -0.2971
 9217W        W24686   2.363   9.130  15.185  0.0885 -0.0280 -0.0760
 9218W        W24687   4.739  16.113   6.020 -0.0109 -0.0397  0.1935
 9219W        W24688   5.132  11.162   3.542 -0.1295 -0.0714  0.4070
 9220W        W24689  18.630   8.128   4.727 -0.1070 -0.4579 -0.0257
 9221W        W24690  13.076   7.673   4.395 -0.0523  0.0287 -0.0694
 9222W        W24691  18.481  10.852   0.544  0.1285 -0.2440  0.2161
 9223W        W24692   0.199   9.685  11.004  0.0884  0.0937  0.1152
 9224W        W24693   3.194   3.162   2.903  0.0872 -0.0123  0.0217
 9225W        W24694   5.497   4.241   0.154 -0.0090 -0.3860 -0.1284
 9226W        W24695  15.028   9.373  12.815  0.1261  0.3572  0.2486
 9227W        W24696  14.661  10.602  11.905 -0.0307  0.1926  0.0172
 9228W        W24697  16.598  15.502  14.805  0.1450  0.2472  0.1006
 9229W        W24698   5.934   5.423  12.329 -0.1108  0.0161  0.2747
 9230W        W24699  15.666  10.554  14.149  0.0944  0.0073 -0.1187
 9231W        W24700  15.776   4.032   1.523  0.1410  0.0140 -0.0798
 9232W        W24701  12.915  13.199   2.867 -0.4344  0.4307  0.2852
 9233W        W24702   8.775   2.990  14.665 -0.3486 -0.0563  0.0059
 9234W        W24703   2.517   4.829  12.047 -0.2357 -0.0861 -0.2999
 9235W        W24704   8.211  11.008  11.522  0.2193 -0.3573 -0.1175
 9236W        W24705  16.853  14.031  14.924  0.1583  0.1876 -0.0383
 9237W        W24706   6.486  10.642  15.625 -0.2064  0.0601 -0.3517
 9238W        W24707  18.451   8.886   4.205 -0.2966 -0.1241 -0.1985
 9239W        W24708  12.599   8.363  12.608 -0.0601  0.3454 -0.1253
 9240W        W24709   4.286  16.195  13.194  0.1552  0.0024  0.1912
 9241W        W24710  16.434   9.407   4.991 -0.1237 -0.0839  0.1136
 9242W        W24711  11.440  17.543   2.562  0.2290 -0.1152 -0.0183
 9243W        W24712   2.861   4.996  11.699 -0.1177  0.0785  0.1765
 9244W        W24713   1.238  11.669  14.563  0.1551 -0.1077  0.0750
 9245W        W24714   9.718  18.473  13.165  0.1223 -0.2968  0.1345
 9246W        W24715   8.233   3.234  12.546 -0.1437 -0.1255 -0.0293
 9247W        W24716  15.356   3.892   0.491 -0.0480 -0.1260  0.1404
 9248W        W24717  16.050   1.938   0.505  0.1946  0.2095  0.0622
 9249W        W24718   0.307   6.690  15.026 -0.2105  0.1644 -0.1695
 9250W        W24719  14.028   8.265   1.996  0.4775 -0.0324  0.1130
 9251W        W24720   5.987   9.009   3.691 -0.1453 -0.0270 -0.2740
 9252W        W24721   6.333   5.520  14.229 -0.1255  0.1678  0.2652
 9253W        W24722  13.765   9.850   4.031  0.1218  0.0730 -0.0364
 9254W        W24723  13.421  10.646  11.801  0.2029 -0.1570 -0.0161
 9255W        W24724  12.012   6.016   5.263  0.0980  0.0436  0.1503
 9256W        W24725  10.766   0.119   4.116 -0.1440  0.0078  0.3693
 9257W        W24726   4.738   7.412  13.896  0.2903  0.2127 -0.1773
 9258W        W24727  12.414   7.336  14.381  0.1171 -0.1437  0.0754
 9259W        W24728   8.897  11.152   2.058  0.4307  0.1147  0.2863
 9260W        W24729   4.638   8.056   1.407 -0.0182 -0.0945 -0.1820
 9261W        W24730  17.303  18.584  11.265 -0.2878  0.1276  0.1083
 9262W        W24731   9.687  11.875   3.286 -0.3788 -0.0976 -0.0836
 9263W        W24732   0.130  11.967   3.012 -0.1446  0.3396 -0.2241
 9264W        W24733   1.451  13.886   2.330  0.4114 -0.3114 -0.2349
 9265W        W24734   5.376   1.556   2.483  0.4727 -0.1099 -0.0535
 9266W        W24735   8.949   9.728   0.185 -0.0901  0.0906  0.1074
 9267W        W24736  11.815  10.023  13.229  0.0596  0.0602 -0.0439
 9268W        W24737  12.808  12.157   3.937  0.2646  0.4738  0.3882
 9269W        W24738  12.679   5.437   5.768  0.3205  0.0072  0.1129
 9270W        W24739  11.130  11.770   2.642  0.1153  0.2028 -0.3303
 9271W        W24740  15.402   0.958  11.623 -0.3365  0.2014 -0.0029
 9272W        W24741   7.159   3.591   0.836  0.4103  0.2170 -0.0204
 9273W        W24742  14.691  17.776   3.358 -0.2086  0.1254  0.1414
 9274W        W24743   0.816   9.519   5.389  0.1048 -0.1911 -0.1886
 9275W        W24744  11.285   7.619   5.358  0.3377 -0.1187  0.0700
 9276W        W24745  14.524   5.453  13.404 -0.3817 -0.1574 -0.1607
 9277W        W24746  16.055   1.794  14.892  0.1215 -0.1278  0.0781
 9278W        W24747  13.551   5.019  14.516  0.1773  0.2200  0.3714
 9279W        W24748   0.476  12.941  11.088  0.0427 -0.1202  0.0426
 9280W        W24749   8.592  16.333   0.351 -0.2589 -0.0721  0.0029
 9281W        W24750   9.906   5.822   1.107 -0.0504  0.0145  0.0119
 9282W        W24751   8.394  10.811   1.201  0.1958 -0.0453 -0.3700
 9283W        W24752  14.137   5.218  12.652  0.0539  0.1873 -0.0124
 9284W        W24753  15.774  13.724   1.319 -0.3568 -0.6532 -0.2407
 9285W        W24754  17.455  11.397   2.384 -0.0492  0.2593 -0.3084
 9286W        W24755  13.658  14.442   1.811 -0.0159  0.0028 -0.0727
 9287W        W24756  15.344   5.264  11.975  0.0352  0.1067 -0.2797
 9288W        W24757   5.915   1.144  10.394  0.0795 -0.1949 -0.3704
 9289W        W24758  10.919  13.467   1.859 -0.1927 -0.0052 -0.1899
 9290W        W24759  12.341   4.164  11.494  0.0750  0.0362  0.2955
 9291W        W24760   2.627  17.024  13.884 -0.0495  0.1656 -0.0322
 9292W        W24761  14.400   9.260  13.165  0.1529 -0.2977 -0.4048
 9293W        W24762  11.777  14.351   0.763  0.0102  0.2008 -0.3590
 9294W        W24763   3.960   4.290   4.446 -0.0953  0.1687  0.2444
 9295W        W24764  13.188   6.466   0.815 -0.1052 -0.0797 -0.1488
 9296W        W24765  14.558   8.729  13.323 -0.2496  0.0879 -0.0961
 9297W        W24766  17.021   0.293  15.479  0.3265 -0.0889  0.0595
 9298W        W24767   1.745   2.100  13.345  0.1833  0.1262 -0.2919
 9299W        W24768  11.250  18.288   5.232  0.0695 -0.2375 -0.0545
 9300W        W24769   1.582  15.864   0.574 -0.0250  0.2641 -0.0472
 9301W        W24770   6.451   0.900  10.089 -0.3908 -0.0659  0.2071
 9302W        W24771  18.389   5.027   3.073 -0.0980 -0.3141 -0.1700
 9303W        W24772  18.706   8.142  13.257 -0.0578 -0.1562 -0.1654
 9304W        W24773   5.686   5.764  13.554  0.2346  0.1537  0.1495
 9305W        W24774   6.688  10.277  15.044  0.1737 -0.2586 -0.0916
 9306W        W24775  13.597   0.319  13.147 -0.2377 -0.0521 -0.1544
 9307W        W24776   1.113  14.643   3.729 -0.2922  0.1115  0.1355
 9308W        W24777  11.014  17.992   1.659  0.2008  0.1490  0.4831
 9309W        W24778  16.345   5.930   5.982 -0.1521  0.1784 -0.2469
 9310W        W24779   9.932   8.213  14.308  0.2006 -0.3100  0.0593
 9311W        W24780   7.128   2.553  14.813 -0.0729  0.0818  0.2824
 9312W        W24781  15.696  11.212  11.460 -0.1128  0.1218  0.0056
 9313W        W24782   5.489  16.750  12.438 -0.1849 -0.4450  0.2726
 9314W        W24783   6.354   8.945  11.509 -0.0110 -0.0550 -0.0080
 9315W        W24784   4.381  17.479  12.689 -0.3748 -0.6805 -0.1061
 9316W        W24785   5.732   3.851  14.286  0.1047  0.0365 -0.1726
 9317W        W24786  18.614  12.635   4.636 -0.2975 -0.1706 -0.0719
 9318W        W24787  17.549  10.210   3.039  0.3908 -0.1079  0.2557
 9319W        W24788   3.193  11.363   3.827 -0.0759 -0.1710  0.0543
 9320W        W24789   5.709   0.813   5.237 -0.0668  0.1079 -0.3975
 9321W        W24790   7.888   1.308   0.449 -0.1441  0.0488  0.4214
 9322W        W24791   9.070   4.213  14.624 -0.0590  0.0705 -0.0250
 9323W        W24792   2.512  17.773  14.109 -0.5092  0.1193 -0.1058
 9324W        W24793  14.879   4.362  14.520 -0.3578  0.1191  0.1468
 9325W        W24794  17.365   2.459  15.572 -0.2243  0.2579 -0.0025
 9326W        W24795   3.241   2.596   4.566  0.0293 -0.0437  0.2391
 9327W        W24796   2.535   5.814   4.356  0.2472 -0.1367 -0.0135
 9328W        W24797   9.435  17.455   3.793  0.3403  0.2884  0.0945
 9329W        W24798  18.752   9.316  15.277  0.0970 -0.1320 -0.1424
 9330W        W24799  18.519   3.675   4.946  0.0816 -0.2510  0.2355
 9331W        W24800   5.115  16.348   2.081  0.1833 -0.0277  0.1275
 9332W        W24801  16.355  10.005  13.468  0.0697 -0.1319  0.1233
 9333W        W24802   3.459   2.379   1.794 -0.0595 -0.0093  0.1675
 9334W        W24803  12.029   0.068  10.422 -0.3254  0.4516 -0.0418
 9335W        W24804   1.070  13.900  15.232 -0.1225  0.1368 -0.2022
 9336W        W24805  10.307   6.192  14.148  0.0419  0.0458  0.4900
 9337W        W24806   3.648   9.296  13.937  0.0031  0.1945  0.2002
 9338W        W24807   9.313  13.227   4.467 -0.0540 -0.1072 -0.1343
 9339W        W24808  11.946   1.293  15.517 -0.3398  0.0276 -0.0803
 9340W        W24809  11.844   2.918   3.230 -0.2698  0.3106 -0.0276
 9341W        W24810   8.347   4.081  12.660  0.1539  0.0760 -0.1250
 9342W        W24811  10.075   8.595   0.735 -0.1223 -0.3885  0.0661
 9343W        W24812   1.672   9.682   6.001 -0.0149  0.2905 -0.1560
 9344W        W24813   8.991  13.995   5.618  0.4045  0.0174  0.0948
 9345W        W24814   8.902  12.560  15.478 -0.0782  0.1296  0.2263
 9346W        W24815   3.616  14.071  10.783 -0.0607  0.0217 -0.2927
 9347W        W24816   5.899  14.526  14.664 -0.0354  0.0637  0.2148
 9348W        W24817   0.203  18.571   2.044 -0.1259 -0.3479 -0.0168
 9349W        W24818   2.980   1.731   0.458  0.3375  0.1850  0.3156
 9350W        W24819  11.602   5.745  14.162 -0.1106  0.0542 -0.0053
 9351W        W24820   4.709   5.920  11.921 -0.3219  0.2443 -0.0609
 9352W        W24821   3.293   0.236  11.889  0.1743  0.0219  0.1553
 9353W        W24822   4.416  14.759   0.855 -0.0463 -0.0005 -0.0609
 9354W        W24823   9.257   4.950   0.622  0.2424 -0.0410  0.3889
 9355W        W24824   1.036   6.672  10.130 -0.1290 -0.1545 -0.3013
 9356W        W24825  18.056  16.120   3.740 -0.2124 -0.0812  0.2707
 9357W        W24826  13.074  10.066   1.924  0.4252  0.0214 -0.0018
 9358W        W24827   8.144  10.878   2.694 -0.0050  0.1420 -0.0454
 9359W        W24828  14.876  16.091   3.383 -0.0577 -0.1629 -0.2498
 9360W        W24829  10.078  18.093  14.698  0.2284 -0.0912 -0.2527
 9361W        W24830  18.061  17.774   3.130  0.2759 -0.2753 -0.0713
 9362W        W24831  10.692   7.547  15.024 -0.0467 -0.2251  0.1422
 9363W        W24832   7.197   3.046  14.813 -0.1872 -0.2204 -0.1985
 9364W        W24833  16.888  17.127   0.608 -0.2755  0.0383 -0.3628
 9365W        W24834   1.999   5.415  15.313 -0.0850  0.2200  0.0160
 9366W        W24835  14.288   2.584   2.242  0.2285  0.1481  0.2121
 9367W        W24836   5.399  10.604  15.283 -0.1278  0.1833  0.1351
 9368W        W24837   4.136  10.376  11.963  0.0988 -0.1413  0.0378
 9369W        W24838   5.705  16.397  11.823 -0.0754  0.0251 -0.3144
 9370W        W24839  10.968  18.488   3.511 -0.0725 -0.3185  0.2042
 9371W        W24840   2.766  14.817   5.773  0.1292  0.3276 -0.0624
 9372W        W24841  13.459   4.396   3.297 -0.1693 -0.1477 -0.0795
 9373W        W24842  14.049   8.777   0.526 -0.0776  0.0678  0.0461
 9374W        W24843   7.472  17.538   3.386 -0.0499 -0.1111  0.1404
 9375W        W24844   4.947   0.716  10.449  0.1567 -0.1859 -0.1113
 9376W        W24845   4.367  10.873  11.172 -0.0872  0.0304 -0.0498
 9377W        W24846   8.624   2.494  13.259  0.1686 -0.0296 -0.0463
 9378W        W24847  13.659   1.241   5.602  0.0089  0.0659 -0.0308
 9379W        W24848  13.105   9.070  14.578  0.0475 -0.0482 -0.4219
 9380W        W24849   1.628   1.028   4.958 -0.1439  0.0254  0.1361
 9381W        W24850  12.852   5.629  10.988 -0.2219  0.0807  0.0786
 9382W        W24851  16.043   5.600  11.235  0.0266 -0.1088 -0.0865
 9383W        W24852   9.514   9.930   0.811 -0.0396  0.1768 -0.0589
 9384W        W24853   0.336  17.160  14.160  0.0946  0.0771  0.2930
 9385W        W24854  17.936   1.510   4.356  0.0293 -0.1118 -0.0522
 9386W        W24855  10.969   1.278  14.200 -0.4208 -0.1991  0.2123
 9387W        W24856  17.925   5.230   4.499  0.1839  0.1386 -0.1676
 9388W        W24857   2.097  14.344  11.461 -0.1770  0.2781  0.1737
 9389W        W24858   8.395   1.385   2.113  0.2080  0.1207 -0.0014
 9390W        W24859   3.300  13.983   3.831  0.1702  0.0004  0.0480
 9391W        W24860   6.569   5.786   3.764 -0.1236 -0.2013 -0.3034
 9392W        W24861  12.035   4.406   5.231 -0.2477 -0.1494  0.2142
 9393W        W24862  12.041  11.625   3.848 -0.1633 -0.1135  0.0370
 9394W        W24863  11.127  13.759   1.463  0.0685 -0.0077  0.1140
 9395W        W24864  13.122   1.927  10.613 -0.0692 -0.0283  0.0841
 9396W        W24865   6.946   5.237   4.646  0.1685  0.1205 -0.2524
 9397W        W24866  15.115   0.042   2.892 -0.0530  0.0650 -0.0663
 9398W        W24867   4.397   2.393   3.002  0.0135  0.0503 -0.0706
 9399W        W24868  18.443  15.650  14.226  0.0178  0.5434  0.1160
 9400W        W24869  14.665  17.084   1.783  0.0079 -0.3123  0.2383
 9401W        W24870  14.600  12.267   0.776  0.1167 -0.0718 -0.0605
 9402W        W24871   6.793   3.284   3.120  0.1569  0.3827 -0.0425
 9403W        W24872   2.337  12.504  13.707  0.0135 -0.1776  0.1229
 9404W        W24873   9.843  18.477  14.909  0.0362 -0.1295  0.2845
 9405W        W24874   7.609   5.119  15.497 -0.0013  0.1833 -0.1260
 9406W        W24875   2.574   4.403   3.175 -0.0062  0.0505  0.0060
 9407W        W24876   2.433  12.908   5.089 -0.1798 -0.3338  0.2395
 9408W        W24877  15.106  12.708   1.088 -0.1001 -0.0855  0.3799
 9409W        W24878   7.297  17.845   0.052 -0.0605 -0.1916  0.0561
 9410W        W24879   9.595   6.932   1.765 -0.1234 -0.1428  0.2194
 9411W        W24880  10.011  14.414  10.979 -0.0576 -0.1943 -0.1931
 9412W        W24881  11.016   4.473   1.366  0.5037 -0.1771 -0.0184
 9413W        W24882  16.792  18.027  15.113 -0.1857 -0.0096 -0.2333
 9414W        W24883  10.718  14.711  13.421  0.3364 -0.4728  0.3893
 9415W        W24884  11.819  14.540   1.919 -0.0302 -0.0881 -0.1157
 9416W        W24885  13.336   0.150   1.367 -0.0320 -0.0153  0.0738
 9417W        W24886   9.077  11.819  14.598  0.2698 -0.1562 -0.5680
 9418W        W24887  11.968   0.765  13.885 -0.3172 -0.0147  0.0227
 9419W        W24888   2.809   4.995  14.763 -0.1563 -0.2485  0.3385
 9420W        W24889  15.106   1.033  12.026  0.1307 -0.0045 -0.1081
 9421W        W24890  12.140  16.669  14.800 -0.0160 -0.0397 -0.0467
 9422W        W24891  17.422   6.636  13.014 -0.1520 -0.1685 -0.0824
 9423W        W24892   3.511   8.817  15.130 -0.3790 -0.1123 -0.1450
 9424W        W24893  17.880  18.436  11.030  0.4177  0.0187  0.0094
 9425W        W24894   7.484  12.274  15.365 -0.0670 -0.1544  0.2481
 9426W        W24895  14.859   0.444   4.026  0.1548 -0.1184  0.2816
 9427W        W24896  16.426  17.115   0.652  0.1583  0.0228  0.0756
 9428W        W24897  15.745  16.560  10.791  0.1353 -0.4070  0.0652
 9429W        W24898  12.675  16.919   2.642 -0.3479 -0.1323 -0.2097
 9430W        W24899   6.590   9.784   9.914 -0.1548  0.1261  0.1384
 9431W        W24900  13.026   9.792  13.515 -0.0683  0.2771 -0.3194
 9432W        W24901  14.726  16.559   2.694 -0.1135  0.0849  0.2669
 9433W        W24902   5.639   5.446   0.435 -0.3316 -0.2728 -0.2056
 9434W        W24903   9.886   9.047   4.690  0.1475  0.0650 -0.1749
 9435W        W24904  11.160   9.814  12.164 -0.1646 -0.1256 -0.2184
 9436W        W24905  16.652   3.665   0.594 -0.0183  0.1509 -0.0622
 9437W        W24906   5.640   5.763  12.568 -0.1182 -0.3418 -0.0564
 9438W        W24907   5.507   3.846  10.756 -0.1945 -0.2341 -0.0992
 9439W        W24908  17.901   4.880   0.667 -0.0517 -0.1840  0.1094
 9440W        W24909   3.584   5.896  13.478  0.3879 -0.2261 -0.6274
 9441W        W24910  12.274  14.014   4.359  0.1323 -0.1473 -0.1313
 9442W        W24911   2.496  16.577  11.592  0.0808  0.0393 -0.2855
 9443W        W24912  16.161   2.622  12.240 -0.0941  0.0193 -0.0933
 9444W        W24913   3.171   1.053   2.809  0.0978  0.2640 -0.2338
 9445W        W24914   0.319  12.630  14.170  0.1755  0.2074  0.1041
 9446W        W24915  14.318   0.381   3.879 -0.1808 -0.1866 -0.2413
 9447W        W24916  18.689  17.047   0.284  0.0160  0.3977 -0.3008
 9448W        W24917   4.745  14.711  12.886 -0.0863 -0.0214  0.0307
 9449W        W24918  10.330  16.533   9.491 -0.2875  0.0469  0.0332
 9450W        W24919  16.342   2.191  10.563  0.5031  0.1978  0.1647
 9451W        W24920   4.117  10.633  12.425  0.1265 -0.2696  0.1165
 9452W        W24921  11.538   6.237  15.470 -0.1169  0.2084 -0.0220
 9453W        W24922   9.440   4.637   1.097  0.2148  0.1240 -0.0616
 9454W        W24923   5.077  10.815  14.990 -0.3972  0.1904 -0.1616
 9455W        W24924  12.383   1.993  14.052  0.2827  0.0644 -0.0503
 9456W        W24925   2.018   6.622  15.318 -0.0168 -0.0123  0.1030
 9457W        W24926  15.542  12.357   0.832 -0.0416  0.0751 -0.1005
 9458W        W24927  18.632   8.562  13.770 -0.1864 -0.3321  0.0422
 9459W        W24928   0.434   8.678   3.478  0.1075 -0.0124 -0.0285
 9460W        W24929  17.594  16.469   1.521 -0.1069 -0.3669  0.1648
 9461W        W24930   7.986  13.415  14.478  0.2584  0.1218  0.1747
 9462W        W24931   7.846   3.739   2.568 -0.0270  0.0154  0.2607
 9463W        W24932   6.074  10.644   4.129  0.0585  0.2094  0.1338
 9464W        W24933   0.248  12.395   6.261 -0.1483  0.0968 -0.1263
 9465W        W24934   4.824   9.288   4.020 -0.0824 -0.1471  0.1176
 9466W        W24935  13.441  10.558   5.790  0.0146  0.0346  0.1752
 9467W        W24936  11.883   9.724  15.212  0.1354 -0.0968 -0.2090
 9468W        W24937   7.052  15.674  10.887 -0.2248  0.1188  0.2966
 9469W        W24938  12.214  10.292   4.829  0.0193  0.1885  0.0282
 9470W        W24939  16.316  10.159   3.731  0.1410 -0.1083  0.1404
 9471W        W24940   2.659   9.341  12.914  0.4835 -0.2218 -0.0752
 9472W        W24941   6.180   7.588  11.041  0.0636 -0.0335 -0.1836
 9473W        W24942  12.062  17.701  12.670 -0.0439  0.1429  0.1209
 9474W        W24943   8.619   5.075   9.869  0.0594 -0.0583  0.0103
 9475W        W24944   7.025   9.342  11.903 -0.2561  0.1670  0.1185
 9476W        W24945  15.971   5.563   0.586 -0.2575 -0.1097  0.0459
 9477W        W24946  14.133  17.453   4.969  0.2814  0.0148 -0.0447
 9478W        W24947   3.434  18.410   3.511 -0.4955 -0.1320  0.0551
 9479W        W24948   3.348  15.079  14.262 -0.1061  0.2881  0.2467
 9480W        W24949   7.095  17.620   5.587  0.2146 -0.1456  0.0988
 9481W        W24950   1.031   2.306   3.591 -0.0168 -0.0631 -0.1234
 9482W        W24951  14.023  11.264   3.755  0.1576 -0.0538 -0.2424
 9483W        W24952  16.892   4.315   4.096  0.1827 -0.0940  0.0730
 9484W        W24953  17.199  17.068  12.279 -0.0729 -0.3054  0.0599
 9485W        W24954  16.876   0.942   4.757  0.1878  0.4725  0.1216
 9486W        W24955   7.834   6.702  15.168  0.2077  0.1442  0.0307
 9487W        W24956   4.629  12.856   1.586 -0.1507 -0.2788 -0.0006
 9488W        W24957   5.018  17.101   2.642 -0.0234  0.1954 -0.1897
 9489W        W24958   1.772   9.030   3.284 -0.0561 -0.0106 -0.1033
 9490W        W24959   0.224  16.007  14.950  0.1157 -0.1392  0.1473
 9491W        W24960  18.748  16.724   4.427 -0.3801  0.1640 -0.1051
 9492W        W24961  16.532   8.316  12.269  0.2199  0.2287 -0.2879
 9493W        W24962  17.958  16.937   5.602 -0.0710 -0.0841 -0.3050
 9494W        W24963  15.497  13.377  12.777  0.0912 -0.2995 -0.1036
 9495W        W24964   1.994   6.514   3.745  0.0172  0.0249 -0.1300
 9496W        W24965  17.605  17.719  14.824  0.1445 -0.1401  0.0061
 9497W        W24966   6.904  17.463   0.604 -0.3559 -0.0037 -0.1792
 9498W        W24967   3.228  14.386   4.569  0.0366 -0.0200 -0.1751
 9499W        W24968  10.972  12.559  14.334  0.2720 -0.1191  0.0852
 9500W        W24969   2.356  11.470  11.972  0.0659  0.1586  0.1391
 9501W        W24970  15.600  18.108  12.358  0.2142  0.2577 -0.1231
 9502W        W24971  12.128   1.478  10.601  0.4771  0.2209 -0.0180
 9503W        W24972  10.838   0.130   4.638 -0.1777 -0.2441 -0.1176
 9504W        W24973   2.255   3.054  13.330 -0.0480  0.2319 -0.1900
 9505W        W24974  17.169  17.403  12.776  0.2823  0.3229 -0.0062
 9506W        W24975   4.835   6.254  12.272  0.1290  0.0036 -0.0553
 9507W        W24976  12.801  16.639   4.947 -0.0356 -0.0567  0.0195
 9508W        W24977  12.831  17.655  15.394  0.1088  0.1365 -0.0907
 9509W        W24978   7.158  15.902   5.609  0.0600 -0.1726  0.0456
 9510W        W24979   5.646   2.276  11.463  0.0239 -0.1241 -0.0325
 9511W        W24980  14.929  13.704   4.810  0.0259 -0.3625 -0.0255
 9512W        W24981  16.847  12.325   0.629 -0.1412 -0.1884  0.1310
 9513W        W24982   1.896  12.753   1.970  0.2381 -0.0910 -0.1878
 9514W        W24983  13.605  14.473   0.538 -0.1542 -0.0584 -0.1723
 9515W        W24984  17.655  11.079  11.775  0.0072 -0.0360  0.2702
 9516W        W24985   1.179  15.812   4.613  0.4080 -0.0228  0.0220
 9517W        W24986   7.143  15.857   2.928  0.3852 -0.0723 -0.1364
 9518W        W24987   0.984   7.486   3.097 -0.0111  0.0133 -0.4723
 9519W        W24988  18.765   3.260  14.611  0.2091 -0.1140  0.0444
 9520W        W24989   3.419  17.224  12.982 -0.4114  0.2011  0.2023
 9521W        W24990  17.654  13.128   3.064 -0.1212  0.2547  0.3903
 9522W        W24991   8.472  16.298   2.079  0.0927 -0.2716  0.2908
 9523W        W24992   8.691  15.225  12.121 -0.1118  0.0380 -0.2857
 9524W        W24993   2.865   1.809   1.504 -0.1060  0.2127 -0.0897
 9525W        W24994   1.259   5.366   3.524  0.0043  0.2580 -0.0624
 9526W        W24995   4.498   1.927   0.828  0.0171 -0.2038 -0.1621
 9527W        W24996  10.215   1.927   4.773  0.2599 -0.2642 -0.0435
 9528W        W24997   4.138  13.502   1.903  0.0521 -0.0388 -0.0384
 9529W        W24998  17.721   9.594   9.867  0.3633 -0.2923 -0.1230
 9530W        W24999   3.443   3.781   2.430 -0.1329  0.0687 -0.3518
 9531W        W25000   5.718   8.666  12.707 -0.1265 -0.0266 -0.1084
 9532W        W25001  14.332   1.136  13.271 -0.0906  0.0722 -0.3619
 9533W        W25002   1.403  13.254   0.822 -0.1885  0.0152  0.0366
 9534W        W25003   3.946  17.195  12.841 -0.1013 -0.0390 -0.4533
 9535W        W25004   8.432  13.906  12.480  0.0984 -0.1730  0.1525
 9536W        W25005   0.372   9.660  14.479  0.1566  0.2328  0.0302
 9537W        W25006  15.093   3.578  10.459 -0.1147 -0.4435 -0.0225
 9538W        W25007  17.653  12.023  15.088  0.2137 -0.4865  0.5009
 9539W        W25008   5.654  10.407   0.015 -0.0510 -0.3227  0.1395
 9540W        W25009   8.416  13.898  11.241 -0.1076  0.1571  0.1198
 9541W        W25010   7.342   3.615  12.961  0.0025 -0.2281 -0.3870
 9542W        W25011   9.436   3.533   3.276 -0.3762 -0.0574  0.1238
 9543W        W25012   5.204  17.345  12.052 -0.1964 -0.0971  0.0425
 9544W        W25013   7.784   9.946   3.160  0.3456 -0.0265  0.0697
 9545W        W25014   4.799   7.160   0.060 -0.3242  0.1298  0.0120
 9546W        W25015   3.957   7.115  13.282 -0.1154  0.2206  0.2486
 9547W        W25016   4.944   5.031  15.024 -0.1986  0.2588 -0.0127
 9548W        W25017   1.428  16.159  14.857 -0.2442 -0.5077 -0.3958
 9549W        W25018   9.001   4.944   3.526  0.0322  0.1705 -0.0614
 9550W        W25019  17.201  14.946  14.839  0.1501 -0.0104 -0.1327
 9551W        W25020  15.227   7.685   0.749 -0.3619  0.1335 -0.1685
 9552W        W25021  18.217  17.599  13.860  0.0657  0.1009 -0.0341
 9553W        W25022   5.962  11.351  15.160  0.3967 -0.0711 -0.0724
 9554W        W25023  11.254   0.133  12.632  0.1834  0.0641  0.1587
 9555W        W25024   4.404  16.476   4.498  0.1159  0.0954 -0.0857
 9556W        W25025   0.874   5.125   5.169 -0.0265  0.0536  0.5591
 9557W        W25026   4.005  14.619   2.266  0.0964 -0.0361 -0.0375
 9558W        W25027  16.799   2.702   2.510 -0.0798 -0.0366 -0.2173
 9559W        W25028  15.768  16.049  11.883  0.0457  0.1447 -0.2166
 9560W        W25029   5.942   7.382   0.534  0.3102 -0.2886 -0.2157
 9561W        W25030   2.204  10.598   1.640  0.0402 -0.1563  0.4034
 9562W        W25031   1.311   6.077  11.737 -0.0123  0.0609 -0.1431
 9563W        W25032   7.812  14.969  11.876 -0.3402 -0.2572 -0.0785
 9564W        W25033  12.229   2.579  14.874  0.3605  0.1895 -0.0293
 9565W        W25034  14.272   5.105   1.026  0.0830  0.1431 -0.0820
 9566W        W25035  12.570  15.463   5.805  0.0171  0.1876  0.0975
 9567W        W25036  12.717   5.857   2.942 -0.0818  0.1881  0.2865
 9568W        W25037   8.873   6.799   0.922 -0.0111 -0.1431  0.1130
 9569W        W25038  15.301  12.262   1.809 -0.0068  0.1637  0.1588
 9570W        W25039  15.360   8.462   2.647  0.0082  0.0506 -0.1625
 9571W        W25040   7.123  14.655  15.291  0.1081  0.2162  0.0124
 9572W        W25041  15.306   8.682   1.336  0.1908 -0.1216  0.2242
 9573W        W25042  16.192  18.280   2.897  0.1302  0.1512  0.0600
 9574W        W25043   8.326   7.247   1.673  0.0069 -0.1190  0.1373
 9575W        W25044   0.441  14.283  13.711 -0.0305  0.0341  0.0228
 9576W        W25045   8.487  14.399  12.324 -0.0660  0.0604  0.2437
 9577W        W25046  16.263  12.031  10.780 -0.0356 -0.2324  0.3914
 9578W        W25047  12.272  11.231   2.164 -0.2616  0.1504  0.3922
 9579W        W25048   7.392  17.473  11.956  0.3158  0.2040 -0.1099
 9580W        W25049   4.903   2.301   2.570  0.0744  0.2017  0.1473
 9581W        W25050   5.429  15.866   4.245  0.1243  0.0921  0.1293
 9582W        W25051   4.338  11.584   4.385 -0.1064  0.1220 -0.1304
 9583W        W25052   5.999   5.084   0.233 -0.0048  0.0753 -0.0067
 9584W        W25053  17.871   0.851  11.873  0.2479 -0.0659 -0.3119
 9585W        W25054  13.933  18.677  11.343 -0.1892 -0.0148  0.1037
 9586W        W25055   1.060   7.356  11.437 -0.0345 -0.0664 -0.1310
 9587W        W25056   5.635   8.743   5.499 -0.1400  0.2712  0.2737
 9588W        W25057  16.127  12.774  13.568  0.0526  0.1315  0.4260
 9589W        W25058  13.498   3.841   4.130  0.1198  0.2418 -0.1799
 9590W        W25059   7.695  11.557   4.320 -0.0319  0.0034  0.0122
 9591W        W25060  14.664  17.245   3.312  0.0947  0.0669  0.2592
 9592W        W25061  15.896  13.977  11.590  0.1646 -0.2033  0.0581
 9593W        W25062  14.692  15.681   0.127 -0.4427  0.0360  0.0537
 9594W        W25063  13.634  18.588   0.501  0.1259 -0.1685 -0.0621
 9595W        W25064  11.021   6.721  13.018 -0.2825 -0.0583  0.3532
 9596W        W25065   7.138   6.326  11.198  0.4173  0.2757 -0.0431
 9597W        W25066  17.379   7.030   1.523  0.0991 -0.2474  0.0856
 9598W        W25067   8.507  17.797   1.200  0.2260  0.0886  0.0637
 9599W        W25068   8.103  12.026   2.906  0.4801 -0.3028  0.2640
 9600W        W25069   9.480  16.672   1.387  0.0708  0.0750  0.0833
 9601W        W25070   9.936   8.082  13.790 -0.1940 -0.1397 -0.0173
 9602W        W25071   6.853  16.416   0.657  0.0544  0.2645  0.2397
 9603W        W25072  14.278  10.695  14.301 -0.2805  0.5091 -0.2391
 9604W        W25073  15.554  12.215  11.859  0.0476  0.0680 -0.0291
 9605W        W25074   7.798   2.069  13.690  0.1712  0.1138  0.0347
 9606W        W25075   0.526  17.466  12.879  0.2250  0.1725  0.1172
 9607W        W25076  13.785  10.958  12.114  0.1247 -0.0289 -0.2679
 9608W        W25077   3.094  13.486  15.395  0.1540  0.0238 -0.2118
 9609W        W25078  11.308  11.650   0.233 -0.2028 -0.2085 -0.0011
 9610W        W25079  10.711   2.320  10.704  0.6276 -0.0682 -0.1555
 9611W        W25080   9.834   4.471  11.662 -0.1179  0.1306 -0.3970
 9612W        W25081  17.777   4.842   2.740  0.2067  0.2700 -0.1013
 9613W        W25082   0.466   4.808  13.917 -0.1554 -0.3696 -0.1028
 9614W        W25083   6.856  16.803   2.095 -0.1449  0.0051  0.2167
 9615W        W25084  14.007  17.947  12.064 -0.1830 -0.0021 -0.1241
 9616W        W25085   4.934   8.408   4.290 -0.0989  0.1444 -0.2262
 9617W        W25086   9.747   6.553   5.388 -0.0504 -0.2406 -0.0276
 9618W        W25087   3.903   1.482  10.530 -0.3942 -0.0035 -0.0298
 9619W        W25088   3.967  17.219  13.373  0.3152 -0.2741 -0.0206
 9620W        W25089  15.350   8.540  10.754  0.0294 -0.2998  0.0460
 9621W        W25090  16.487  18.099  14.594  0.1271  0.0698 -0.0484
 9622W        W25091   6.949   2.061   0.039 -0.1488  0.3334 -0.0412
 9623W        W25092  16.599  17.813  11.795  0.5396  0.5724 -0.0058
 9624W        W25093  10.087   2.468   5.558 -0.2056  0.0804 -0.1851
 9625W        W25094   3.014  13.102   3.609  0.1876 -0.2815 -0.4229
 9626W        W25095  10.932  15.461   2.592  0.2399  0.5756  0.1366
 9627W        W25096   1.490  14.414   2.445  0.0553 -0.0886  0.0405
 9628W        W25097  17.383  18.392  12.955 -0.1381  0.1760  0.2662
 9629W        W25098  13.105  16.874   5.282  0.1625 -0.0934 -0.1109
 9630W        W25099  14.913   0.423  15.528  0.0433  0.0082 -0.0734
 9631W        W25100   9.150   3.805  14.956  0.0770  0.1584  0.1073
 9632W        W25101  15.204  16.372   2.610 -0.0669  0.0262  0.3925
 9633W        W25102   2.180  11.414   1.798 -0.0755 -0.0817 -0.1288
 9634W        W25103   1.497   7.156  13.936 -0.0867  0.2359 -0.1048
 9635W        W25104  11.806   9.200   2.321 -0.0769  0.0262 -0.0789
 9636W        W25105  11.078  13.671   0.624  0.0748  0.1849 -0.0578
 9637W        W25106  12.193  16.032  10.934 -0.0496 -0.1991  0.0479
 9638W        W25107   2.627   4.956  13.697  0.1072 -0.1715  0.0781
 9639W        W25108   0.621   0.923   1.170 -0.1053 -0.0012  0.1150
 9640W        W25109   5.608   0.883  14.425  0.1160 -0.0151  0.0040
 9641W        W25110  12.561   9.924   5.092  0.2670  0.2489 -0.0474
 9642W        W25111  15.833   9.207  14.909 -0.0739 -0.0945  0.0330
 9643W        W25112  15.776  18.363   1.772  0.2523  0.3392 -0.3443
 9644W        W25113  18.778  13.295  13.183  0.3663 -0.1745 -0.0067
 9645W        W25114  12.636  11.053  12.182  0.2426  0.1624  0.0658
 9646W        W25115   8.972   7.471   2.147 -0.2429  0.2996 -0.0556
 9647W        W25116   0.287  18.567  10.667 -0.0772  0.2389  0.1792
 9648W        W25117  16.752  12.024  12.060  0.1510 -0.1008  0.0645
 9649W        W25118  18.765   8.693   1.927 -0.3566  0.2819 -0.0157
 9650W        W25119   6.995   4.039  11.373 -0.0776 -0.1217  0.0892
 9651W        W25120   9.072  14.567  12.451 -0.1360 -0.0529  0.1366
 9652W        W25121  17.681   4.189   3.916  0.0968 -0.0997 -0.3977
 9653W        W25122   3.585  17.546  11.160  0.1309  0.1585 -0.2030
 9654W        W25123  11.627   0.818  11.901  0.0138 -0.4780 -0.3218
 9655W        W25124   8.074  16.112   0.231 -0.0191  0.0030  0.1181
 9656W        W25125   4.216   0.138   5.217 -0.0464 -0.1845 -0.2898
 9657W        W25126   2.609   6.949   3.516 -0.1113 -0.0400 -0.1900
 9658W        W25127  17.244  18.150   3.563 -0.0030 -0.1255  0.2265
 9659W        W25128   2.230   8.257   4.790  0.0718  0.1343  0.0886
 9660W        W25129   4.146   9.373   1.131  0.2121 -0.5309  0.0022
 9661W        W25130  10.351   8.398   3.394  0.2664 -0.0607 -0.1904
 9662W        W25131   7.608  15.059  13.549  0.3289  0.1686  0.0699
 9663W        W25132   3.111   5.265   1.787  0.1421  0.0765  0.0462
 9664W        W25133  13.097  12.819   1.961  0.1131  0.2379 -0.2705
 9665W        W25134   4.755  16.686   2.761 -0.0492  0.1054  0.0058
 9666W        W25135   4.257   9.904  15.489  0.2572 -0.1355 -0.1783
 9667W        W25136  13.907   2.757  14.837  0.2701 -0.3147  0.1733
 9668W        W25137   7.055  14.707  10.855  0.1160  0.1175  0.1278
 9669W        W25138   0.579   7.222  14.247  0.0235  0.1836 -0.3608
 9670W        W25139  16.584   4.689   3.587  0.2592  0.2102  0.3969
 9671W        W25140   3.504  11.641   3.153 -0.2820  0.3347  0.1329
 9672W        W25141  11.883  13.742   0.749  0.0248 -0.0817  0.1160
 9673W        W25142  10.119   2.797  14.776  0.3833  0.0598 -0.1622
 9674W        W25143   6.846   8.154   3.515 -0.3613 -0.4256  0.0166
 9675W        W25144   3.717   2.204   0.445 -0.0590 -0.3004 -0.0729
 9676W        W25145   0.701  11.806  11.632 -0.1026 -0.1492 -0.0521
 9677W        W25146   3.751   4.316   0.511 -0.0927 -0.1804  0.3094
 9678W        W25147   6.590   4.708  13.783  0.0615 -0.2472  0.1753
 9679W        W25148   2.706  15.008   1.692 -0.1578  0.1188  0.0840
 9680W        W25149   8.751  13.559  13.835 -0.3632  0.0983 -0.0100
 9681W        W25150  12.042  16.385   4.264 -0.0696 -0.4191 -0.1796
 9682W        W25151   7.065   8.466  12.867 -0.1755  0.1718 -0.4079
 9683W        W25152  16.655   4.296   4.714 -0.1402 -0.0341 -0.3696
 9684W        W25153   8.223  18.310   3.950 -0.2208  0.2200  0.1792
 9685W        W25154  12.567  11.012  11.621  0.3031 -0.4968  0.0576
 9686W        W25155   9.588  11.611   3.883  0.2343  0.0663  0.2323
 9687W        W25156  18.313  12.042  13.376  0.2170  0.1268  0.2498
 9688W        W25157   9.002   1.649   0.985 -0.1417 -0.3410 -0.0466
 9689W        W25158   6.552  18.125   0.054  0.0192  0.1071  0.0061
 9690W        W25159  15.227  10.110  12.749 -0.2346 -0.0362  0.2771
 9691W        W25160   2.323   2.286   5.702 -0.0195  0.1364  0.3719
 9692W        W25161   1.166   5.309  15.070  0.2600  0.1666 -0.2149
 9693W        W25162   8.255   7.055   3.068 -0.0474  0.0030 -0.0015
 9694W        W25163   9.525   8.753  14.729  0.2399 -0.0063  0.0569
 9695W        W25164   5.204   2.157   5.215  0.1971 -0.3426  0.3733
 9696W        W25165  13.453   8.195  12.111  0.3898  0.0677  0.4642
 9697W        W25166  16.722  14.267   0.145 -0.0891  0.0848 -0.1339
 9698W        W25167  16.331  16.833  12.546  0.0739  0.0459 -0.1532
 9699W        W25168   2.523  12.644   4.491 -0.0697 -0.0053 -0.1505
 9700W        W25169  11.182   2.686   5.316  0.0520 -0.3014  0.1698
 9701W        W25170  12.684   0.465   3.596 -0.2862  0.0085 -0.2908
 9702W        W25171  15.730   9.429  14.008  0.0252  0.0685 -0.0445
 9703W        W25172   7.633   8.738   2.243 -0.0389 -0.0268  0.2405
 9704W        W25173   4.150   5.043   2.211  0.1082 -0.1140  0.2640
 9705W        W25174  13.437   5.843  11.188  0.1158  0.0847 -0.1279
 9706W        W25175   3.287  11.621   0.406 -0.3417  0.0924  0.0717
 9707W        W25176   5.768   9.482  10.513 -0.0514  0.0248  0.2233
 9708W        W25177   1.597  16.725   0.984  0.2471 -0.1199  0.1154
 9709W        W25178   2.078  11.936  14.517  0.0076 -0.0863 -0.1486
 9710W        W25179   8.638   8.723   4.761 -0.3034  0.0283 -0.3644
 9711W        W25180  15.749  13.374   0.605 -0.3064  0.2446  0.2414
 9712W        W25181  14.989   5.985   3.842 -0.1238  0.0261  0.1144
 9713W        W25182  17.096   5.350   0.324 -0.2756 -0.2166 -0.1406
 9714W        W25183   8.757   0.500  11.464  0.0512 -0.2097 -0.2874
 9715W        W25184  14.346  17.928   1.450  0.2827  0.2326  0.3983
 9716W        W25185  13.464  11.769   3.136  0.0769 -0.3821 -0.1721
 9717W        W25186   2.449  16.821  11.089  0.0885  0.0944 -0.0634
 9718W        W25187   6.176   6.373   2.053 -0.0540  0.2056  0.0497
 9719W        W25188  16.708   7.384   3.662  0.2477  0.0104  0.0788
 9720W        W25189   7.891  15.371  13.105  0.0314  0.1581 -0.1712
 9721W        W25190  12.120   4.449  13.692 -0.1608  0.1470 -0.1962
 9722W        W25191  10.888   8.292   5.410 -0.2558 -0.0837  0.1957
 9723W        W25192  16.513   3.540   3.032 -0.0603  0.1252  0.1632
 9724W        W25193  18.302   4.499  14.285 -0.2344  0.0622  0.3643
 9725W        W25194  13.062  16.978   1.326  0.0182  0.0454  0.0940
 9726W        W25195   7.450   0.432  12.427 -0.2312 -0.4481 -0.3132
 9727W        W25196   2.119   2.647   4.352  0.0900  0.0895  0.1137
 9728W        W25197  15.291   5.405   1.034 -0.0469  0.1271  0.2435
 9729W        W25198   4.987  10.177  13.300 -0.3052  0.0228 -0.1095
 9730W        W25199   0.714  16.521  13.948  0.1180  0.1706  0.2995
 9731W        W25200   5.678   5.212  12.811 -0.0313 -0.1911  0.6103
 9732W        W25201   6.778  15.404  11.173  0.2062 -0.0461  0.1942
 9733W        W25202   2.453   0.192  15.307  0.3018  0.0681  0.2794
 9734W        W25203   9.318   3.311  10.654 -0.0617 -0.1253 -0.3039
 9735W        W25204  15.266   2.878  15.013 -0.0395 -0.2138 -0.1189
 9736W        W25205   2.063   2.998  11.133 -0.2595 -0.3180  0.0032
 9737W        W25206   6.331  16.274   1.206 -0.2446  0.0385  0.3107
 9738W        W25207  10.412  13.343  13.476 -0.1301 -0.2146 -0.1023
 9739W        W25208  18.096  18.206   2.332 -0.0912 -0.1036 -0.1179
 9740W        W25209   2.388  13.715   1.268  0.0472  0.1347  0.2070
 9741W        W25210  13.070  10.105   2.577 -0.0646  0.2173 -0.1522
 9742W        W25211   6.390   1.357   5.031 -0.2862 -0.3654 -0.0678
 9743W        W25212   4.406  17.513  15.508  0.1817 -0.0576 -0.0617
 9744W        W25213   8.715  18.584   3.005  0.1248  0.1615  0.0413
 9745W        W25214   9.341   2.593   2.105  0.2283  0.1645 -0.3791
 9746W        W25215   0.899   9.305   2.865 -0.1921  0.1712  0.0846
 9747W        W25216   1.584   6.145  13.685  0.2442 -0.0122  0.0247
 9748W        W25217   0.087   4.040  14.787 -0.1299  0.3320  0.3584
 9749W        W25218   9.581  16.964  10.771  0.3599 -0.1092  0.1223
 9750W        W25219  18.496   1.935   2.992  0.0825 -0.2829  0.2166
 9751W        W25220   6.089   7.401   1.573  0.1188 -0.2790 -0.0141
 9752W        W25221   1.766   1.732  10.207  0.1644 -0.0280 -0.0262
 9753W        W25222   7.774  16.519  11.643  0.1285  0.1956  0.3208
 9754W        W25223   2.732   1.673  11.789  0.2662  0.0444 -0.0623
 9755W        W25224   2.880  10.528  15.205  0.1124  0.3209  0.1329
 9756W        W25225   6.667   4.341   1.214 -0.0640  0.1401  0.0756
 9757W        W25226  14.354   1.214  11.730 -0.0900 -0.0333 -0.1714
 9758W        W25227   8.027   5.761   4.893  0.0992  0.0376  0.0679
 9759W        W25228  11.215   0.311   3.707  0.3495 -0.0224 -0.0138
 9760W        W25229   7.472   2.226  14.985 -0.1063 -0.1671 -0.0269
 9761W        W25230   7.767   2.474  15.437 -0.0282  0.2357 -0.0136
 9762W        W25231   4.982   4.676   1.980 -0.2906  0.4462  0.0923
 9763W        W25232   7.584   6.551  14.144  0.1941  0.2585 -0.0464
 9764W        W25233   2.638  12.806  14.526 -0.3919 -0.0923  0.0775
 9765W        W25234  14.862  12.779  15.405  0.2441  0.1340  0.5276
 9766W        W25235  18.453   8.258   1.326 -0.0390 -0.5116 -0.0066
 9767W        W25236   0.923   5.650  11.707 -0.1062  0.0357  0.3355
 9768W        W25237   2.670   5.181   3.577  0.0681 -0.0998  0.1557
 9769W        W25238   7.054   9.473  10.684 -0.2430  0.0086 -0.1398
 9770W        W25239  12.758   9.747  13.043  0.5283 -0.0851  0.1847
 9771W        W25240   5.884   1.910  11.737  0.0583 -0.3210  0.2608
 9772W        W25241   7.820  17.686  11.747  0.1936 -0.1804 -0.1955
 9773W        W25242   2.377  13.885  11.845 -0.1729 -0.4462  0.2235
 9774W        W25243   6.937   4.537   3.509  0.4709  0.2306 -0.1072
 9775W        W25244  13.877   7.013  11.347 -0.2987 -0.1864 -0.2006
 9776W        W25245   3.532   7.358   5.046 -0.0695  0.3161 -0.3150
 9777W        W25246   7.666   4.614  11.467  0.2840  0.2231 -0.2330
 9778W        W25247   3.559  13.408   2.229 -0.2872 -0.2724  0.2027
 9779W        W25248   3.805  10.787   2.833  0.1294 -0.0077  0.0855
 9780W        W25249   0.024   9.827  10.535  0.0840  0.5305  0.1055
 9781W        W25250   0.423  18.721   0.852 -0.3131 -0.1234  0.3603
 9782W        W25251  12.542  13.377  12.246  0.0437  0.2533 -0.2159
 9783W        W25252  18.131   2.997  11.041 -0.3043 -0.0711  0.0265
 9784W        W25253   4.376   1.039  12.142  0.2912  0.3519  0.2307
 9785W        W25254  14.984  10.662  14.638  0.1481 -0.0720  0.2278
 9786W        W25255   4.626   9.672  15.242  0.2453 -0.2647 -0.1892
 9787W        W25256  12.810   0.173  12.547 -0.0778 -0.2735 -0.0477
 9788W        W25257  13.593  14.670  13.892  0.0375  0.0036 -0.0920
 9789W        W25258   4.497   4.386  12.989  0.1523 -0.0875 -0.1831
 9790W        W25259  13.349  18.696   0.892  0.0259 -0.2996 -0.1296
 9791W        W25260   5.907  17.396  10.947 -0.0797  0.0020 -0.0605
 9792W        W25261  14.103  16.116   0.610 -0.0154  0.1273  0.1308
 9793W        W25262   2.885   0.893  12.923 -0.1545 -0.0043 -0.2989
 9794W        W25263   1.698  12.599  10.668  0.3067 -0.2877 -0.0580
 9795W        W25264   2.444   9.868   1.199 -0.0161  0.2004 -0.0752
 9796W        W25265  14.730  16.728  14.616 -0.0824  0.2612  0.1274
 9797W        W25266  14.042  16.205   1.994  0.1252  0.2575  0.4162
 9798W        W25267   4.196   5.986  13.580 -0.1072  0.1433 -0.0400
 9799W        W25268  10.789   1.187  13.364  0.1486  0.0659 -0.0691
 9800W        W25269   3.452  13.723   1.389 -0.0030  0.0200  0.3132
 9801W        W25270   5.035   0.088   5.608  0.0776  0.1075  0.1851
 9802W        W25271   9.034   7.906  15.188  0.0187  0.0266  0.3653
 9803W        W25272  16.197   5.768  12.045 -0.1433  0.2771 -0.0492
 9804W        W25273  18.158  12.069  11.756 -0.0960 -0.2006  0.1687
 9805W        W25274  17.522   9.631   5.176  0.0599 -0.0695 -0.0677
 9806W        W25275   9.213  14.735   0.860 -0.0865  0.1331 -0.1225
 9807W        W25276   8.383   2.121  13.033 -0.4270  0.0991 -0.0490
 9808W        W25277  18.693  18.210   4.481 -0.0025 -0.1125  0.0431
 9809W        W25278  18.208  18.451  15.552  0.0622 -0.2634  0.2549
 9810W        W25279   9.799   0.512   1.419 -0.1642  0.1758 -0.0153
 9811W        W25280   6.031  13.251   1.682  0.0943 -0.2126  0.1329
 9812W        W25281   8.803   1.647   0.475 -0.0045 -0.0923 -0.1758
 9813W        W25282  12.036   7.590   3.920  0.1745 -0.2577  0.0876
 9814W        W25283   0.878   5.554   2.084  0.1986 -0.2555 -0.1918
 9815W        W25284   7.522  17.221  10.803 -0.0234  0.2797 -0.1892
 9816W        W25285   2.068   0.848  15.074  0.0297 -0.1332  0.2789
 9817W        W25286  12.355   2.497   1.535  0.1368 -0.0910 -0.3000
 9818W        W25287   1.571   4.554   5.180 -0.0457 -0.1741  0.1361
 9819W        W25288  15.749   8.631  13.351 -0.1671  0.0206 -0.0189
 9820W        W25289   7.589   0.651   5.149 -0.2131  0.2284  0.0510
 9821W        W25290   0.077   6.101   2.023  0.1492 -0.2770 -0.1847
 9822W        W25291  18.120   3.742   5.729 -0.1464 -0.0508  0.1362
 9823W        W25292   3.504   3.313   2.491  0.0156  0.0156  0.3343
 9824W        W25293  11.644   7.975  14.277 -0.0743 -0.0419 -0.1952
 9825W        W25294   1.231  10.890  14.940 -0.2962  0.2543  0.0597
 9826W        W25295  12.795   6.812  15.357 -0.0352  0.2364  0.2677
 9827W        W25296   0.190   1.051   0.844  0.2649  0.1903 -0.0199
 9828W        W25297  13.312  14.521   1.453 -0.1505  0.0582 -0.0387
 9829W        W25298   0.365  14.639  14.648 -0.1505  0.3405  0.0257
 9830W        W25299   8.234  15.263   1.493  0.0691 -0.0868 -0.1151
 9831W        W25300   3.851  18.009  14.864  0.4332  0.3150  0.1349
 9832W        W25301   4.747  15.780  13.272 -0.1506 -0.2193  0.1023
 9833W        W25302   4.788   0.350   0.066  0.1127  0.2532  0.2762
 9834W        W25303   0.818  10.861  12.245  0.0108 -0.2234 -0.0761
 9835W        W25304  15.690   6.319  14.736 -0.1116 -0.0017  0.1133
 9836W        W25305  12.940   8.602   0.509 -0.0053  0.1735 -0.2228
 9837W        W25306   2.661  14.260  15.598  0.2371 -0.1427  0.2076
 9838W        W25307   0.471  12.065   0.174  0.3307 -0.2425  0.0658
 9839W        W25308   4.907   2.279   0.389  0.0223  0.1184 -0.1268
 9840W        W25309  17.622   2.135  11.162  0.0399  0.2343  0.0994
 9841W        W25310   9.168  16.040  12.872  0.2402 -0.4932  0.1475
 9842W        W25311  18.491  13.878   2.252  0.0828 -0.0891  0.1050
 9843W        W25312   0.080  15.351   2.600  0.3054  0.0709 -0.2775
 9844W        W25313   1.484  13.008   1.844  0.1429  0.0530  0.2055
 9845W        W25314   6.576   9.596   3.410 -0.2355 -0.0846 -0.0946
 9846W        W25315   4.023   0.423  14.225  0.0734  0.0119  0.0895
 9847W        W25316   7.430  16.572  12.617 -0.0619  0.0576  0.1826
 9848W        W25317  16.172   7.228   4.176 -0.1441  0.3180 -0.3359
 9849W        W25318   8.540  10.372  13.296 -0.1962  0.0914 -0.0480
 9850W        W25319   3.942   3.666  10.727 -0.1298  0.4503 -0.2205
 9851W        W25320  15.676   7.945   3.926  0.1730  0.0589  0.2748
 9852W        W25321  11.109   8.303  11.340 -0.0742 -0.0853  0.1576
 9853W        W25322   6.443   0.501   5.152  0.0147  0.0665  0.1123
 9854W        W25323   0.572  13.104   4.357  0.0398 -0.0384  0.1482
 9855W        W25324  13.959   5.049   1.886 -0.0276 -0.0478 -0.0598
 9856W        W25325  17.095  11.315   4.373  0.2746  0.2541  0.2346
 9857W        W25326  11.860   5.338   0.261 -0.3342  0.0982 -0.1789
 9858W        W25327  11.796  15.875   1.678  0.0338  0.1642  0.0139
 9859W        W25328  18.497   9.187  14.184 -0.0934 -0.1486  0.0731
 9860W        W25329  12.285  13.210  14.606  0.2687  0.3764  0.3756
 9861W        W25330   3.265   6.976  14.213 -0.1380  0.0609 -0.2654
 9862W        W25331   5.950   5.702   4.261 -0.2983 -0.0182 -0.2084
 9863W        W25332   7.189  15.134  14.325 -0.3379  0.0252 -0.4618
 9864W        W25333  13.272  12.780  11.712 -0.0419 -0.2321  0.1711
 9865W        W25334  10.224   3.451   3.800 -0.4049 -0.2376 -0.0523
 9866W        W25335   9.122   8.094   4.657  0.1288 -0.2285 -0.1802
 9867W        W25336   4.869   3.782  13.704  0.1214 -0.0701  0.2321
 9868W        W25337   4.281  17.984  12.764  0.0769 -0.3245 -0.2564
 9869W        W25338  15.858   1.953   0.006  0.0695  0.1693  0.1560
 9870W        W25339  15.688  12.162  15.249 -0.1016 -0.0761 -0.0057
 9871W        W25340   5.867   0.864   5.785  0.1058  0.0144 -0.0309
 9872W        W25341  15.457   2.603  12.016 -0.2479  0.3361 -0.0342
 9873W        W25342  12.525  15.097  14.600  0.2410  0.0708 -0.1878
 9874W        W25343   3.131   0.268  14.342 -0.1529  0.1971  0.0416
 9875W        W25344   0.398   8.510   0.618  0.0016 -0.1915 -0.1856
 9876W        W25345  18.153   6.585  13.972  0.0547  0.0614 -0.0893
 9877W        W25346   3.204   5.826  13.825  0.1701 -0.0080  0.0794
 9878W        W25347   6.319   0.549  12.474  0.2369  0.0395 -0.3029
 9879W        W25348  12.587  10.178  10.428 -0.2611  0.0698 -0.0810
 9880W        W25349  15.411   6.105  11.094  0.1382 -0.0700  0.0104
 9881W        W25350   5.553   7.410   1.703 -0.0015  0.0778  0.2841
 9882W        W25351  14.894  12.217  12.438  0.1696  0.0140  0.1011
 9883W        W25352   7.461  15.530   5.623 -0.0979  0.2780  0.0026
 9884W        W25353  16.793   5.744   0.830  0.1599 -0.1358  0.1609
 9885W        W25354   7.546  16.834   2.070 -0.0986  0.2137  0.0165
 9886W        W25355   7.956  16.646  15.250 -0.0851 -0.1074  0.1309
 9887W        W25356   8.277   8.658   0.329  0.0259  0.0714 -0.0246
 9888W        W25357  13.263  18.180   0.277 -0.2461  0.0643 -0.0955
 9889W        W25358   6.520  18.602   5.128 -0.3314  0.2672  0.1910
 9890W        W25359   6.575  18.672   2.504 -0.0433 -0.0563  0.2223
 9891W        W25360   7.998   5.277  15.148 -0.1258  0.2714  0.2151
 9892W        W25361  16.988  13.917  14.027  0.2756  0.3234 -0.0919
 9893W        W25362  17.652   3.955  11.629 -0.3059  0.1250  0.2897
 9894W        W25363   7.644   4.535  10.451 -0.0268 -0.2979  0.1566
 9895W        W25364  15.055  18.072  13.191  0.0132 -0.0869  0.0510
 9896W        W25365   5.629   4.487   1.338  0.2013  0.0379 -0.1699
 9897W        W25366  15.154   2.666   0.961  0.1581  0.0015 -0.0316
 9898W        W25367   1.327   0.612   4.702 -0.2194  0.4712  0.1138
 9899W        W25368   7.855  14.371   9.936 -0.3335 -0.2121 -0.0134
 9900W        W25369   2.180   5.644  12.041 -0.2003 -0.1203  0.0391
 9901W        W25370   3.721   8.289  15.177  0.0378 -0.0518  0.2632
 9902W        W25371   9.037  13.163   2.817  0.1170  0.1194  0.0183
 9903W        W25372   8.703   1.794  15.295  0.0332  0.1412  0.0790
 9904W        W25373   0.023   1.579  14.915 -0.2194  0.1650  0.3532
 9905W        W25374  14.230  17.302  15.463  0.2915  0.1579 -0.1542
 9906W        W25375  12.035   6.265  15.442 -0.4701  0.1697  0.2818
 9907W        W25376  11.945  11.227   2.625 -0.0808  0.2686  0.3680
 9908W        W25377  11.374  17.171  11.076 -0.0003  0.1333  0.0812
 9909W        W25378  18.454   2.411   3.301  0.2117 -0.0943  0.3262
 9910W        W25379  12.533  16.364  14.719  0.4056 -0.3707 -0.3226
 9911W        W25380   6.352  13.125  11.369  0.0131  0.2879  0.0688
 9912W        W25381  18.332   4.322  14.828 -0.0209 -0.2823 -0.1907
 9913W        W25382   1.521   2.022  11.353  0.0731  0.3312 -0.1845
 9914W        W25383  18.028  15.728  12.295 -0.0169  0.1445  0.1569
 9915W        W25384  17.804  12.738   1.247  0.2022  0.4665 -0.1473
 9916W        W25385   8.036  15.477  12.196  0.1391 -0.1603  0.1227
 9917W        W25386   5.463  12.241  15.409 -0.1704  0.3238 -0.4349
 9918W        W25387   5.752   7.419   3.545 -0.1147  0.1471  0.1775
 9919W        W25388  15.066  15.933   4.818 -0.0904  0.1417 -0.0566
 9920W        W25389   8.710  12.474   1.633 -0.2647  0.2915 -0.0125
 9921W        W25390  15.205   7.787   3.433  0.2604  0.2648 -0.1325
 9922W        W25391   2.777   6.585   1.363 -0.0916 -0.1417  0.3541
 9923W        W25392  14.901   3.565  13.815 -0.2471  0.0801 -0.1023
 9924W        W25393   7.860  13.908  11.376 -0.1769  0.2910  0.2227
 9925W        W25394  16.570  18.027   3.104  0.0188 -0.2578  0.4908
 9926W        W25395   6.678   4.244   3.184 -0.2164 -0.1911  0.2715
 9927W        W25396  16.361  14.710  13.647  0.0840 -0.1410 -0.4276
 9928W        W25397   8.129   3.733   1.586 -0.0489  0.2601 -0.3200
 9929W        W25398  12.156   1.888   0.331 -0.0169 -0.1152 -0.2558
 9930W        W25399  16.977   0.206   2.395  0.0664  0.1870  0.1227
 9931W        W25400   6.861  15.064  15.418  0.0749  0.1205  0.0243
 9932W        W25401  16.038   3.661  13.688  0.0405 -0.0753 -0.0498
 9933W        W25402   6.452   3.211  12.320  0.3847 -0.1259  0.1901
 9934W        W25403   3.060  10.220  12.364 -0.0377  0.0213  0.2654
 9935W        W25404  11.031  17.221   3.441  0.1252 -0.0493  0.2367
 9936W        W25405   3.911   5.664   1.092  0.0643  0.0688  0.0499
 9937W        W25406   1.522  10.145   4.529  0.1219 -0.2401  0.3526
 9938W        W25407  13.831  13.395   5.643 -0.1370  0.2195  0.3665
 9939W        W25408  15.296  10.237   0.255 -0.0727 -0.0921 -0.0129
 9940W        W25409  16.173  15.692   3.771 -0.0935  0.1343  0.1283
 9941W        W25410  12.161  16.758   0.827  0.1192 -0.0359 -0.1971
 9942W        W25411   6.678   5.647   0.802 -0.2607 -0.3193  0.1589
 9943W        W25412   6.657   5.077   2.267 -0.1462  0.0660 -0.0616
 9944W        W25413  14.965  17.832   3.848  0.2282  0.1815  0.1373
 9945W        W25414   4.454   4.216   1.075  0.1990 -0.0496 -0.1461
 9946W        W25415  11.059   0.818  13.193 -0.3928  0.3098  0.3121
 9947W        W25416  14.214   0.316  14.483 -0.1981 -0.0048  0.0001
 9948W        W25417   4.988   5.744   1.072  0.0240 -0.0625  0.2143
 9949W        W25418  16.560  18.206  12.655  0.1052  0.1781  0.0950
 9950W        W25419   8.600  16.846   2.049 -0.4912 -0.1021 -0.2047
 9951W        W25420  13.372   0.110   4.338 -0.2656  0.2418 -0.1567
 9952W        W25421  14.155   5.751   0.304 -0.3316 -0.0605 -0.1958
 9953W        W25422  16.923   7.513  13.829  0.1698  0.2217 -0.2793
 9954W        W25423   4.060   4.767  15.493  0.2634  0.0821 -0.1435
 9955W        W25424   4.608  10.552   4.803 -0.0118 -0.0904  0.1780
 9956W        W25425  16.574   1.129   5.208 -0.1666 -0.2078 -0.3496
 9957W        W25426  18.386   1.924  14.861 -0.0219  0.0936 -0.2013
 9958W        W25427   8.266  12.175   2.168  0.1231 -0.0146 -0.1654
 9959W        W25428   2.296  17.307   4.034 -0.1197  0.3344  0.0712
 9960W        W25429   0.718   2.481   5.568  0.0924 -0.3248  0.1126
 9961W        W25430   0.260   4.547   4.685  0.0827 -0.2064  0.0745
 9962W        W25431  11.323   8.648   2.786  0.1875  0.1778  0.0102
 9963W        W25432  17.684   5.005  13.679 -0.0333 -0.0567 -0.0223
 9964W        W25433  15.964  18.715  11.145  0.0066  0.1647 -0.1331
 9965W        W25434   5.367   9.873   4.591  0.1187  0.0938 -0.0050
 9966W        W25435   1.440  13.956   0.053  0.0835 -0.0540  0.1249
 9967W        W25436  17.046   5.947   5.926  0.1369  0.1477 -0.1310
 9968W        W25437   6.979   6.801   2.810 -0.2621  0.0852 -0.3003
 9969W        W25438   8.047   2.910   3.770 -0.3900 -0.0080 -0.1416
 9970W        W25439   4.032  10.730   3.977  0.0237  0.1524  0.0635
 9971W        W25440  16.687   6.806  15.578 -0.2763  0.3380  0.3907
 9972W        W25441   8.148  10.357  11.332  0.2387  0.2752 -0.2165
 9973W        W25442  16.271   2.817  14.759  0.2826 -0.1001  0.1824
 9974W        W25443  18.613  11.742   0.719  0.0707  0.0178  0.1816
 9975W        W25444   8.772   5.394   1.111 -0.1369 -0.1689  0.1051
 9976W        W25445   2.411   5.966  14.423 -0.0933  0.2732 -0.0329
 9977W        W25446  12.230   8.142  11.251  0.0548 -0.1337  0.1380
 9978W        W25447   4.139   6.771   1.719 -0.2904 -0.2908 -0.0050
 9979W        W25448  16.754  13.399   5.420  0.1558  0.1261 -0.1600
 9980W        W25449  15.557   7.247   2.422 -0.1589  0.1956 -0.0973
 9981W        W25450  15.174   0.918   2.531 -0.0281  0.0659  0.1764
 9982W        W25451   6.197   5.669  11.092 -0.2761 -0.3504 -0.0769
 9983W        W25452  14.182   6.469   4.943  0.1032 -0.0318  0.1054
 9984W        W25453   8.614  13.982   0.982  0.1483  0.3882 -0.3207
 9985W        W25454   2.221  16.663  12.185 -0.1364 -0.0905 -0.1249
 9986W        W25455   2.615   6.362  13.662 -0.1800 -0.1700 -0.0229
 9987W        W25456  12.067   4.262   9.648 -0.2319 -0.3070 -0.0479
 9988W        W25457  11.959   7.935   3.030 -0.1775  0.1058 -0.0444
 9989W        W25458   6.072   2.899  10.683 -0.2677  0.2157 -0.0344
 9990W        W25459   3.239   1.915  11.984 -0.2270 -0.0365  0.0096
 9991W        W25460   0.955  12.355   2.050 -0.2704 -0.1482 -0.0843
 9992W        W25461   5.427   5.629  11.507 -0.0147 -0.1145  0.2104
 9993W        W25462  11.615  18.554  12.861  0.0066 -0.1565  0.2262
 9994W        W25463  15.354  10.550  12.594 -0.0689  0.3257 -0.1995
 9995W        W25464  12.518  18.588  15.410 -0.4050  0.0263 -0.0717
 9996W        W25465   3.336   6.442   1.262 -0.0460  0.1358  0.1266
 9997W        W25466   9.333   7.806  11.529 -0.3942 -0.1202 -0.1230
 9998W        W25467  15.982  10.207  10.824  0.0690 -0.0448 -0.1160
 9999W        W25468   2.198   9.400   4.732 -0.0500 -0.2941  0.3074
10000W        W25469  15.215   4.285   4.993 -0.2308 -0.1182  0.0961
10001W        W25470   2.030   7.255  14.681 -0.3059  0.1131  0.1595
10002W        W25471  10.221  18.488  12.922 -0.0857 -0.2681 -0.0314
10003W        W25472   1.864  12.221   2.042 -0.0906 -0.3293 -0.3894
10004W        W25473   0.083  16.659   5.341 -0.0656 -0.1507  0.3835
10005W        W25474  15.568  13.930   5.547  0.1618  0.3235 -0.2874
10006W        W25475   4.884   0.956   2.942  0.4051  0.2576  0.0732
10007W        W25476   9.424  11.936   2.836  0.0576  0.0057  0.0632
10008W        W25477  17.671  17.643  11.016  0.2397  0.0749 -0.0957
10009W        W25478  15.320   0.641   4.017 -0.1210 -0.1930 -0.3153
10010W        W25479   6.639   2.253  15.414  0.0884 -0.1918 -0.0164
10011W        W25480  16.246  13.746   1.566  0.1244  0.0784 -0.1311
10012W        W25481  11.762   7.009   4.862 -0.2141 -0.2948 -0.1711
10013W        W25482   1.506   9.458  11.782  0.3707 -0.4180 -0.2928
10014W        W25483   2.632   0.917  14.405 -0.2866  0.0484  0.1843
10015W        W25484   4.639  11.948  14.192 -0.0520 -0.0738 -0.2426
10016W        W25485   6.176   3.917  13.858  0.0751  0.1488 -0.2243
10017W        W25486  18.176  13.691  14.003  0.1626 -0.2154  0.4320
10018W        W25487  15.626   2.649  15.275 -0.0054 -0.0444  0.0927
10019W        W25488  16.695   6.701  11.699  0.1776 -0.0605 -0.2778
10020W        W25489  18.658   5.731   3.538  0.0210  0.1621 -0.0581
10021W        W25490   7.501   5.781  10.481  0.1031 -0.1210  0.0278
10022W        W25491  17.639  14.196  14.703  0.3705 -0.0358  0.0546
10023W        W25492   0.408  10.403   2.331 -0.1331 -0.0551 -0.2049
10024W        W25493  17.738  12.654  14.480 -0.3115 -0.1741 -0.1795
10025W        W25494  16.565  15.129  10.378 -0.1057  0.0503  0.1320
10026W        W25495  13.009   2.577  11.889 -0.1408  0.2412 -0.2325
10027W        W25496   2.388  12.144   1.269  0.0964  0.0848  0.0201
10028W        W25497   3.469   9.738  11.563 -0.0119 -0.2845 -0.0412
10029W        W25498  11.935   6.522   4.054  0.1287  0.1546  0.2422
10030W        W25499  10.683   5.429   0.539  0.0100  0.0809  0.2908
10031W        W25500   6.533   5.575   0.145 -0.1049 -0.0814 -0.1360
10032W        W25501   1.411  12.306   2.528  0.1732  0.0825  0.1579
10033W        W25502  18.046   5.563   5.408 -0.1793 -0.0167 -0.1332
10034W        W25503   3.808   9.759   1.310  0.3115 -0.1511  0.0198
10035W        W25504   3.402   6.187   0.794  0.0884  0.2023 -0.1732
10036W        W25505  13.576  10.556   0.989 -0.0094  0.0582  0.1448
10037W        W25506   0.733  14.102  10.187  0.1490 -0.2279  0.1927
10038W        W25507   6.784  11.105  11.481 -0.1152 -0.0425 -0.1088
10039W        W25508   9.541  14.748  14.234 -0.2515 -0.1055  0.1992
10040W        W25509  15.350  12.173   0.411 -0.3540  0.0793  0.2236
10041W        W25510   2.716  18.498   4.008 -0.3264  0.2339  0.0452
10042W        W25511  18.087  16.713   1.131  0.1082  0.0712  0.2878
10043W        W25512   0.248  15.009  12.109 -0.0953 -0.1479  0.2791
10044W        W25513  14.229   1.608   4.731  0.1489  0.0102  0.0677
10045W        W25514   5.011  15.759   3.485  0.1516  0.2796  0.1513
10046W        W25515   2.716  14.155  13.014 -0.0296 -0.2216 -0.0795
10047W        W25516  16.126  10.963  13.238  0.2219 -0.0730 -0.1369
10048W        W25517  13.671   5.227   1.331 -0.0945 -0.4051 -0.3119
10049W        W25518   9.075   3.562   2.429 -0.3395 -0.4403 -0.0666
10050W        W25519  11.578   2.792  15.281  0.0905  0.0092 -0.2589
10051W        W25520  10.864   3.033  14.649  0.2513  0.3065 -0.2002
10052W        W25521   8.053  16.116  11.964  0.3469 -0.2864  0.1757
10053W        W25522   9.707   4.083  13.202  0.0399 -0.2513 -0.1101
10054W        W25523  18.681  12.156   0.417 -0.3170 -0.2968 -0.1794
10055W        W25524   0.937   0.399  11.012 -0.3866 -0.2573 -0.4456
10056W        W25525   2.833  15.986   3.157 -0.0054  0.2462  0.1255
10057W        W25526   0.201   9.091  10.632  0.0616  0.2600 -0.3582
10058W        W25527   2.863  11.556  12.160 -0.1049  0.2136 -0.2898
10059W        W25528  10.730   6.172   3.325 -0.2236 -0.0352  0.1506
10060W        W25529  13.443  14.169   5.337 -0.2083  0.0774  0.3604
10061W        W25530   5.310   0.996   3.771  0.3146 -0.2122  0.0786
10062W        W25531  13.452  13.639  11.711 -0.1239  0.4335 -0.0411
10063W        W25532  17.667   1.983   1.365  0.0196  0.0475 -0.0404
10064W        W25533   3.714  16.391   0.624 -0.1881  0.0549 -0.0515
10065W        W25534  17.950   7.877  12.807  0.0754 -0.2638 -0.0125
10066W        W25535   8.095   0.309   3.684 -0.0219  0.0362  0.0409
10067W        W25536   5.803   5.024   1.274  0.2623  0.0226  0.0429
10068W        W25537  13.554  15.246   3.442 -0.3795 -0.0717  0.2464
10069W        W25538   8.078  10.019  14.859  0.0931  0.2563  0.1533
10070W        W25539   1.692   4.226  14.392  0.5341 -0.3189 -0.0223
10071W        W25540   5.777  15.677   1.746 -0.0803 -0.0070 -0.2635
10072W        W25541  13.038   9.314  13.221 -0.0118  0.1836  0.0998
10073W        W25542   7.693   6.601   2.347 -0.1989 -0.0243 -0.0648
10074W        W25543   1.965   7.064  14.228  0.0544  0.1859  0.1126
10075W        W25544  16.030  17.020   3.184 -0.1382  0.1472  0.2669
10076W        W25545   6.222  18.127   9.980 -0.3896 -0.0025 -0.3696
10077W        W25546   3.001   7.931  14.450 -0.1465 -0.1770 -0.1247
10078W        W25547  13.449   1.354  14.683 -0.1622 -0.1263 -0.0589
10079W        W25548  16.037  18.707  12.095 -0.3184 -0.2104  0.1657
10080W        W25549   9.890  16.655  14.137  0.0059 -0.0353  0.1155
10081W        W25550   5.397  15.994   0.424  0.0223  0.1833  0.2717
10082W        W25551   8.418  17.143  12.808 -0.1933  0.0113  0.1311
10083W        W25552  15.450   2.982   5.143 -0.2779 -0.1570 -0.1056
10084W        W25553  16.986   5.448  11.201  0.1225  0.1543 -0.0275
10085W        W25554  17.793  18.085   3.488  0.4909  0.3311 -0.1363
10086W        W25555  13.127  18.625   4.039  0.0723  0.1778  0.1720
10087W        W25556   6.607  18.386  10.406  0.1230  0.0861 -0.2002
10088W        W25557  18.279  17.892   3.586 -0.1813 -0.0359 -0.0937
10089W        W25558   5.556  18.662   5.413  0.1176 -0.2555  0.2105
10090W        W25559   8.057   9.003   0.664  0.3141 -0.2525 -0.1743
10091W        W25560   2.270  16.809   0.014 -0.4372  0.0902  0.1269
10092W        W25561   3.873   2.974   0.022 -0.1629  0.1318  0.0647
10093W        W25562   9.109   3.188   3.735  0.0545 -0.2929  0.5025
10094W        W25563   0.394  18.220   4.242 -0.0999 -0.0263 -0.0462
10095W        W25564   2.222  17.468  10.245 -0.0228 -0.1730 -0.0734
10096W        W25565   0.999  16.256  11.624  0.3245  0.1302  0.2123
10097W        W25566  12.799   2.182  14.040  0.0704 -0.2498 -0.0735
10098W        W25567   1.207   4.777  15.000 -0.1066 -0.4078  0.2638
10099W        W25568   1.393  18.556   5.180  0.1207  0.3370 -0.2888
10100W        W25569   9.127  17.571   0.267  0.2814  0.1546 -0.0413
10101W        W25570  11.789   6.480  11.091 -0.4054 -0.0488 -0.3695
10102W        W25571  15.310   0.395   3.140 -0.0187 -0.1414  0.0896
10103W        W25572  11.335   1.980   0.675 -0.1125  0.1679 -0.2595
10104W        W25573   9.599  14.468  13.261 -0.0138 -0.0100 -0.3054
10105W        W25574   6.213   0.672   1.925 -0.1561 -0.0220  0.2044
10106W        W25575   3.521   1.136  12.339  0.0889  0.1498  0.1784
10107W        W25576  11.694  10.027  10.101  0.1042  0.0182 -0.0250
10108W        W25577  16.936  13.718   1.092  0.2556  0.0289 -0.3065
10109W        W25578   9.570   1.338  13.994  0.2558 -0.1159 -0.5065
10110W        W25579  15.367   1.160   4.249 -0.0880 -0.4720 -0.0364
10111W        W25580  13.725   2.992   4.624 -0.0206  0.2496 -0.2303
10112W        W25581   3.419   6.216   4.182 -0.1838  0.1027  0.1315
10113W        W25582   4.407  17.677  12.113  0.1983 -0.0761 -0.1419
10114W        W25583  12.145  17.804   3.346  0.2198 -0.0704  0.1256
10115W        W25584   6.329   5.043  14.796 -0.2695 -0.0905 -0.0070
10116W        W25585  12.904  16.373   3.932 -0.2860 -0.0588  0.1363
10117W        W25586   9.343  15.255   0.860 -0.2121  0.2142  0.1319
10118W        W25587   3.372   0.182   3.378  0.2402 -0.0997 -0.3212
10119W        W25588  13.256   8.813   1.928  0.0703  0.1917 -0.0563
10120W        W25589  10.365   6.382   2.048  0.1003 -0.0135 -0.3496
10121W        W25590   4.240  13.275  15.269  0.2589 -0.0347  0.2255
10122W        W25591  18.195  12.020   0.631  0.0429  0.0407 -0.0349
10123W        W25592  10.071  17.289  10.031 -0.3938 -0.1035 -0.5293
10124W        W25593  10.754   8.752  15.649 -0.1872  0.0850  0.1081
10125W        W25594  10.513   5.509  12.680 -0.1513  0.1056 -0.1675
10126W        W25595  11.942   9.643   0.557  0.2710  0.1398  0.0331
10127W        W25596  15.458   5.695   1.436 -0.0295  0.2217  0.0036
10128W        W25597   3.724   2.393  13.915 -0.0932 -0.1696 -0.1541
10129W        W25598  16.569   3.431   2.100  0.2591  0.1258 -0.0898
10130W        W25599   7.121   1.119  12.461 -0.0239 -0.0351 -0.1694
10131W        W25600   8.765  17.351  10.568  0.2022 -0.1211 -0.0492
10132W        W25601   9.191  18.458  14.933 -0.2130  0.0840 -0.0557
10133W        W25602  16.312   1.097   0.802 -0.1293 -0.1080 -0.1550
10134W        W25603  18.405   8.750  13.272 -0.0378  0.0093 -0.0153
10135W        W25604  12.320   6.640  13.161  0.1435  0.1894 -0.0142
10136W        W25605  14.619   9.791  14.434  0.2001 -0.2642  0.0424
10137W        W25606   5.231   7.283   3.518 -0.0132  0.1720 -0.1200
10138W        W25607   9.518   8.498   0.869 -0.1756  0.0422  0.0828
10139W        W25608  16.355   9.048  12.757  0.1389  0.0283  0.2181
10140W        W25609  18.695  14.367   0.431 -0.4520  0.3313 -0.2004
10141W        W25610  16.005  17.258   0.984 -0.1275  0.4463  0.0751
10142W        W25611  10.157   5.632   2.470  0.0867  0.1965 -0.0452
10143W        W25612  10.849   3.390   1.393 -0.2410  0.0462 -0.0958
10144W        W25613   7.104   4.372  15.169  0.1213  0.0903 -0.1142
10145W        W25614   6.619   2.561   2.874  0.1959 -0.1507 -0.0945
10146W        W25615   3.931  11.441   3.471  0.1364 -0.1776  0.2805
10147W        W25616  13.877  13.490  12.951  0.1096  0.2096 -0.0458
10148W        W25617   0.351   8.953  15.101  0.1923  0.0644 -0.0115
10149W        W25618   2.405   5.245   2.600  0.2227 -0.0778  0.1962
10150W        W25619   3.439   1.176   1.411  0.0460  0.1049  0.0532
10151W        W25620   4.891   0.881   0.750 -0.0051  0.1029  0.0437
10152W        W25621   5.481  14.060   2.000 -0.1053  0.2864  0.1336
10153W        W25622  16.699  12.864   5.514  0.0962  0.1553 -0.0862
10154W        W25623  13.169  10.898  14.588 -0.1570 -0.1351  0.2180
10155W        W25624   0.966   2.315   4.217 -0.0647  0.0690  0.2212
10156W        W25625   6.754  12.158  11.055  0.0491  0.1536  0.1630
10157W        W25626   5.406   3.811  13.491 -0.0089  0.1182 -0.1339
10158W        W25627   8.405   5.478  14.364 -0.1585  0.1101 -0.0561
10159W        W25628   8.909   3.613  13.329 -0.2244  0.3584  0.1062
10160W        W25629   3.893   9.274  13.514  0.0191  0.5449  0.1050
10161W        W25630  13.120  12.230   2.104  0.0397 -0.0449  0.3029
10162W        W25631   1.829  10.679  13.174  0.1287 -0.0738  0.1886
10163W        W25632  16.450  11.085  10.780 -0.0497  0.0742 -0.0447
10164W        W25633  18.535   3.312   2.776 -0.1561  0.1250 -0.0451
10165W        W25634   5.795  16.945  10.816  0.1192  0.2141  0.3630
10166W        W25635  12.978  15.055   4.451  0.1947  0.0534  0.0685
10167W        W25636  11.354   1.728  14.149  0.2762 -0.2934 -0.1271
10168W        W25637  17.630   5.948   3.687 -0.1354 -0.0119  0.1052
10169W        W25638   9.917  15.104   0.041 -0.1736  0.1119 -0.0767
10170W        W25639  15.575  16.720  12.100  0.1560 -0.0413 -0.0071
10171W        W25640   4.671  18.095  11.774 -0.0914 -0.0675 -0.2123
10172W        W25641  11.972   0.186  14.673 -0.1119 -0.1439 -0.2445
10173W        W25642  12.874   4.546   0.163 -0.1522 -0.1659 -0.0717
10174W        W25643   1.540  10.114   0.931 -0.2466  0.2217 -0.1500
10175W        W25644   0.077  13.659  15.387 -0.0587  0.3402 -0.0580
10176W        W25645  13.152   5.362  11.337  0.3147  0.1033 -0.0346
10177W        W25646  18.778  13.510   1.431 -0.0293  0.0776 -0.1972
10178W        W25647   9.298   8.516   5.388 -0.3626 -0.2427 -0.2049
10179W        W25648   2.836  12.853  11.529  0.1355  0.4901  0.2328
10180W        W25649   9.294   0.465   3.096 -0.2009  0.0511 -0.1382
10181W        W25650  15.672  11.768   3.258  0.0044 -0.0717 -0.1111
10182W        W25651  18.283   6.552   2.039 -0.0856  0.3369 -0.1407
10183W        W25652   9.311   3.515  10.139  0.0043  0.2356  0.1146
10184W        W25653   2.719   6.640   3.101 -0.1691 -0.1250 -0.1151
10185W        W25654   6.172   7.364   4.425  0.0483 -0.0563 -0.0882
10186W        W25655  14.692  16.140   2.924 -0.0458  0.0715  0.1087
10187W        W25656  18.059   4.648   3.177  0.1683 -0.4316 -0.3426
10188W        W25657  17.569   2.795  12.609 -0.3031  0.3358  0.0188
10189W        W25658   4.238  18.271   0.422  0.1226  0.1230  0.1712
10190W        W25659   2.625   3.648   9.426  0.1878 -0.2125  0.1358
10191W        W25660   0.315  14.301   2.993  0.4382  0.3316  0.2361
10192W        W25661   6.161  13.000  15.674  0.0587 -0.2544  0.0485
10193W        W25662  13.545  12.634  14.678 -0.1512 -0.0640  0.1778
10194W        W25663  18.774   5.022  11.744  0.1262  0.0856  0.3879
10195W        W25664   4.545  16.570  15.156 -0.2605 -0.1232 -0.2796
10196W        W25665   2.607   4.651  13.299 -0.0354 -0.0890 -0.3333
10197W        W25666  14.182   0.944   3.329  0.0693  0.0412  0.2669
10198W        W25667  11.703   1.689  14.615 -0.3447 -0.3517  0.0701
10199W        W25668  14.631   7.726   2.682  0.3201 -0.0628  0.0374
10200W        W25669  10.491   0.000  11.743  0.0905 -0.1860 -0.1524
10201W        W25670   1.654   4.148  15.334 -0.1057  0.3830 -0.1141
10202W        W25671   2.149   8.404  15.000 -0.2526 -0.0307  0.0121
10203W        W25672  16.304   7.655   4.814 -0.1587 -0.0382 -0.0411
10204W        W25673  10.523  14.286  10.876  0.0165  0.3126  0.0756
10205W        W25674  15.660  11.774   0.048 -0.2589  0.0832 -0.0495
10206W        W25675   6.405  13.076   4.263 -0.1118 -0.1634  0.2158
10207W        W25676  11.797  15.687  13.659  0.1225  0.5385 -0.0075
10208W        W25677  14.811   1.378   4.682 -0.0521  0.0513 -0.0375
10209W        W25678   9.786   7.565   4.231  0.2347 -0.4093  0.2899
10210W        W25679   4.283   1.818  10.532 -0.0015 -0.1330  0.1095
10211W        W25680   5.079   9.920  15.225 -0.0030  0.2485  0.1851
10212W        W25681   4.313   7.419  13.655  0.3078 -0.2269 -0.2306
10213W        W25682  15.563   1.398  13.994 -0.0729  0.1076  0.0544
10214W        W25683  15.266  14.793  11.737  0.4119  0.0120  0.1187
10215W        W25684  12.433   3.150  12.021 -0.1864  0.0242  0.1118
10216W        W25685  18.560  12.186   2.153  0.0076  0.2917 -0.0021
10217W        W25686  18.728   6.473  12.653 -0.0020  0.3352  0.1125
10218W        W25687  10.227   5.912   0.195  0.1363  0.2780 -0.0008
10219W        W25688   4.590   6.563   2.971  0.1167  0.3065 -0.2712
10220W        W25689  18.362   4.582   4.046 -0.1827 -0.1429 -0.0021
10221W        W25690   9.089  12.045   9.587 -0.0513  0.0881  0.1804
10222W        W25691  14.545   4.292  13.221 -0.0390  0.0367 -0.1385
10223W        W25692   6.596  16.185  15.343  0.0693 -0.1042 -0.2008
10224W        W25693   2.272   0.006  14.096 -0.1352 -0.2159  0.1847
10225W        W25694   4.927   9.989  12.374  0.2239  0.1455  0.0831
10226W        W25695   1.323   9.110   4.092 -0.0021 -0.0214 -0.2109
10227W        W25696   3.737  11.138  14.409  0.0013 -0.1333  0.1375
10228W        W25697   3.180   4.967   9.953 -0.1563  0.2147  0.1425
10229W        W25698   1.978   2.074  11.573  0.1532 -0.0889  0.0172
10230W        W25699   8.712  14.756  12.095  0.0058 -0.0217 -0.1284
10231W        W25700   6.076  17.724   0.672  0.0477  0.0254  0.1358
10232W        W25701   4.531  16.601   5.821  0.3043 -0.1409  0.2650
10233W        W25702  15.241   8.651  13.281  0.0354  0.0349 -0.2869
10234W        W25703  10.060   0.173  14.706 -0.2419 -0.3140  0.1280
10235W        W25704  13.128   7.218   5.300 -0.2891 -0.2240  0.0526
10236W        W25705  11.301  17.732  12.320 -0.1106 -0.0383  0.1195
10237W        W25706   1.083  14.392  10.004  0.3167  0.0864 -0.1135
10238W        W25707   6.670   1.967   5.731 -0.0340 -0.0146 -0.1925
10239W        W25708   5.002   7.520   4.292 -0.0270  0.2290  0.1134
10240W        W25709   2.893   5.087   0.072  0.1919 -0.1408  0.2365
10241W        W25710   4.134   4.528   0.228 -0.1012  0.4169 -0.1350
10242W        W25711  11.163   3.733   2.428 -0.1687  0.0776  0.0835
10243W        W25712   3.902  15.876  13.224 -0.0294  0.0691 -0.0945
10244W        W25713  13.763  14.585  12.005 -0.1303 -0.2100 -0.1746
10245W        W25714   5.552   5.089  14.124  0.1173  0.1981  0.3011
10246W        W25715   3.206  11.219   4.778 -0.0327 -0.0622  0.4302
10247W        W25716   8.105  14.176   2.421 -0.1141  0.1116 -0.0335
10248W        W25717   0.896   6.600  13.640  0.2571 -0.1389 -0.3401
10249W        W25718  12.826  13.534   4.517  0.1976  0.1008 -0.0376
10250W        W25719   2.020   1.908   1.646  0.1424  0.2481 -0.2082
10251W        W25720   9.942  14.644  12.472 -0.1723  0.1297 -0.0763
10252W        W25721  10.172   4.678  12.641  0.2482  0.2213 -0.2185
10253W        W25722   6.096  16.313  15.200  0.2605 -0.0389  0.3262
10254W        W25723   0.852  14.701  10.879 -0.1658  0.2953  0.0792
10255W        W25724   2.237  17.069   3.631 -0.0499 -0.1830 -0.1756
10256W        W25725   5.230   2.816   4.750 -0.2342  0.0277 -0.0856
10257W        W25726   4.998  13.748  14.246  0.0790  0.1264  0.0232
10258W        W25727   3.184   6.280  13.658  0.3275  0.0385  0.0437
10259W        W25728  16.097  13.704   0.502  0.0286 -0.0488  0.0842
10260W        W25729  18.641   9.544  14.538  0.2354 -0.0254  0.1422
10261W        W25730   0.749  13.443  13.802 -0.4127  0.1661 -0.5015
10262W        W25731   9.961   1.547   3.663 -0.2233  0.0148 -0.2443
10263W        W25732   1.137  13.890   3.998 -0.0505 -0.1743 -0.2643
10264W        W25733   6.525   0.881   3.413 -0.1119  0.0489  0.1741
10265W        W25734   0.168  12.310  12.385 -0.1171 -0.3409 -0.0589
10266W        W25735   0.417  11.210   3.293  0.4363 -0.1067  0.0498
10267W        W25736  14.878   8.371  13.096 -0.0302 -0.2351 -0.1829
10268W        W25737   7.707  10.562   0.733 -0.0039 -0.1687 -0.0120
10269W        W25738  15.776   3.213   0.571  0.0965 -0.3050 -0.1380
10270W        W25739  15.815  17.430   1.726 -0.0921  0.0082  0.3000
10271W        W25740   4.605   1.852   0.353 -0.1578 -0.0883  0.0288
10272W        W25741  12.886  12.386  11.340 -0.0036  0.2614  0.2489
10273W        W25742  18.507  15.098   1.975  0.0219 -0.2584  0.2846
10274W        W25743  10.084  10.067  10.946  0.0826 -0.2247  0.1942
10275W        W25744  18.740   7.636   1.559  0.2355 -0.1099  0.2200
10276W        W25745  11.442  13.869  15.558 -0.4052 -0.2029 -0.0798
10277W        W25746  18.280   7.561   2.951 -0.0653  0.0076  0.1598
10278W        W25747   0.064  18.473  13.679  0.0388 -0.0221  0.0020
10279W        W25748   5.322  16.303   1.426  0.1625 -0.0473 -0.0229
10280W        W25749  11.515   6.573   1.993 -0.2295 -0.1626 -0.1516
10281W        W25750  14.760  12.078  13.477 -0.1887  0.3042  0.0001
10282W        W25751  15.204  15.734  11.130  0.3122  0.0849  0.1383
10283W        W25752   3.796   6.810   0.554 -0.0463  0.1323 -0.0514
10284W        W25753   8.372   1.077   2.915  0.1531 -0.0473 -0.1164
10285W        W25754  13.101   2.693   3.325  0.1398 -0.1460 -0.4540
10286W        W25755   3.011   8.609   1.715  0.2487  0.0862 -0.0007
10287W        W25756  17.468   5.508   3.237 -0.4449 -0.2893 -0.0375
10288W        W25757  13.248   3.897  14.658 -0.3029 -0.0236 -0.0308
10289W        W25758  15.774   7.132  11.663  0.2904 -0.1059 -0.2193
10290W        W25759   4.513   8.838   4.101 -0.2544  0.1401  0.0382
10291W        W25760  10.579   5.543  13.500  0.1002  0.3358  0.0024
10292W        W25761  10.650  15.558  13.937 -0.1661 -0.0710  0.0166
10293W        W25762   3.041   8.927  11.654 -0.3296  0.1101 -0.0815
10294W        W25763  15.783  16.770   3.820 -0.0773 -0.0919 -0.1515
10295W        W25764  18.172  12.987   3.023  0.3378  0.0446 -0.2050
10296W        W25765   8.471  13.696   1.831  0.0125  0.3745  0.5560
10297W        W25766   4.916   6.613   4.443 -0.1027  0.1691 -0.0737
10298W        W25767  18.455   1.021  13.541  0.1816  0.1024 -0.0479
10299W        W25768   3.916  17.394  14.254 -0.3441  0.2565  0.0860
10300W        W25769  18.349   2.599  14.092 -0.0971  0.0747  0.0106
10301W        W25770  16.990   4.928   1.391  0.1491 -0.0497  0.0501
10302W        W25771  16.391   0.273   1.293  0.0266  0.2084 -0.3122
10303W        W25772  18.779   2.351   4.154  0.0258 -0.3799  0.0502
10304W        W25773   1.161   8.129  11.637  0.1085  0.0602  0.1656
10305W        W25774  15.683   2.151   2.202  0.0463  0.0858  0.4683
10306W        W25775   2.758  17.248   0.078  0.0135  0.0161  0.0033
10307W        W25776  14.296  11.747  12.903  0.1805 -0.1474  0.1385
10308W        W25777  17.440  14.654  15.451 -0.2210  0.0783  0.0339
10309W        W25778  14.998  12.638   5.776  0.0991 -0.1421  0.4198
10310W        W25779  12.052   4.994   2.281 -0.0734  0.3593 -0.2220
10311W        W25780   1.188  12.284   2.947 -0.2493 -0.0071 -0.1813
10312W        W25781  12.741   7.141   4.978  0.0446 -0.0170 -0.1159
10313W        W25782  13.571  13.200   1.196 -0.0899  0.0687 -0.4488
10314W        W25783  16.065   3.484  11.513 -0.1025 -0.1067 -0.1467
10315W        W25784   1.375  16.427  12.361 -0.1812 -0.0660  0.3021
10316W        W25785   8.881  15.488   6.066 -0.1385  0.1808  0.1935
10317W        W25786  13.647   0.001  12.372  0.3703  0.1619  0.0146
10318W        W25787   4.844  17.864  15.434  0.4745 -0.0374 -0.1731
10319W        W25788  17.451   9.538  11.221  0.1882 -0.0150  0.2433
10320W        W25789  11.009   0.226   5.586  0.2122 -0.0310 -0.0075
10321W        W25790  13.218  15.351  15.221  0.1645 -0.0060 -0.3991
10322W        W25791  15.999  18.722   2.030  0.1019 -0.1387 -0.1485
10323W        W25792  14.928   7.352   3.436 -0.0084  0.0334 -0.0878
10324W        W25793   4.884   3.133  12.124  0.1691 -0.0493 -0.0136
10325W        W25794  17.791  17.509   1.959 -0.0776  0.1781  0.3578
10326W        W25795   1.653   6.184  12.688 -0.0142 -0.1405  0.1504
10327W        W25796   8.757   0.067   0.615  0.0592  0.1581 -0.0323
10328W        W25797  17.937  10.749  13.572 -0.0896 -0.1262  0.2216
10329W        W25798   2.494  15.256   4.087 -0.1821  0.0485  0.1912
10330W        W25799   2.642   3.615  10.876  0.0853  0.2299 -0.0684
10331W        W25800  12.858   3.143   4.128  0.2635  0.1463 -0.2448
10332W        W25801   9.972   6.236   0.719  0.1368 -0.0975 -0.0487
10333W        W25802   4.768  11.714  11.187 -0.1501  0.0548 -0.4413
10334W        W25803   4.295   5.641  13.936  0.0082 -0.3733 -0.1171
10335W        W25804   7.211   4.474  10.686 -0.1915  0.0789 -0.0966
10336W        W25805  12.081   8.832  10.769 -0.1539  0.1118 -0.1314
10337W        W25806  12.302   0.209  11.809  0.0209 -0.1045  0.2186
10338W        W25807   2.357   8.225  11.733 -0.2076 -0.1445  0.2945
10339W        W25808   7.858  11.887   3.303  0.1232 -0.2112  0.2796
10340W        W25809   1.436  11.829  15.199 -0.3555 -0.1786  0.1558
10341W        W25810   6.858  13.839  10.257  0.0257 -0.0429  0.3909
10342W        W25811   8.647  14.547   1.059 -0.0524 -0.1278 -0.0905
10343W        W25812  18.592  17.142  11.353  0.2359 -0.0882  0.3003
10344W        W25813  17.262   9.408  11.795 -0.2386 -0.2165  0.1151
10345W        W25814   3.191  13.227   5.349  0.1122  0.0481 -0.1882
10346W        W25815  15.844   4.531   0.088 -0.2788  0.0076 -0.2420
10347W        W25816   7.298  17.564   1.826  0.0106  0.2246  0.0165
10348W        W25817  12.974   8.863  12.134  0.3235 -0.0334  0.0940
10349W        W25818  15.544  10.728  10.565  0.0539  0.0712  0.0917
10350W        W25819  16.333  12.463   1.455  0.2026 -0.0778  0.1952
10351W        W25820  15.036  18.126   3.474  0.0675 -0.0950 -0.0934
10352W        W25821   6.862   6.249  10.786  0.0279 -0.3719  0.0875
10353W        W25822   6.383   3.773  11.540  0.1427  0.2765  0.0938
10354W        W25823  12.704   4.560   1.004 -0.0507 -0.0572  0.0883
10355W        W25824  11.692  12.704   3.934  0.0496  0.1500  0.0229
10356W        W25825  16.124   8.396   1.334 -0.0500  0.1750 -0.0988
10357W        W25826  10.277  14.830  13.843 -0.3373 -0.0785 -0.0104
10358W        W25827   6.972  11.484  11.152  0.3227 -0.3442  0.0489
10359W        W25828   5.887   6.573   4.356  0.2285 -0.0323 -0.0576
10360W        W25829  18.064  15.832  15.066  0.1518 -0.0617  0.1355
10361W        W25830   5.299   7.347   2.623  0.1414 -0.0073  0.1619
10362W        W25831  16.280  18.255   1.831  0.0329 -0.0304 -0.0931
10363W        W25832   4.678   5.685   0.483  0.0344 -0.1971 -0.2780
10364W        W25833  18.374   7.694  13.139 -0.2197 -0.0675  0.4974
10365W        W25834  15.479   2.349   4.513 -0.5889  0.0751  0.3174
10366W        W25835  10.576  12.119   5.071  0.0467  0.1651 -0.0097
10367W        W25836   8.733   6.087  13.295  0.1074 -0.1057 -0.1458
10368W        W25837   3.502  16.471  14.166  0.1201 -0.0269  0.2631
10369W        W25838   5.539   6.020   1.394  0.1761 -0.0675 -0.0445
10370W        W25839   2.150  15.008  15.305 -0.0114 -0.1502 -0.1944
10371W        W25840   7.253  14.970  13.863 -0.1394 -0.1683  0.2503
10372W        W25841  11.228  17.423   2.077 -0.0568 -0.2350 -0.0246
10373W        W25842   9.560  13.744   9.649  0.0228  0.0958  0.0115
10374W        W25843  15.751   4.872   5.631  0.4247  0.0788  0.1306
10375W        W25844   5.553   8.154  11.878  0.2107 -0.1203  0.3595
10376W        W25845   2.036   2.209   0.648 -0.2858 -0.3209  0.1749
10377W        W25846   8.826   7.649  13.890  0.1083 -0.1651  0.3496
10378W        W25847   7.819   8.016   4.477 -0.0305  0.2055  0.2878
10379W        W25848   2.449   0.692   2.199  0.0203 -0.3884  0.1541
10380W        W25849  15.360  12.173   3.270 -0.1721  0.2538 -0.2406
10381W        W25850   9.043   8.010  13.549  0.5097  0.1356  0.1719
10382W        W25851  12.830   5.027   1.066  0.0179 -0.3252  0.0950
10383W        W25852   8.844  13.121  10.986 -0.3918 -0.1247 -0.1641
10384W        W25853  16.582   6.273   4.295  0.0480  0.1809  0.0459
10385W        W25854  12.478   2.941  12.965  0.1160 -0.1662 -0.1154
10386W        W25855   3.201   2.460   2.883  0.0587 -0.1314 -0.1832
10387W        W25856  11.249  15.863   4.577  0.0957 -0.1703 -0.1005
10388W        W25857   9.843  10.819   3.838  0.2750  0.0332 -0.2394
10389W        W25858   4.684  18.717  14.018 -0.2169 -0.0142  0.0605
10390W        W25859   7.935  17.984  14.291  0.0452 -0.0201 -0.0590
10391W        W25860   6.442   7.553  11.798  0.3265  0.0869  0.3778
10392W        W25861  12.022  11.440   1.766 -0.1096  0.0685  0.3419
10393W        W25862  12.638   1.960   0.060 -0.3329  0.3424  0.2678
10394W        W25863   6.108   0.444   9.996  0.0968 -0.3152  0.0951
10395W        W25864   9.257   0.232   2.581  0.0621  0.3391  0.0752
10396W        W25865   7.328  16.096  10.944 -0.3637  0.1213  0.1179
10397W        W25866   8.876   0.461   4.067  0.0850  0.2164 -0.2602
10398W        W25867  13.103   8.830   4.499  0.2943  0.1238 -0.0994
10399W        W25868   2.453  16.688  14.224  0.0852  0.1593 -0.1432
10400W        W25869   7.793  13.025   1.498  0.1227  0.3029 -0.2288
10401W        W25870  14.829   8.345  14.469  0.0009  0.0489  0.2185
10402W        W25871   4.244  18.763   0.923  0.0082 -0.0807 -0.3010
10403W        W25872  17.912   4.873  13.101  0.1641  0.2351 -0.1403
10404W        W25873   0.212  15.595  12.779  0.0772 -0.1882  0.0210
10405W        W25874  17.773   0.357   2.926 -0.0461  0.1951 -0.0125
10406W        W25875  17.375  15.478  14.120 -0.0740  0.1720 -0.3010
10407W        W25876   6.142  13.259   2.377  0.0396 -0.3382  0.0960
10408W        W25877   5.901  17.985   2.829  0.2985 -0.0749 -0.0918
10409W        W25878  11.749   4.720   3.209  0.1414 -0.2074 -0.0125
10410W        W25879  10.420   0.149  15.487  0.0481 -0.1839 -0.0194
10411W        W25880  17.506   7.047  10.489 -0.1481 -0.3046  0.0554
10412W        W25881  11.774   8.607   4.073  0.3570 -0.0487 -0.1812
10413W        W25882   6.560  11.976  13.158  0.0659  0.4283 -0.0727
10414W        W25883  16.290   3.967  11.972  0.0996  0.1375  0.0150
10415W        W25884  15.612  18.718   2.532 -0.0776  0.1541 -0.3310
10416W        W25885  13.000  16.519  12.727 -0.0135  0.1969  0.0816
10417W        W25886  12.775   6.716  12.059 -0.0092  0.1572  0.0054
10418W        W25887  13.972   0.233   3.067 -0.3676  0.1176  0.0977
10419W        W25888  10.327  10.369  13.163 -0.1693  0.0151 -0.0030
10420W        W25889  16.196   2.225   4.277  0.3972 -0.0975  0.0720
10421W        W25890   0.424   7.362  13.152 -0.1984 -0.0493 -0.2410
10422W        W25891  16.007   3.532  12.021  0.0346 -0.1165 -0.1520
10423W        W25892   4.276  17.642  14.626 -0.0597 -0.2939 -0.1782
10424W        W25893   9.480  18.466   2.013 -0.2403 -0.0731 -0.1270
10425W        W25894   3.034  13.891   4.581 -0.0902 -0.1362  0.0880
10426W        W25895   8.894  18.314   3.418  0.1989 -0.1570 -0.0932
10427W        W25896   3.530   2.489   0.794 -0.0844 -0.0156 -0.0568
10428W        W25897   8.500   3.908  13.464 -0.2214 -0.3046 -0.2250
10429W        W25898   1.134  11.633  13.615  0.0394 -0.2863  0.1120
10430W        W25899  11.957   5.218  10.813  0.1803  0.0813 -0.4265
10431W        W25900  15.372  16.234  14.778  0.0425  0.1121 -0.1121
10432W        W25901   9.695   8.704   0.449 -0.1224  0.0130 -0.3739
10433W        W25902  16.576  18.030  13.091 -0.0755 -0.1148 -0.1773
10434W        W25903  11.677   7.446  11.640 -0.2424 -0.0293 -0.2134
10435W        W25904  17.479   7.344   1.885  0.1724 -0.0611  0.0953
10436W        W25905  11.340   8.920   3.652  0.0969  0.0848  0.2170
10437W        W25906   3.987   7.832  11.368 -0.4438 -0.1026 -0.3147
10438W        W25907   6.392   0.581   4.391 -0.0013  0.0893  0.0003
10439W        W25908   3.023   8.523   3.197  0.0460 -0.0899  0.1089
10440W        W25909   8.081   4.290   1.389 -0.1491  0.2737 -0.1169
10441W        W25910  18.128   8.240   0.935 -0.0152  0.2078 -0.0982
10442W        W25911  13.645  10.252   3.230  0.0256  0.0711 -0.0594
10443W        W25912  11.938  18.213  11.141  0.1609  0.1076 -0.0157
10444W        W25913  17.935   8.234   1.849  0.1982 -0.2216 -0.0664
10445W        W25914   0.418   1.716   4.212  0.2060  0.0500  0.0036
10446W        W25915   5.640   0.371  15.187 -0.0751  0.2234  0.2461
10447W        W25916   0.452   8.141   3.458  0.1917 -0.0667 -0.1218
10448W        W25917   7.904   2.036  15.162  0.0103 -0.0989  0.2473
10449W        W25918  13.718   1.894  11.375 -0.1312 -0.0479  0.1311
10450W        W25919  17.092   8.129   3.367 -0.4200  0.1365 -0.1855
10451W        W25920  17.962   6.821   3.680 -0.0259 -0.0316  0.1026
10452W        W25921   4.560  12.456  10.640  0.4027  0.1928  0.4175
10453W        W25922   3.037  17.505   3.746  0.1094 -0.1299  0.2094
10454W        W25923  14.481   9.594   2.793 -0.1265 -0.1561  0.0826
10455W        W25924   3.808   8.165   3.295 -0.0892  0.1156  0.1092
10456W        W25925  15.190   4.665  11.789  0.0373  0.2998 -0.2134
10457W        W25926  15.336   7.234   4.935  0.2915 -0.2531 -0.2247
10458W        W25927  12.613  11.774   3.680  0.1140 -0.2856  0.4406
10459W        W25928   4.695  11.290  10.382 -0.1335  0.0129  0.0805
10460W        W25929  17.952  14.943  10.080  0.1527  0.0914 -0.0100
10461W        W25930  13.937   4.623  14.643 -0.4013 -0.2401 -0.3772
10462W        W25931  12.119  15.517   0.435  0.1990  0.0135 -0.2194
10463W        W25932  18.781   4.460  13.349 -0.1091  0.2239 -0.1239
10464W        W25933   0.284   2.304   3.632  0.2086 -0.2443  0.1491
10465W        W25934   6.391   1.291  14.931 -0.0322 -0.1475  0.0823
10466W        W25935  18.213   4.184   1.724  0.3389 -0.2381  0.0365
10467W        W25936  14.973  10.153  11.680  0.3016  0.2887  0.2995
10468W        W25937  14.929   0.755   1.601 -0.5292 -0.1292 -0.3468
10469W        W25938   9.658   8.594  12.816  0.2790  0.2915 -0.1132
10470W        W25939   7.326  17.046  10.344  0.3046 -0.1024 -0.0252
10471W        W25940  13.878   3.973  13.974  0.2040 -0.0001  0.0439
10472W        W25941   5.259  14.637  15.495 -0.0104 -0.4168  0.0548
10473W        W25942   2.027  12.722   4.826  0.0286 -0.1420 -0.2723
10474W        W25943  13.150   8.711   5.011  0.4016  0.1712  0.0062
10475W        W25944   2.390  12.966   5.615  0.1775 -0.0502  0.1401
10476W        W25945  17.891   1.198  11.570 -0.2259 -0.2189 -0.1174
10477W        W25946   1.190  15.746   0.195 -0.0037  0.2483  0.1465
10478W        W25947  10.353  13.555   5.324 -0.0728 -0.0577  0.1256
10479W        W25948  18.497   9.331   4.379 -0.0187 -0.1232  0.1221
10480W        W25949   1.983  15.033   1.841  0.0213 -0.0446  0.0416
10481W        W25950  12.266  15.554  13.363 -0.0454 -0.2843  0.4782
10482W        W25951   1.861   4.715  10.553 -0.0509  0.2187  0.2821
10483W        W25952  17.421   2.488  12.949 -0.3411 -0.0210  0.4141
10484W        W25953  13.532  17.569  14.885 -0.0714 -0.1293  0.2593
10485W        W25954  16.482  18.555  15.190  0.3484 -0.1405 -0.2768
10486W        W25955  16.583   5.594   4.693  0.1796 -0.1760  0.2561
10487W        W25956  10.334  18.505  14.844 -0.3116 -0.0557  0.1085
10488W        W25957  11.085   3.464   2.900 -0.1764 -0.0138  0.1744
10489W        W25958  15.037  11.254  13.887  0.0575  0.0043 -0.1046
10490W        W25959  15.256  14.734  10.263  0.3469  0.0923  0.0115
10491W        W25960  10.739  17.577   3.479 -0.0467 -0.2151  0.2203
10492W        W25961   1.126   5.363  13.780  0.0304 -0.2309  0.0554
10493W        W25962  14.243  16.447  15.346  0.1506  0.0437 -0.1969
10494W        W25963   0.043   8.240  12.251  0.0500  0.0004  0.0532
10495W        W25964   4.335  18.129  13.329  0.4800 -0.0136 -0.2053
10496W        W25965  13.546   1.721  11.816 -0.1545  0.1171 -0.2759
10497W        W25966   7.503   1.661  15.125  0.1701 -0.0537  0.4078
10498W        W25967   0.417   6.442   5.710  0.1270 -0.1986 -0.0538
10499W        W25968  12.728  12.692  13.509 -0.0179 -0.1272  0.0403
10500W        W25969   6.137   1.621   1.206  0.1800 -0.0901 -0.0818
10501W        W25970  15.517  11.650   5.877  0.2617 -0.2450  0.0144
10502W        W25971   3.707  17.621   1.470  0.0260 -0.4871  0.1364
10503W        W25972  15.984  12.261   4.112  0.3009 -0.3127  0.1406
10504W        W25973  10.959  11.652   5.103 -0.1928  0.1941 -0.2708
10505W        W25974   4.114  11.594  15.543 -0.0572  0.3701 -0.0316
10506W        W25975   6.347   0.159   2.865 -0.0155  0.4138  0.1395
10507W        W25976  18.579   8.253  11.794  0.1319 -0.0316  0.1317
10508W        W25977   5.209   0.641   3.138  0.0736 -0.0449 -0.0440
10509W        W25978   3.999  16.224  10.685  0.1690 -0.0713  0.0100
10510W        W25979   5.291   8.905  11.421 -0.2386 -0.2608 -0.0205
10511W        W25980   1.533  14.427  14.680  0.1030 -0.2891  0.1508
10512W        W25981   4.922   8.508  15.440  0.1690 -0.2245 -0.1081
10513W        W25982   6.735   7.732   3.801 -0.1976 -0.1945  0.0190
10514W        W25983  10.618   7.084  14.366 -0.1785  0.2215  0.1841
10515W        W25984  12.452   4.465   3.675 -0.3660  0.2438  0.0099
10516W        W25985   1.296  14.710   2.815 -0.0096 -0.1075  0.1475
10517W        W25986   2.200   7.066   2.008 -0.1707 -0.0426  0.1845
10518W        W25987   8.354   0.678  10.394 -0.1668  0.3262  0.0787
10519W        W25988   8.820  16.371  12.570  0.0295 -0.0104 -0.0132
10520W        W25989   4.536  15.904   4.711  0.2074  0.0849  0.2672
10521W        W25990  12.993   2.177   3.306 -0.0217  0.0623 -0.1306
10522W        W25991  17.868   6.417  11.508 -0.0797  0.2429  0.2957
10523W        W25992  11.277  13.268   0.461  0.2789 -0.3669 -0.1923
10524W        W25993   7.431  17.922   1.425  0.1030  0.0206 -0.1774
10525W        W25994   9.267  14.927  11.948 -0.0339 -0.1659 -0.2792
10526W        W25995  17.689  10.320   0.791  0.3388  0.3091 -0.1221
10527W        W25996  10.144  17.667   9.741 -0.1103 -0.0776  0.0111
10528W        W25997   3.634  11.983  14.151 -0.0457  0.0877  0.0497
10529W        W25998  16.447   6.883   1.232  0.0824  0.1998  0.0325
10530W        W25999   9.605   0.180  13.064  0.4589  0.3110 -0.1040
10531W        W26000   2.992   6.349  14.556 -0.1456  0.3226  0.0477
10532W        W26001  15.212   4.473   3.557 -0.2423 -0.1333  0.1049
10533W        W26002   5.856   5.160   2.778  0.1251  0.3242  0.1822
10534W        W26003   3.789  12.558   2.409 -0.0807 -0.3193  0.1155
10535W        W26004  10.134  11.823  15.640 -0.2074  0.4871  0.2737
10536W        W26005   0.208   6.591   3.675  0.0683  0.4565  0.0444
10537W        W26006  16.091   2.957  11.214 -0.2411  0.1364 -0.0580
10538W        W26007   1.297   0.128   1.201 -0.1832 -0.1184  0.0177
10539W        W26008   3.272   4.357   3.754  0.1984 -0.1258  0.1598
10540W        W26009   6.748   5.562  12.762  0.0069 -0.3656  0.0451
10541W        W26010  17.179  12.411   1.799  0.4207  0.0030  0.3182
10542W        W26011   0.400  18.460  14.661 -0.0439 -0.1355  0.2211
10543W        W26012  15.996   1.111  14.306 -0.0624  0.0429  0.1914
10544W        W26013   3.999  17.179  15.444  0.0958  0.1856  0.0807
10545W        W26014  16.771   5.200  14.154 -0.0148  0.2389 -0.1330
10546W        W26015   3.798   5.857   1.834  0.1870 -0.3197 -0.0423
10547W        W26016   4.643   7.799  15.318  0.0302 -0.1782 -0.1430
10548W        W26017  11.248   8.746  13.084 -0.0386 -0.0898 -0.0901
10549W        W26018   2.592   1.283  11.101  0.7268  0.1522 -0.1169
10550W        W26019   9.949   3.507   3.069 -0.0448  0.1008  0.4212
10551W        W26020  17.418   2.929   1.668  0.3932  0.0051 -0.1436
10552W        W26021  18.145   9.856  15.210 -0.1959 -0.2126 -0.5195
10553W        W26022   8.547  14.777  10.827  0.0803 -0.0948  0.0937
10554W        W26023   7.966  16.787  10.653 -0.2006 -0.0645 -0.1129
10555W        W26024   2.894  12.979  15.540 -0.1518  0.1539  0.5428
10556W        W26025  15.510  10.022  12.314 -0.0171 -0.3857 -0.0700
10557W        W26026   7.597  14.904  14.642  0.1386  0.1508 -0.0084
10558W        W26027  18.398  18.412   3.463 -0.2764  0.1515  0.3090
10559W        W26028   8.117   8.011   4.859 -0.2421  0.2390  0.1215
10560W        W26029   6.891   3.920  12.755  0.1249 -0.4118  0.1838
10561W        W26030  12.362  11.360  10.838 -0.1216 -0.1302  0.3616
10562W        W26031   0.627  17.680   2.100 -0.0580 -0.3631 -0.2578
10563W        W26032   3.367   3.819   4.170 -0.0383  0.2326 -0.0918
10564W        W26033  14.647  14.804   3.547 -0.1828 -0.5207  0.0382
10565W        W26034  15.542  14.195   5.068 -0.1638  0.3782 -0.0931
10566W        W26035   4.593  13.863  11.416 -0.2489 -0.3509 -0.2342
10567W        W26036  17.582  17.346  11.416 -0.1555 -0.0808 -0.0545
10568W        W26037   8.908   1.928  11.223 -0.0312  0.0687 -0.2229
10569W        W26038   2.589  14.606  14.582 -0.1756  0.1298  0.0234
10570W        W26039   3.933  11.520   4.138 -0.0721  0.2468 -0.0585
10571W        W26040   8.018   7.569   0.747 -0.1917  0.2005  0.1716
10572W        W26041  17.768   8.547  10.817  0.2554 -0.2309 -0.1659
10573W        W26042   0.428   5.227   5.280 -0.0294  0.1818  0.1079
10574W        W26043  17.859  16.180  12.151 -0.0762  0.2434 -0.1334
10575W        W26044  11.523  15.608  10.947 -0.1868 -0.1485 -0.1505
10576W        W26045   1.692   7.166   0.514  0.2832  0.1873 -0.0166
10577W        W26046   1.249  10.421  11.671  0.1701  0.1256 -0.3964
10578W        W26047   7.195   1.617  15.571 -0.0575  0.0428  0.0001
10579W        W26048   6.691   3.741   3.021 -0.0161  0.0027  0.1985
10580W        W26049   9.722  15.593   0.136 -0.0407 -0.1393 -0.0110
10581W        W26050  18.519   5.016   2.193 -0.0096  0.0798 -0.2924
10582W        W26051   5.831   6.560  11.476 -0.3101 -0.0787  0.1011
10583W        W26052   0.465   4.427  14.995 -0.4899 -0.3209  0.0538
10584W        W26053  16.874   6.721   5.183  0.0352 -0.2490 -0.3022
10585W        W26054   1.798  13.592   0.013 -0.2687  0.1220  0.2508
10586W        W26055  15.656   0.371   0.659 -0.2026 -0.0822 -0.1374
10587W        W26056  14.088   6.710   2.595 -0.1697 -0.1104  0.1720
10588W        W26057  13.075  12.601  12.569  0.2350  0.2712 -0.0062
10589W        W26058  12.981  12.023  13.365 -0.4833 -0.1768 -0.1109
10590W        W26059   9.495  10.138   2.144 -0.0017 -0.3006 -0.0735
10591W        W26060  11.216   7.335  11.912 -0.1126  0.1101  0.2664
10592W        W26061   2.564   6.560  12.012  0.1485 -0.0163  0.0543
10593W        W26062   2.296   5.755  14.938  0.1507  0.0932  0.1504
10594W        W26063  14.065   3.839  11.063 -0.2508  0.2464 -0.0225
10595W        W26064  16.286  16.595   3.612 -0.0044 -0.3832  0.3297
10596W        W26065  10.732   9.174   0.283 -0.2284  0.0574  0.2303
10597W        W26066   9.580   3.220  13.229 -0.1246  0.1783  0.2798
10598W        W26067  15.645  10.590   4.819  0.0609 -0.1003  0.1382
10599W        W26068  11.476   6.209  13.977 -0.1116 -0.0389  0.2516
10600W        W26069  13.156  11.873   4.988  0.1850 -0.4404  0.0511
10601W        W26070  13.974   2.219  15.569 -0.0341 -0.0372  0.1413
10602W        W26071  12.960   1.202   3.646 -0.0017  0.0081  0.2563
10603W        W26072   2.634   1.074   1.656  0.0172  0.3555 -0.0178
10604W        W26073   5.300  14.665  10.694 -0.0374  0.2202  0.2805
10605W        W26074   8.222  13.294   0.473 -0.2047 -0.1095  0.3553
10606W        W26075  10.659  16.075   4.564  0.0731  0.2602  0.3877
10607W        W26076   9.620  18.508  11.181 -0.2595 -0.0082  0.1090
10608W        W26077   1.474  17.532   1.611 -0.2537 -0.0146  0.0908
10609W        W26078  10.210  15.541  14.267  0.0289  0.2644 -0.0956
10610W        W26079   2.821   0.911  11.942  0.1359  0.1925  0.1586
10611W        W26080   5.376  18.743  15.345 -0.1939 -0.0390 -0.1340
10612W        W26081   3.342   4.851  12.878 -0.1943 -0.0737  0.1618
10613W        W26082   9.408   2.100   4.754 -0.1438 -0.3460 -0.0259
10614W        W26083   5.340   1.076  10.015  0.1829 -0.0152 -0.2320
10615W        W26084   7.405   7.285   1.541  0.3304  0.3316  0.1903
10616W        W26085  12.608   8.081   2.268  0.0359  0.1691 -0.0244
10617W        W26086   0.578   3.909  11.748 -0.0754 -0.0388  0.0026
10618W        W26087   8.059  15.350  10.649  0.3694 -0.2865  0.1786
10619W        W26088   6.540  17.465   1.611  0.0735 -0.2147  0.0480
10620W        W26089   4.095  13.076   1.681  0.0361 -0.3652  0.0553
10621W        W26090   0.285   1.414   5.217  0.1987 -0.1129 -0.0636
10622W        W26091  13.509  16.021   0.891  0.1398 -0.4514  0.1227
10623W        W26092   4.698   9.429  11.405  0.2619 -0.2037 -0.0921
10624W        W26093   2.569   9.058   4.655  0.1221  0.0713  0.0483
10625W        W26094  18.339   6.456  12.944 -0.3997 -0.1098 -0.1219
10626W        W26095  10.197  12.959   4.497 -0.0617 -0.0127 -0.4539
10627W        W26096   8.593  14.330  13.285  0.0189 -0.1073  0.5318
10628W        W26097   2.443   2.195   6.204  0.1336  0.0712 -0.3573
10629W        W26098   4.935   0.143  11.760 -0.0067  0.3818  0.1860
10630W        W26099   5.800   2.411  10.560  0.2089 -0.2228 -0.2009
10631W        W26100   6.793   7.679   1.596 -0.1161 -0.3517  0.0061
10632W        W26101   5.446  13.160   4.638  0.2953  0.3010 -0.1817
10633W        W26102  17.229  18.138   4.737 -0.1140 -0.3048  0.0810
10634W        W26103   4.854   9.473   3.541  0.1126 -0.0641 -0.0674
10635W        W26104   8.435   5.116   0.877  0.0745 -0.0763 -0.3507
10636W        W26105  10.880   7.818   2.468  0.0502 -0.2294 -0.0843
10637W        W26106   9.904  15.503  13.434  0.2253 -0.2814  0.1739
10638W        W26107  11.361   1.233  15.675 -0.0937 -0.2797  0.0385
10639W        W26108   2.987  13.305  12.329  0.1678  0.0453 -0.3646
10640W        W26109   3.208  16.589   5.218 -0.0498  0.1009 -0.1895
10641W        W26110   2.702   3.049   2.732  0.0226  0.0240  0.0412
10642W        W26111   2.420   3.872  10.522  0.1486 -0.0042  0.1518
10643W        W26112  14.631   1.354  13.577 -0.2390  0.0187 -0.2761
10644W        W26113   3.442  13.188  12.663 -0.0881 -0.1102  0.1528
10645W        W26114   3.053  12.813  14.816  0.6388 -0.1605 -0.0811
10646W        W26115  13.156   7.593  14.798 -0.1808 -0.1174 -0.0048
10647W        W26116  16.233   3.841   0.760 -0.2999 -0.0641  0.1745
10648W        W26117  16.181  10.701  15.056 -0.1074  0.2754 -0.1723
10649W        W26118   4.812   6.438  14.490 -0.3962 -0.1671  0.1213
10650W        W26119   2.763   5.949  14.764  0.2002 -0.0063  0.2381
10651W        W26120   1.676   0.601   1.044  0.4857 -0.0651 -0.0218
10652W        W26121  14.852  11.861  12.083  0.0401  0.0360  0.1208
10653W        W26122   3.524   4.478  11.960  0.3028  0.1190  0.1660
10654W        W26123  11.795   2.203  12.814  0.1005  0.0264 -0.0062
10655W        W26124   2.944   8.662   1.085 -0.2232 -0.1981  0.0477
10656W        W26125   2.878   7.904  11.699 -0.0502  0.0710  0.2596
10657W        W26126   2.148   0.998   1.848  0.0886 -0.3044 -0.3435
10658W        W26127   5.190  11.577   0.692 -0.2126  0.2048 -0.1510
10659W        W26128   9.451   9.789  12.503 -0.1399  0.0200  0.1495
10660W        W26129   1.867   4.263   5.462 -0.1942  0.1143  0.1271
10661W        W26130   1.412   2.890  14.191  0.0550  0.1303  0.0209
10662W        W26131  12.436  10.188   5.516 -0.1180  0.3728  0.3619
10663W        W26132  14.137  10.004  15.107  0.0720  0.1738  0.1715
10664W        W26133  16.742  14.467  15.296  0.0668 -0.1795 -0.0028
10665W        W26134   9.702  17.205  13.566 -0.1651  0.0758 -0.0382
10666W        W26135   2.282  10.822  13.928  0.0842 -0.1428 -0.1086
10667W        W26136  17.401   4.525   4.189  0.2914 -0.0663 -0.1283
10668W        W26137  11.061   5.413  11.286 -0.0765  0.0390 -0.0542
10669W        W26138   0.862   3.719   2.716 -0.3101  0.2281 -0.3035
10670W        W26139   8.540   6.034   2.348 -0.1928 -0.0588 -0.1694
10671W        W26140   2.102   3.412   0.773  0.0212 -0.0803  0.2014
10672W        W26141   8.391   2.441   3.756  0.3080 -0.1388  0.2415
10673W        W26142  15.781  14.196   1.141 -0.0937 -0.1154 -0.2435
10674W        W26143   0.621   5.236  11.655  0.0273  0.1672 -0.2583
10675W        W26144   6.038  18.661   0.337  0.0278 -0.1298  0.0948
10676W        W26145   4.505   5.627   3.108  0.0550 -0.2844 -0.2474
10677W        W26146  11.183   0.183   1.379 -0.0003 -0.2157  0.1311
10678W        W26147   5.208   4.979  14.575  0.1854  0.1815  0.1348
10679W        W26148   8.271  14.652   2.308  0.1003  0.0269  0.3549
10680W        W26149  13.859  10.796   4.574  0.0454  0.1662 -0.2820
10681W        W26150   0.466   9.187   5.132  0.0155 -0.6342  0.1331
10682W        W26151  17.239   8.879  11.695 -0.1863 -0.2219  0.0001
10683W        W26152  10.589  18.568  12.216  0.2578 -0.1592 -0.2686
10684W        W26153   8.958   6.963   3.011  0.0329 -0.0998 -0.0497
10685W        W26154  16.218   9.235   0.792 -0.1365  0.1905 -0.2392
10686W        W26155  17.941   0.466   0.189 -0.0609  0.1024  0.2490
10687W        W26156  16.764  15.270  14.104 -0.1958  0.0579  0.4393
10688W        W26157   3.834   1.081   5.023  0.0522  0.3239 -0.0357
10689W        W26158  13.769   7.825   5.058 -0.0083 -0.1184 -0.1186
10690W        W26159   9.303  12.056   0.983 -0.0271  0.0283  0.0221
10691W        W26160  15.793   8.321  12.461 -0.2866  0.1342  0.0300
10692W        W26161  11.421  15.753  13.406 -0.1556  0.2972  0.0836
10693W        W26162  14.663   4.738  12.847 -0.1481  0.0315 -0.5376
10694W        W26163   0.866   0.359  14.476  0.2076 -0.3827  0.2067
10695W        W26164  13.610   1.063   1.160  0.0315 -0.0677  0.0614
10696W        W26165   8.946   6.897   0.433  0.0776 -0.0155 -0.0060
10697W        W26166  10.943   5.067  10.961 -0.0741 -0.3959 -0.3707
10698W        W26167  11.616   8.625  10.214 -0.3247 -0.0513 -0.3014
10699W        W26168   9.589   4.335  15.498 -0.2280  0.0901 -0.0248
10700W        W26169   3.815   2.476   1.267  0.0775 -0.1007  0.2528
10701W        W26170  14.957  13.953  14.651  0.1468  0.0305 -0.1272
10702W        W26171   6.280   1.737  11.277  0.1007 -0.1204  0.2101
10703W        W26172   2.203  15.224  13.976  0.0090 -0.2993 -0.0078
10704W        W26173  10.167   0.764   6.015 -0.0508 -0.1911  0.0353
10705W        W26174   3.201  17.640  13.681 -0.0305 -0.1999  0.2949
10706W        W26175   8.794  10.423   1.499 -0.2003  0.1925 -0.1873
10707W        W26176   8.951  13.748   5.086  0.0349  0.0300 -0.0949
10708W        W26177   4.849   9.421  12.612  0.1832 -0.1775 -0.1276
10709W        W26178   9.224   4.447   1.854 -0.0350  0.0249 -0.0162
10710W        W26179   1.347  10.405   5.483 -0.0520 -0.0564  0.0399
10711W        W26180   8.208  13.617  13.112  0.1831  0.3745  0.1588
10712W        W26181   7.000  14.564   1.582 -0.0354 -0.0884 -0.1077
10713W        W26182   1.643   5.751   3.910 -0.0490 -0.3184  0.0950
10714W        W26183   8.462   1.749  11.585 -0.1195  0.1588 -0.2580
10715W        W26184  10.435  16.792   1.307  0.2701  0.2040  0.1794
10716W        W26185  11.985   1.967  15.489 -0.1129  0.1055  0.0211
10717W        W26186  14.759  10.217   2.470 -0.0244 -0.1455 -0.1656
10718W        W26187   6.100  10.490  15.412  0.1836  0.1030 -0.0343
10719W        W26188  17.431  11.097  12.488 -0.3321  0.1752  0.1524
10720W        W26189   5.549  10.704  12.045  0.4007 -0.1032  0.0796
10721W        W26190   7.918   9.077   4.175  0.0867  0.0317  0.5341
10722W        W26191   9.010   2.487   4.859 -0.0408 -0.2750 -0.0669
10723W        W26192  16.017   7.831  13.928  0.0641  0.0759  0.4394
10724W        W26193   3.533   0.378   2.565 -0.0467  0.2628  0.2608
10725W        W26194  14.079   1.746   0.148  0.2191  0.2009 -0.0364
10726W        W26195   0.485  11.172  14.920  0.3251 -0.2661  0.2631
10727W        W26196   5.843  16.237   4.554 -0.0008 -0.3199 -0.2097
10728W        W26197   2.966  13.327  12.977  0.1130 -0.1828  0.0034
10729W        W26198   5.213  17.862  13.760 -0.0350 -0.3655 -0.0546
10730W        W26199  10.057   0.668   0.518 -0.0940 -0.0301 -0.0938
10731W        W26200   9.120  11.472   3.722  0.0580 -0.1364 -0.0432
10732W        W26201   5.366   7.905  13.594  0.4329 -0.1580  0.0738
10733W        W26202  12.494  10.728   4.607 -0.0458  0.0944 -0.1664
10734W        W26203   1.701   1.530  14.424 -0.0652  0.0897 -0.0551
10735W        W26204  18.586  12.910  14.094  0.0175  0.1653 -0.1184
10736W        W26205   5.352  17.504   5.684  0.1755  0.0747 -0.3813
10737W        W26206  17.823   6.841  13.527 -0.0293 -0.3680 -0.2128
10738W        W26207  12.285   6.129   4.083  0.0215  0.1934  0.3923
10739W        W26208  11.646   6.568   0.546  0.2350  0.3016 -0.1914
10740W        W26209   4.665   0.916   5.047 -0.2392  0.0206  0.2100
10741W        W26210   6.711  11.030  14.502  0.3316  0.2768  0.2866
10742W        W26211  12.691  10.028   1.581  0.0588 -0.0108 -0.4525
10743W        W26212  13.191  13.356   0.281 -0.0393  0.1685 -0.0532
10744W        W26213   4.131  12.315  10.192  0.0818  0.3974  0.2687
10745W        W26214   5.082   7.417   0.932  0.0949  0.0060  0.1934
10746W        W26215  14.886   3.342  15.571 -0.1732 -0.0099  0.0388
10747W        W26216   5.962   5.340  14.581 -0.0967 -0.1434  0.0265
10748W        W26217  17.606   3.725  13.130  0.2230 -0.2140  0.4043
10749W        W26218  17.859   6.937   4.467  0.0534  0.0577 -0.2652
10750W        W26219   7.046  10.050  14.656 -0.1480 -0.4057 -0.2127
10751W        W26220   4.148   0.405  12.388 -0.2297  0.0157 -0.1173
10752W        W26221  13.424  13.159   2.258  0.0477 -0.1708  0.0279
10753W        W26222  15.793   5.253  14.906 -0.3612 -0.2174  0.0339
10754W        W26223   3.242   8.645   0.624 -0.1592 -0.0757  0.0748
10755W        W26224   7.134  15.093  14.879 -0.0494  0.3180 -0.1898
10756W        W26225   8.139  12.379   3.255 -0.0152  0.1099  0.1734
10757W        W26226  16.201  10.098   2.611 -0.1350  0.0435  0.0381
10758W        W26227  14.479   6.702   5.251  0.1421 -0.0531 -0.2283
10759W        W26228  12.459   1.065   0.530  0.2044 -0.0301  0.2953
10760W        W26229  16.582  10.163   1.579 -0.1064  0.1610  0.0235
10761W        W26230   2.493  13.112   3.648  0.2077  0.2415 -0.0901
10762W        W26231  13.072   1.606  12.604  0.0915 -0.1246  0.0845
10763W        W26232   2.251  10.793   0.876 -0.0040 -0.0569 -0.1025
10764W        W26233  14.794   5.096   1.540 -0.1420  0.0499  0.0157
10765W        W26234   1.556   3.981   4.295  0.0710 -0.1216 -0.4709
10766W        W26235   2.471  10.228  15.224  0.1585 -0.1474 -0.1225
10767W        W26236   8.490   1.563   1.589 -0.1962  0.1657  0.1788
10768W        W26237  11.166  12.619   2.960 -0.1502 -0.0482 -0.0036
10769W        W26238   4.942  12.092  14.647 -0.1662 -0.1082  0.3170
10770W        W26239   0.938   5.069  12.986  0.0699  0.0794 -0.0121
10771W        W26240   5.458  13.431  15.216  0.0526 -0.0379 -0.2458
10772W        W26241   2.176  13.864  15.476 -0.0546 -0.2533  0.2944
10773W        W26242  16.970  11.176   0.284  0.0493 -0.0802 -0.0045
10774W        W26243  14.543   9.807  11.237  0.0301  0.0042 -0.2003
10775W        W26244   6.794   0.444   0.819 -0.0402 -0.0109  0.1538
10776W        W26245  16.629  12.512  12.944  0.1433 -0.0029  0.1344
10777W        W26246  13.388   1.653  11.111 -0.1844  0.1414  0.2394
10778W        W26247  13.782  13.286   3.215  0.1910 -0.1868  0.0213
10779W        W26248   6.432  10.329   3.005  0.1328 -0.3589  0.0873
10780W        W26249   8.538   5.605  11.001  0.1047 -0.3073 -0.2022
10781W        W26250   6.039   2.517   1.761  0.2739  0.0350  0.0041
10782W        W26251  16.654   6.207  10.655 -0.4075  0.3154 -0.3194
10783W        W26252   8.169  10.976  12.293 -0.0507  0.0483 -0.1714
10784W        W26253  12.983   5.887   1.670 -0.1712  0.1179  0.1392
10785W        W26254   8.631   4.119   2.843 -0.1937 -0.0020  0.2057
10786W        W26255   1.715   2.508  14.830  0.1666  0.1894 -0.1291
10787W        W26256   9.142   6.978  15.429 -0.1047  0.1849 -0.0356
10788W        W26257   0.231   0.787  14.748 -0.2144  0.0339  0.0835
10789W        W26258  13.189  11.972   3.645  0.4122  0.2280 -0.0178
10790W        W26259  10.505   9.277   3.568  0.1649 -0.0171  0.0137
10791W        W26260   4.086  15.593   0.885 -0.0767  0.0144  0.1397
10792W        W26261   0.211   3.169  12.344 -0.0964 -0.3167 -0.2721
10793W        W26262   8.529   1.009  10.746  0.4016  0.1166 -0.1187
10794W        W26263   8.969   7.575  11.199 -0.1067  0.2589  0.4606
10795W        W26264   0.232   3.401  13.109 -0.3032  0.0675  0.2737
10796W        W26265   1.752   1.992   3.795  0.0987 -0.2256 -0.1592
10797W        W26266   0.487   8.447  14.533 -0.1441 -0.1242 -0.1562
10798W        W26267   6.214   1.285   6.055  0.0104  0.0571 -0.2121
10799W        W26268   6.872  15.538   1.620  0.3224  0.3059 -0.2502
10800W        W26269   9.354   4.808   4.010 -0.2813  0.0773  0.1438
10801W        W26270   5.910  13.307  14.103  0.1746 -0.4892  0.0619
10802W        W26271   6.097  10.925  11.879  0.1853  0.0607 -0.0931
10803W        W26272  11.486  12.040   0.674  0.1930  0.0834  0.1129
10804W        W26273   1.944  10.998   1.576 -0.2014 -0.3961 -0.1071
10805W        W26274  13.224   5.558   0.465  0.1023 -0.2031  0.2925
10806W        W26275   1.468   0.593   2.448  0.1832  0.0437  0.0927
10807W        W26276  15.779  18.765  13.760 -0.0038 -0.3724  0.0330
10808W        W26277  12.839  14.133  12.044  0.0519 -0.1176  0.0559
10809W        W26278  12.857   1.584   3.180  0.1561 -0.3622  0.0460
10810W        W26279  10.235  14.889  11.100 -0.5267  0.5382 -0.0599
10811W        W26280  11.418  12.344   4.967 -0.0528  0.0952  0.1725
10812W        W26281   7.969   7.749  12.402  0.3722  0.0242  0.1904
10813W        W26282   2.022   7.195  13.056 -0.3571  0.3721  0.1668
10814W        W26283  18.021   6.889   1.194  0.0017 -0.1311 -0.1357
10815W        W26284  10.357   1.402  15.197 -0.0030 -0.0893 -0.2247
10816W        W26285  15.112   6.467   0.639 -0.3370 -0.3162  0.0645
10817W        W26286  17.025  13.158   3.473  0.2012 -0.2563 -0.1820
10818W        W26287   3.422  16.123   0.260 -0.0027  0.3439 -0.0771
10819W        W26288  15.216   0.677  15.034  0.2296 -0.0019 -0.1234
10820W        W26289   2.881   2.466   4.892 -0.3498  0.1874  0.1664
10821W        W26290  11.101  15.358  10.259  0.3747  0.2659 -0.1734
10822W        W26291  17.298  18.760  12.476  0.1088  0.0878  0.3794
10823W        W26292  12.070   8.992  10.215 -0.0052  0.1412  0.1479
10824W        W26293  12.309  12.140   3.679  0.0065 -0.0298 -0.0228
10825W        W26294  13.418   1.162   0.680 -0.4220 -0.2468  0.1976
10826W        W26295   6.832  11.539   1.884 -0.0509  0.1009  0.1627
10827W        W26296   7.149  12.985   3.198  0.0938 -0.2034  0.0143
10828W        W26297  18.668   6.972   4.237 -0.0864 -0.0753  0.3148
10829W        W26298   5.525  18.029  13.273 -0.1267 -0.0288  0.1258
10830W        W26299   3.414  15.395   4.525  0.1472  0.2103 -0.1252
10831W        W26300  10.187   8.916  11.834  0.2874  0.0145  0.0385
10832W        W26301   4.672   9.095  14.264 -0.1044  0.0383 -0.0305
10833W        W26302   6.466   4.262   0.444 -0.1873  0.0819 -0.1294
10834W        W26303   9.973   1.680   5.846  0.2885  0.1016  0.1964
10835W        W26304   6.959  18.683   0.515 -0.3131  0.3052 -0.2119
10836W        W26305   5.495   1.890   4.437 -0.2303 -0.0088 -0.1060
10837W        W26306   4.907  11.017   1.750  0.3102  0.0879  0.0548
10838W        W26307   2.676   0.352   1.011  0.1394 -0.1129 -0.1267
10839W        W26308  10.551  12.468   1.331  0.0499  0.0858  0.1544
10840W        W26309  13.816   5.641  15.014 -0.1545  0.1002  0.1502
10841W        W26310  17.358   8.284   4.886 -0.1435 -0.4130 -0.0376
10842W        W26311   8.360   9.778   4.023  0.0002 -0.1337 -0.0543
10843W        W26312  18.741   7.780  14.922  0.2715 -0.2030 -0.0203
10844W        W26313   0.709   7.009   0.788  0.1118 -0.2476 -0.1668
10845W        W26314  14.347  11.080  11.298 -0.0147  0.2852  0.0717
10846W        W26315  18.026   2.843  14.393 -0.0223 -0.0893  0.1235
10847W        W26316  18.534   6.810  13.650 -0.0430 -0.0431 -0.3498
10848W        W26317   1.958  16.641   2.017  0.1320  0.4959  0.1529
10849W        W26318   6.276   9.464   0.650  0.2045  0.4218  0.2173
10850W        W26319  13.530  12.334   1.840  0.2454 -0.1483 -0.0238
10851W        W26320   4.965  13.076  14.615 -0.2538  0.2025 -0.1322
10852W        W26321  16.466   4.817   1.962 -0.1123 -0.0742  0.2159
10853W        W26322  12.826  15.916  10.175 -0.1288  0.0151 -0.1912
10854W        W26323   8.482   8.155  14.871 -0.2162 -0.0097 -0.2478
10855W        W26324   4.855  17.369  12.958  0.1885  0.3812  0.1019
10856W        W26325   2.645   5.270  13.199 -0.1274 -0.1137  0.0937
10857W        W26326  10.639  11.831  15.649  0.1581  0.3191 -0.2563
10858W        W26327  13.006  12.440   3.550 -0.2072  0.1138 -0.0918
10859W        W26328   4.706   7.446  10.073 -0.0990 -0.3982  0.3127
10860W        W26329   2.433   4.609  14.943 -0.3071  0.0128  0.0443
10861W        W26330  16.470   0.658   0.661 -0.0593 -0.0741  0.1916
10862W        W26331  15.057   7.965  15.567  0.0040  0.0546  0.1691
10863W        W26332  15.830   9.841  10.513  0.3401 -0.0947  0.1641
10864W        W26333   0.333   5.887  11.924  0.2790 -0.0693 -0.1305
10865W        W26334  14.323  15.221  13.835  0.0019  0.0336  0.0156
10866W        W26335   0.606   0.021  11.656 -0.0348  0.0407  0.0269
10867W        W26336  11.669   8.303  14.695 -0.2912  0.1258 -0.0559
10868W        W26337   0.282  10.900  14.314  0.0622 -0.4614  0.3530
10869W        W26338  17.740   7.304   3.880  0.0207  0.1469 -0.1291
10870W        W26339   1.805   9.125  14.538 -0.0879  0.1071  0.1105
10871W        W26340  11.467   3.331   2.510  0.0661 -0.1441 -0.3047
10872W        W26341   1.661   3.923   1.482  0.1953 -0.3101 -0.4288
10873W        W26342   3.606  12.097  13.247 -0.1325  0.1209  0.0076
10874W        W26343   3.407   4.312  15.571 -0.0697 -0.1592 -0.2454
10875W        W26344  14.851  11.038  13.139 -0.0681  0.0435 -0.1074
10876W        W26345   3.499   7.059   0.992  0.0346  0.1558 -0.0649
10877W        W26346  15.809  10.615   0.874  0.3453  0.0503  0.0560
10878W        W26347  15.935   2.201   9.768  0.1264 -0.2109  0.2297
10879W        W26348   3.392  14.912   4.697  0.2674  0.1171 -0.0026
10880W        W26349   5.585  17.515   1.583 -0.4061  0.1476  0.2739
10881W        W26350   1.762   5.276  11.904 -0.2842  0.0271  0.0233
10882W        W26351  13.510  13.188  12.680  0.1955 -0.1991  0.1077
10883W        W26352  14.872   4.280  12.839 -0.2513  0.4337  0.1612
10884W        W26353  11.383  12.519   4.523  0.0414 -0.2786 -0.0078
10885W        W26354   3.660   7.067   2.427 -0.2348 -0.1680  0.2020
10886W        W26355  17.153  15.477  15.445 -0.1567  0.2406  0.0255
10887W        W26356   9.193   4.709  14.530 -0.0927 -0.0609  0.3369
10888W        W26357   8.745  11.852   4.928 -0.1893  0.0667 -0.1486
10889W        W26358  10.718   7.881   0.268 -0.1616  0.1308 -0.0451
10890W        W26359  15.722   2.961  14.768  0.1563 -0.4150  0.0343
10891W        W26360  10.657   3.509  14.647  0.1545  0.1419 -0.1134
10892W        W26361  10.986   4.707  12.404 -0.3629  0.0778  0.2242
10893W        W26362   4.818  16.281  14.877 -0.0081  0.2591  0.0153
10894W        W26363  16.944  16.428  15.531  0.3986 -0.1279  0.1503
10895W        W26364  15.752  12.585  10.739  0.4871 -0.1050  0.4219
10896W        W26365   3.894   1.912  10.238  0.4648  0.0853  0.1112
10897W        W26366   3.015   7.113   3.766  0.0011  0.0438 -0.3990
10898W        W26367   3.121   1.287  10.943  0.3133 -0.0464  0.0208
10899W        W26368  14.393  14.494   2.663  0.0257 -0.0545  0.0932
10900W        W26369   5.917   5.436  13.175  0.3065  0.4157  0.0532
10901W        W26370   1.391  15.583  15.377 -0.0803 -0.2198  0.1605
10902W        W26371   1.675   9.120   1.235 -0.0416 -0.0786  0.2847
10903W        W26372   2.109   5.170  12.289 -0.1291  0.3522  0.0253
10904W        W26373  10.918  14.696  12.925  0.0395  0.1362  0.1191
10905W        W26374   3.318   8.045   3.382 -0.0400  0.0308  0.3234
10906W        W26375  11.435  16.934  11.540 -0.0063 -0.1863 -0.2182
10907W        W26376   4.106   0.981  14.496 -0.2266 -0.0261 -0.2375
10908W        W26377   2.442  13.634   4.691 -0.4391  0.2764  0.1641
10909W        W26378  16.164  14.360  10.743 -0.2582  0.0005  0.1904
10910W        W26379   1.037  17.313   2.838 -0.1352  0.0625  0.1324
10911W        W26380  15.820   6.571  15.231 -0.0393  0.0059 -0.3303
10912W        W26381   8.104   2.662  14.268 -0.1716 -0.2648  0.2107
10913W        W26382   7.074  17.138   0.915  0.1896  0.0055 -0.1057
10914W        W26383   6.336   8.345  13.424  0.2609  0.2360  0.0341
10915W        W26384  12.030   1.293   3.665  0.0593  0.0905 -0.0241
10916W        W26385  15.759   9.308   2.458  0.1841 -0.2223 -0.0409
10917W        W26386   4.564  16.782  13.460  0.0381 -0.4883  0.1128
10918W        W26387  17.042   5.589  14.873 -0.2288  0.0176 -0.1848
10919W        W26388   1.269   8.909   2.689  0.5466  0.1705  0.0971
10920W        W26389   5.873  14.529   1.178  0.1546 -0.3984  0.0305
10921W        W26390   0.859  14.404  14.824 -0.2816 -0.2794  0.1471
10922W        W26391   9.129   4.052   2.495 -0.1180  0.1622 -0.2083
10923W        W26392   6.966   7.083  12.627 -0.0933 -0.0677  0.1067
10924W        W26393  18.591   2.979   1.407  0.1009 -0.1489 -0.3383
10925W        W26394  15.543   5.547  14.495 -0.0739  0.1680  0.0568
10926W        W26395  17.268   1.423   2.917  0.1519 -0.0210 -0.0836
10927W        W26396   2.590   0.566   4.668 -0.1156  0.2141  0.3452
10928W        W26397   2.159  17.008   4.918  0.2207 -0.3595 -0.0561
10929W        W26398  18.369  11.404  11.043  0.2821 -0.0284 -0.3778
10930W        W26399   9.015   4.405   5.430  0.0078  0.5355  0.3748
10931W        W26400  18.785   4.770  14.255  0.0468 -0.0244  0.3636
10932W        W26401   7.469  10.589  13.021 -0.0420  0.4341 -0.0469
10933W        W26402  11.866  18.329   4.567  0.3958  0.1527  0.0254
10934W        W26403   8.117   6.738   2.060  0.0536 -0.1719  0.2091
10935W        W26404  13.629   9.224   5.566  0.0876  0.0224 -0.0456
10936W        W26405  12.751  13.187  13.574 -0.1048  0.2794 -0.3605
10937W        W26406   6.142  14.114  10.710  0.2328  0.2211  0.0682
10938W        W26407   4.616   6.168   1.074 -0.4084 -0.0923 -0.0755
10939W        W26408  10.698   6.229  14.411 -0.1336 -0.0564 -0.1457
10940W        W26409   3.740  18.288   4.784 -0.1451  0.1525  0.0309
10941W        W26410  12.526   6.903  13.575 -0.0615 -0.4113 -0.1252
10942W        W26411  16.644   4.729  15.595  0.3228  0.1096  0.2046
10943W        W26412   7.233  13.831   1.345 -0.1714  0.0772  0.0614
10944W        W26413  11.189   2.390   4.281 -0.0967 -0.0521 -0.0835
10945W        W26414  11.273   5.672  11.638  0.1029  0.0931 -0.1817
10946W        W26415  18.629   9.753  13.013  0.1709  0.1890  0.0791
10947W        W26416   2.345   9.075   4.142 -0.0201  0.0137  0.2376
10948W        W26417   6.209   5.315  15.542  0.0886 -0.1301 -0.0594
10949W        W26418   7.058   2.827  15.298  0.0488 -0.1748 -0.0977
10950W        W26419  18.089   9.563   3.417 -0.0626 -0.2465  0.0819
10951W        W26420   7.973  12.935   1.987 -0.0898 -0.1158  0.2594
10952W        W26421  14.535  17.506  12.631 -0.0556  0.0367  0.1125
10953W        W26422  17.280   0.348  11.919 -0.3158 -0.1230  0.1543
10954W        W26423  16.782  14.939  12.357  0.2244  0.2424 -0.0571
10955W        W26424   7.856   4.959  14.751  0.1058 -0.2524 -0.0498
10956W        W26425   8.931   8.098  14.736  0.2440 -0.0295 -0.0451
10957W        W26426  13.334   3.667   3.632 -0.0895  0.2932  0.3489
10958W        W26427   3.841   7.720   0.420 -0.1373 -0.0867  0.0920
10959W        W26428   5.428   8.939  14.893  0.2466  0.2742 -0.1669
10960W        W26429   6.767   1.802   2.179  0.2551  0.2256 -0.0754
10961W        W26430   6.104  18.243  11.323  0.2794 -0.2371  0.1966
10962W        W26431   7.408   7.297  11.983 -0.0416 -0.2299 -0.0449
10963W        W26432   4.749   3.613   3.495  0.1983 -0.2452 -0.0860
10964W        W26433  15.671  17.176   0.141  0.0553  0.1028  0.0560
10965W        W26434   4.101  17.585  13.706  0.1460 -0.1188 -0.1652
10966W        W26435  15.521   0.890   0.847  0.2832  0.1844 -0.0255
10967W        W26436   3.055  17.719   2.744  0.2788 -0.1390  0.1312
10968W        W26437   1.891  18.165   3.092  0.0380  0.0810  0.1174
10969W        W26438  14.196  16.609   0.650  0.1246 -0.0841  0.1140
10970W        W26439   0.974   7.827   3.517  0.1094 -0.2137 -0.1647
10971W        W26440  14.106   7.299  13.221 -0.0206 -0.0533  0.2090
10972W        W26441  14.799   8.382   4.043  0.0776 -0.2742  0.0891
10973W        W26442  10.323  10.482   2.565 -0.2321  0.2687  0.0699
10974W        W26443   3.022   3.188   2.399 -0.3802  0.0997 -0.1543
10975W        W26444  12.187   5.981   2.209  0.4106  0.0401 -0.0601
10976W        W26445  18.637  13.042  13.594 -0.0231 -0.0359 -0.1546
10977W        W26446  10.153  18.514  12.435  0.0777  0.1116  0.1193
10978W        W26447   3.324  18.011  14.056  0.3060 -0.0169  0.0695
10979W        W26448   0.244  15.998   4.867  0.2119  0.1872 -0.1200
10980W        W26449  15.301   2.822  12.760  0.1480  0.0515 -0.1173
10981W        W26450  12.026  12.095  14.045 -0.2071 -0.0912 -0.1931
10982W        W26451   7.728  13.203   0.577  0.0673  0.0139  0.1170
10983W        W26452   6.566   4.378   4.687 -0.1681 -0.3216  0.2316
10984W        W26453  11.377   2.374  13.044 -0.1544 -0.1985 -0.0048
10985W        W26454   6.908   5.327   3.831  0.3168  0.0271 -0.1251
10986W        W26455  14.758   4.058  13.851 -0.1782 -0.0737  0.3237
10987W        W26456  11.963  11.766  13.074 -0.0356 -0.0101  0.0115
10988W        W26457   2.382   6.545   1.841  0.1980 -0.0945  0.1412
10989W        W26458  17.552  14.515  13.215  0.0785 -0.0513 -0.1878
10990W        W26459   1.718   0.347   0.576  0.0554 -0.3295  0.2408
10991W        W26460   0.738   8.663  14.932  0.3270 -0.1256 -0.0330
10992W        W26461  11.042  16.770   3.685  0.0934 -0.1008 -0.1831
10993W        W26462  13.950  17.337   5.858 -0.1835  0.0519 -0.0222
10994W        W26463  18.733   2.336  14.915  0.1913 -0.2721 -0.3948
10995W        W26464  13.155   0.769   4.375  0.0317  0.3331  0.2999
10996W        W26465   2.700   0.499   1.840 -0.2856  0.2277  0.1107
10997W        W26466  17.827   3.439  11.784 -0.1270  0.0136 -0.0965
10998W        W26467   2.556  15.774   0.434 -0.1283  0.0790  0.0328
10999W        W26468  13.068   3.112  14.129  0.1081 -0.2270  0.0725
11000W        W26469  11.038  16.941   0.221 -0.4760  0.3197  0.1344
11001W        W26470   0.914   7.808  10.435  0.0781 -0.1466 -0.2569
11002W        W26471  12.286   4.814   3.984  0.0170  0.3004  0.0877
11003W        W26472  16.109   9.327  15.378  0.0912 -0.1431 -0.4013
11004W        W26473   3.264   6.020   2.549 -0.5035 -0.3888  0.1087
11005W        W26474  16.443   6.480  12.893 -0.2270  0.0331  0.2595
11006W        W26475  16.248   5.523  13.080  0.1159  0.0464 -0.0390
11007W        W26476  17.136   8.973   2.726 -0.1941  0.0528  0.1401
11008W        W26477   7.629   3.282   2.644  0.4419 -0.3216  0.0119
11009W        W26478  16.128   1.564   4.885  0.4320  0.2375  0.0643
11010W        W26479   1.982   4.208   1.786 -0.2965 -0.0235 -0.1519
11011W        W26480  10.035   8.412   2.552  0.0631 -0.2997 -0.0337
11012W        W26481   9.198   4.620   5.836 -0.2688  0.1031  0.1637
11013W        W26482  16.852  15.237  11.685 -0.1005 -0.0976  0.0792
11014W        W26483  14.840   8.803   5.284 -0.2018  0.0484 -0.3339
11015W        W26484  16.450   3.919   0.189 -0.2327  0.0096  0.0767
11016W        W26485   0.256  18.095   2.180  0.0947 -0.0014  0.0717
11017W        W26486   9.678   5.705  13.235  0.0643  0.0959  0.1010
11018W        W26487  16.160  14.182   0.070  0.0386  0.0972 -0.2492
11019W        W26488  14.412  14.014   5.363  0.0246 -0.2223  0.0045
11020W        W26489   4.640  10.320   2.179  0.0095  0.1484  0.0136
11021W        W26490  11.835   0.555  11.058 -0.2175 -0.0042  0.0998
11022W        W26491  11.127  10.678  14.410 -0.1538 -0.2337  0.2574
11023W        W26492   0.163  17.413  14.552 -0.3071  0.0398  0.0648
11024W        W26493  16.009  12.496  14.038  0.0349 -0.0672  0.1277
11025W        W26494   2.190   5.424   2.989 -0.1050  0.2896  0.0846
11026W        W26495  11.170  17.199  13.687  0.2617 -0.0473 -0.1457
11027W        W26496   4.316  14.497  13.057 -0.0076  0.0137 -0.1050
11028W        W26497  11.335  12.314  15.347  0.3216 -0.1883 -0.1411
11029W        W26498  16.624  11.903  15.020  0.0080 -0.0954 -0.1681
11030W        W26499   9.787  13.378  11.270 -0.0404 -0.1339 -0.0955
11031W        W26500  17.570  15.686   1.575 -0.1025 -0.0130 -0.0895
11032W        W26501  18.354   5.537   1.830  0.0038  0.1586  0.0485
11033W        W26502   6.511  10.556  13.240 -0.3930  0.2044  0.0095
11034W        W26503  14.416  16.622   2.023 -0.3960 -0.1920  0.1102
11035W        W26504  15.444   1.329   3.698  0.3798  0.3172 -0.4932
11036W        W26505   5.996   8.027  11.080 -0.2207 -0.3915  0.0971
11037W        W26506  11.608   5.637   1.004 -0.1244  0.0403 -0.1012
11038W        W26507   0.846   8.385  13.973  0.1209 -0.0417 -0.3802
11039W        W26508  17.580   7.876   0.474  0.1344  0.1980  0.0829
11040W        W26509  15.625  14.417  11.600 -0.0612 -0.1002 -0.0652
11041W        W26510   9.230   8.404  11.412  0.1080  0.1927 -0.2441
11042W        W26511   7.621  17.339  14.557 -0.0736 -0.1624 -0.1167
11043W        W26512  15.170  16.442   0.443 -0.1348  0.1810 -0.0227
11044W        W26513   9.924   0.595   5.108 -0.0737  0.3126  0.3450
11045W        W26514  15.130  16.456   3.121  0.2439 -0.1461 -0.0212
11046W        W26515  18.452   3.165  12.969 -0.0527 -0.0511  0.1830
11047W        W26516   3.123   1.662   3.798 -0.0514  0.0537 -0.1306
11048W        W26517  17.914   6.074   5.012 -0.2813 -0.0271  0.2202
11049W        W26518   1.810   7.718   3.209 -0.0477  0.4254 -0.2229
11050W        W26519  10.326   4.818   0.086  0.1435  0.0299 -0.1736
11051W        W26520   8.314   5.116  14.704  0.0523 -0.0724  0.1770
11052W        W26521   0.580   6.712  14.083  0.1027 -0.1219  0.1325
11053W        W26522  11.114   6.335   0.598  0.0478  0.0391  0.0071
11054W        W26523  16.079  17.943  12.476 -0.2519  0.0487 -0.1269
11055W        W26524  12.158  11.159  11.337 -0.1096  0.0796  0.0558
11056W        W26525   8.512  12.364  14.005 -0.0144  0.0541 -0.1447
11057W        W26526  13.225  18.293   1.286 -0.1490 -0.1729 -0.1150
11058W        W26527  16.621   7.198  14.075  0.1695 -0.0692 -0.0911
11059W        W26528   7.236  10.616  15.656 -0.0383 -0.1087  0.1508
11060W        W26529   3.305  10.476   5.508 -0.0446 -0.0469 -0.0192
11061W        W26530   1.666  17.118   4.806  0.0822 -0.0521  0.2839
11062W        W26531  11.977  14.815  14.236  0.1271  0.0660  0.1237
11063W        W26532   2.542  13.478  12.076 -0.2712 -0.1209  0.1172
11064W        W26533   4.108  10.252  12.913 -0.0626 -0.2337  0.3372
11065W        W26534  13.372   8.579   1.089  0.1240  0.0976 -0.0141
11066W        W26535  17.765   9.763   4.749  0.3295  0.1583  0.0267
11067W        W26536  10.770   5.383   2.784  0.1133  0.1208 -0.1732
11068W        W26537  13.797   7.734  12.276  0.0174  0.4146  0.0272
11069W        W26538   7.043  17.723   1.037 -0.0622 -0.1741 -0.1427
11070W        W26539  10.031  15.634  11.174 -0.1879 -0.0351  0.0369
11071W        W26540   9.756   6.005   0.299  0.0282 -0.0078  0.2396
11072W        W26541  15.738   4.149  14.916 -0.0687 -0.0519  0.5478
11073W        W26542   0.156  12.610   3.640  0.1029 -0.2429  0.2403
11074W        W26543   4.434  16.836  12.535 -0.3367 -0.2324  0.1356
11075W        W26544   5.975  10.307   1.616  0.1066  0.1299  0.1990
11076W        W26545  18.290  16.262   1.188  0.2667 -0.1187 -0.0760
11077W        W26546  18.305   0.495  13.519 -0.0094 -0.1021  0.1281
11078W        W26547   1.081  12.175  14.456  0.5045 -0.0167  0.0524
11079W        W26548   4.441   2.108   1.810 -0.1043 -0.0063 -0.1593
11080W        W26549  10.579   2.159   5.101 -0.1224 -0.2799 -0.1684
11081W        W26550   4.573   3.087  12.513  0.3987 -0.2655 -0.0843
11082W        W26551  16.406  15.312  10.786  0.3280  0.0823 -0.3026
11083W        W26552   6.122  17.388  13.959 -0.0496 -0.2341  0.3467
11084W        W26553   9.597   3.620  11.787 -0.0343 -0.2894  0.0528
11085W        W26554   1.313  10.002  14.650  0.3890 -0.3204 -0.2036
11086W        W26555  12.524  12.447  12.559  0.0231 -0.0312 -0.1550
11087W        W26556  13.983  13.972  11.205  0.1589 -0.0300 -0.2052
11088W        W26557   9.104  10.644  12.527  0.0155 -0.1556  0.0334
11089W        W26558  11.981   6.152  11.463  0.0906  0.0722 -0.2551
11090W        W26559   3.213   5.296  12.008 -0.2586 -0.2261 -0.1385
11091W        W26560  15.003  16.895  12.083 -0.1612 -0.1885  0.2109
11092W        W26561   6.530   8.216   4.961  0.2124 -0.1505 -0.3634
11093W        W26562   4.135  15.326  11.008  0.0379 -0.2710 -0.1721
11094W        W26563   9.363  12.509   3.584  0.0480  0.3865 -0.4610
11095W        W26564   7.868  13.834  10.447 -0.0759 -0.2822 -0.1876
11096W        W26565  15.632  11.352   1.472  0.4028 -0.0379 -0.2192
11097W        W26566  18.035   1.859  13.356  0.0539  0.2371  0.0546
11098W        W26567  10.182  12.989   3.966  0.0477 -0.2474  0.2615
11099W        W26568   6.394  10.895  13.673 -0.1095  0.0507 -0.2618
11100W        W26569  14.971   1.373  12.431 -0.4757 -0.1426 -0.1766
11101W        W26570   7.124   4.127  15.647 -0.1642 -0.4094  0.0317
11102W        W26571  18.224   7.439  14.225 -0.0220  0.1799  0.0871
11103W        W26572   9.582  11.685   2.484 -0.1131  0.2264  0.2332
11104W        W26573   1.210   4.759   1.220 -0.1118  0.0509 -0.3726
11105W        W26574  17.816   2.429   1.184  0.0893  0.6224 -0.0216
11106W        W26575   6.570   3.650  13.584  0.1337 -0.4549 -0.1048
11107W        W26576  18.602   6.439  14.226  0.0346  0.0693  0.1421
11108W        W26577  11.245   3.208  15.503  0.0209  0.1927 -0.1149
11109W        W26578  16.843   8.544  11.864  0.1848 -0.0473  0.0560
11110W        W26579  10.022  17.271   4.816  0.3327 -0.4703 -0.0558
11111W        W26580  13.607  12.718  13.668  0.1583 -0.0168 -0.3615
11112W        W26581  16.853   2.144   5.628  0.1250 -0.0706 -0.2759
11113W        W26582  15.620  18.363   4.542  0.2793 -0.0834  0.0285
11114W        W26583   5.977  17.416   4.342 -0.2585  0.1615 -0.1546
11115W        W26584   5.169   0.150  12.305 -0.0620 -0.0756 -0.0691
11116W        W26585  10.711   0.574  13.506  0.1170  0.1016  0.2228
11117W        W26586  14.552   2.106  14.100  0.2382  0.5001  0.0249
11118W        W26587   0.930   9.096  14.991 -0.0233  0.0284  0.0686
11119W        W26588   5.254   1.705   2.993 -0.1696  0.0664 -0.3114
11120W        W26589   2.817   2.171   9.919 -0.1796  0.2094  0.0721
11121W        W26590  15.669   5.814  14.904  0.1828  0.0987  0.0392
11122W        W26591   9.497   1.420  12.983 -0.2245 -0.1012 -0.1010
11123W        W26592  15.557   0.087   3.490 -0.1112 -0.1458 -0.0411
11124W        W26593   2.292  15.328   0.970 -0.0761  0.1397  0.4097
11125W        W26594   4.421  16.629   0.349  0.2100 -0.1651 -0.1507
11126W        W26595   7.972  17.598   4.865  0.0498 -0.0239  0.0133
11127W        W26596  16.762   3.824  12.082 -0.1828  0.0913  0.0462
11128W        W26597  15.149  16.986   5.399 -0.1532  0.1617  0.1059
11129W        W26598   9.178   3.028   3.186  0.2607  0.0122 -0.0724
11130W        W26599  17.336   5.918  13.719  0.2086  0.1715  0.1702
11131W        W26600   5.683  15.779  12.559 -0.0909  0.2976  0.0726
11132W        W26601  10.912  14.037   3.889 -0.4225  0.0134  0.1492
11133W        W26602  17.762  15.348  11.385 -0.1148 -0.0344 -0.2486
11134W        W26603   8.648   8.737  12.971 -0.2771 -0.1034 -0.0090
11135W        W26604  12.878   0.862  13.890 -0.0020  0.0364  0.2756
11136W        W26605   9.686   6.918  10.890  0.0409 -0.2584  0.0637
11137W        W26606   0.875  18.273  12.248 -0.1464 -0.2468 -0.1606
11138W        W26607   3.781   5.157  11.448 -0.1506 -0.0365 -0.0354
11139W        W26608   4.891   5.272  12.008 -0.0375 -0.0847  0.0191
11140W        W26609   0.712  15.211   5.208 -0.0016 -0.2359  0.0286
11141W        W26610   4.693  13.565  13.565 -0.2792  0.0944 -0.1619
11142W        W26611   2.098   4.631  12.227 -0.0305  0.0312  0.0419
11143W        W26612   9.871   3.367   4.278  0.4370 -0.0787  0.2189
11144W        W26613  17.326  10.433   1.850  0.1173 -0.3435  0.1552
11145W        W26614  12.825  15.627  15.355 -0.1198  0.5160  0.0155
11146W        W26615   7.458  12.690  11.954  0.0027  0.0872 -0.0148
11147W        W26616   0.066   6.935  12.242  0.4229  0.2157  0.0553
11148W        W26617   2.555  16.008  13.316  0.1496 -0.1292  0.1995
11149W        W26618   5.615   9.190   1.811 -0.1916  0.0871  0.0952
11150W        W26619   2.847   9.932   4.360 -0.1932  0.0058  0.0266
11151W        W26620   7.290  15.505  11.846  0.0714 -0.1484  0.0155
11152W        W26621   3.914   8.872  13.849 -0.1038 -0.0604 -0.1059
11153W        W26622   0.022  17.306   4.546 -0.1429 -0.0154  0.0516
11154W        W26623   5.632   2.723   0.085 -0.0578  0.0729 -0.3005
11155W        W26624  10.519   9.311   2.685 -0.3055  0.2724 -0.2448
11156W        W26625  10.049   4.622  14.884  0.1645 -0.1105  0.2918
11157W        W26626   2.520   5.411  14.616  0.2021  0.1451 -0.0498
11158W        W26627   7.466  12.342  14.093 -0.3086  0.2685 -0.0797
11159W        W26628  16.252  13.233  12.558 -0.0287  0.1475 -0.3310
11160W        W26629  11.527   7.955  10.919 -0.1779  0.2034 -0.0863
11161W        W26630  15.384   4.566  13.766  0.0253  0.3790 -0.0293
11162W        W26631   8.008   9.881  10.607 -0.3891  0.0963  0.2480
11163W        W26632  15.326   9.644  13.717 -0.0896  0.0565 -0.2340
11164W        W26633   0.971  16.934   5.584  0.1014 -0.3163  0.1592
11165W        W26634   1.760   0.502  13.013 -0.0191 -0.1867 -0.0685
11166W        W26635  13.277  17.517  13.139 -0.0465  0.0871  0.3369
11167W        W26636   0.352   4.831  12.501 -0.0357  0.0096  0.4840
11168W        W26637   4.912   0.462  10.961 -0.0190 -0.2198  0.0479
11169W        W26638  13.753   9.825   1.103  0.3473  0.0629  0.0929
11170W        W26639  14.568  13.335   3.579  0.1060  0.1064 -0.0975
11171W        W26640  18.490   9.265  11.776  0.0108 -0.1266 -0.2841
11172W        W26641  15.642  16.611  11.610  0.2418 -0.1812  0.3464
11173W        W26642   9.766  13.170   4.201  0.1149  0.1263 -0.1366
11174W        W26643  10.577   1.481  12.946 -0.1663 -0.0890  0.2172
11175W        W26644  11.332  14.879  14.594 -0.1401 -0.1900  0.2367
11176W        W26645   6.979   1.914  14.201 -0.0891  0.0091  0.2391
11177W        W26646   3.797  18.117   4.299 -0.1174 -0.0973 -0.1291
11178W        W26647   6.927  18.109  12.846 -0.2247  0.0574  0.0233
11179W        W26648   1.541  11.699   4.926  0.0690  0.1214 -0.2577
11180W        W26649   1.518  17.244   0.900 -0.1093 -0.2166 -0.3637
11181W        W26650   4.472   8.462  12.078 -0.2445 -0.2635 -0.1019
11182W        W26651  10.865   8.807  15.189  0.0599  0.0817  0.1979
11183W        W26652   9.008   6.215   2.603  0.2172  0.0862  0.1851
11184W        W26653   8.840   6.769  11.232 -0.1526 -0.0957  0.2021
11185W        W26654  14.565  18.077   5.306  0.0652 -0.1522 -0.0332
11186W        W26655   0.110   9.837  14.864  0.1858  0.1140  0.3764
11187W        W26656   7.139   1.588  10.930  0.1408  0.0364  0.1173
11188W        W26657   0.368   1.205  11.995  0.2366  0.2820  0.0750
11189W        W26658  17.636   0.750  10.781 -0.4262 -0.1330 -0.0899
11190W        W26659  13.368   6.136   3.124 -0.0995  0.0762  0.1453
11191W        W26660  17.521   3.697   3.023 -0.1311 -0.0287 -0.2279
11192W        W26661  10.279  17.489   4.317  0.0146  0.1114  0.0700
11193W        W26662  18.754  11.083  15.201  0.4287 -0.4553  0.0231
11194W        W26663  11.841   1.910   2.998  0.1297  0.5846  0.2241
11195W        W26664   6.442   1.144  13.934  0.3353  0.0174 -0.0958
11196W        W26665  13.198  10.195   3.063  0.1268 -0.1298 -0.2276
11197W        W26666  15.954   9.173  11.108  0.0797 -0.0683 -0.1141
11198W        W26667  16.281   2.503   2.346  0.3910 -0.0331  0.0549
11199W        W26668  14.502   6.298  10.930  0.3490 -0.0406 -0.1386
11200W        W26669   1.545   6.259   2.303 -0.1673  0.1836  0.2663
11201W        W26670  11.141   6.029   0.085 -0.0592  0.1904 -0.1289
11202W        W26671   3.928   0.773   5.758 -0.2006  0.1991  0.0181
11203W        W26672   9.793  12.183   1.038  0.0227  0.0235  0.4126
11204W        W26673   7.882   0.372  13.765 -0.0866  0.2015  0.0289
11205W        W26674  12.569   7.758   3.139  0.1898  0.0901 -0.1482
11206W        W26675   0.872   8.571  12.275 -0.2479 -0.1148 -0.0467
11207W        W26676   5.365  10.883  12.956  0.1762 -0.3538 -0.0458
11208W        W26677  11.296  11.336  11.761  0.1699  0.0560 -0.1645
11209W        W26678   4.027  15.065   0.939 -0.2001  0.1184  0.1527
11210W        W26679  10.850   2.863   4.031  0.3565  0.2459  0.3024
11211W        W26680  16.714  12.172   1.530  0.0795 -0.1774  0.1971
11212W        W26681  17.287   3.450  14.294  0.0199  0.0291 -0.1833
11213W        W26682  11.659   8.951  12.795  0.2270 -0.2990 -0.0516
11214W        W26683  17.540  18.147  11.309  0.1699  0.1587 -0.1018
11215W        W26684   7.508  18.416   1.265  0.0128  0.0944  0.1582
11216W        W26685   7.151  12.550  15.059  0.0280 -0.1657  0.1689
11217W        W26686   4.159  12.127  14.078 -0.2173  0.0763 -0.0275
11218W        W26687   4.393  11.838   3.979 -0.1208 -0.2122  0.0051
11219W        W26688   1.443  10.002  11.905  0.0371  0.0710  0.0064
11220W        W26689  15.530  18.221   5.063  0.0730 -0.2833  0.1716
11221W        W26690  13.401   9.454  11.412 -0.1214 -0.3182  0.3877
11222W        W26691   2.645  11.256   2.665 -0.4383 -0.1975 -0.1790
11223W        W26692  11.059  15.224  11.527 -0.2136 -0.1130  0.1098
11224W        W26693  12.739  12.214  15.296  0.3933 -0.3025 -0.1142
11225W        W26694   7.456  15.990  15.565 -0.1264  0.0147 -0.1029
11226W        W26695   4.256  10.654   2.528  0.0957  0.4598  0.0144
11227W        W26696   5.152  18.566   1.102 -0.5159 -0.2744 -0.0863
11228W        W26697   3.537   3.958  12.068  0.0368 -0.0819  0.2951
11229W        W26698  12.971  16.058   4.303 -0.0709  0.2940  0.0605
11230W        W26699   9.584  13.287  15.327 -0.0719 -0.0456 -0.0103
11231W        W26700  16.151   6.153  11.664  0.1952  0.2110 -0.3047
11232W        W26701  16.016   8.808  15.191 -0.4249  0.1402 -0.1456
11233W        W26702   3.552   2.602  13.483 -0.0368  0.1350  0.2331
11234W        W26703   6.709   0.464   2.350 -0.1905 -0.0901 -0.0995
11235W        W26704   0.586   8.834  11.494  0.0337 -0.1459 -0.3301
11236W        W26705  12.754   7.591  10.993  0.1268 -0.2670  0.3515
11237W        W26706   8.631   5.912  14.584  0.4325 -0.1050 -0.3418
11238W        W26707   7.328   2.737   4.896 -0.1429 -0.0607 -0.0908
11239W        W26708  13.010  13.000   1.015 -0.0267  0.0085 -0.3254
11240W        W26709  13.170   7.585   1.985  0.2089 -0.0470  0.0851
11241W        W26710  16.358   4.486   4.183 -0.2196  0.1088  0.0067
11242W        W26711  11.897   4.086   4.438  0.0417  0.1824  0.1250
11243W        W26712   8.569  11.374  13.881 -0.1124  0.2743  0.3755
11244W        W26713   0.643  14.399  11.331 -0.0151 -0.0783  0.3128
11245W        W26714  14.754   0.277   1.495  0.2393  0.0077 -0.0430
11246W        W26715  10.254  16.508   3.358 -0.1515 -0.2147  0.0026
11247W        W26716  10.178  10.940   1.850 -0.2715 -0.0542 -0.1830
11248W        W26717   4.163   7.480  14.537 -0.2007  0.0209  0.1118
11249W        W26718  10.501   1.365   0.766 -0.0345  0.2313  0.0949
11250W        W26719  14.121   3.439  12.287  0.0752  0.1851  0.3293
11251W        W26720   5.475   0.589   4.900 -0.2410 -0.4313  0.0206
11252W        W26721  18.409   4.812  15.115 -0.3662 -0.0344 -0.2077
11253W        W26722  18.525  12.223  12.969 -0.2031 -0.2948  0.3577
11254W        W26723   8.091  17.934   5.411 -0.2562  0.0317 -0.1671
11255W        W26724  16.997  13.622   3.193  0.2746  0.1494  0.1770
11256W        W26725   6.860  15.076  11.544 -0.1031 -0.0940  0.0103
11257W        W26726  15.097   8.158   0.942  0.3051 -0.1396 -0.0385
11258W        W26727  10.926   9.787   4.278 -0.1679  0.0486 -0.3400
11259W        W26728   7.869   4.177   5.091  0.1190  0.1316  0.3346
11260W        W26729   7.246   5.618   1.899 -0.2045  0.3122 -0.0568
11261W        W26730   2.148   5.945   3.022  0.1240 -0.1160  0.0791
11262W        W26731  13.116  14.079   2.628 -0.1619  0.1472 -0.0427
11263W        W26732  12.313   3.648   1.498  0.2927  0.0726  0.0972
11264W        W26733  13.312   2.716   3.899 -0.3557  0.0703  0.0827
11265W        W26734   7.234   0.391   4.703  0.3144  0.1025  0.0559
11266W        W26735   6.099   1.919  12.653  0.0986 -0.0329  0.3123
11267W        W26736   6.841   4.641  12.211 -0.1418 -0.2133 -0.0593
11268W        W26737   9.610  17.873   3.980 -0.1979  0.1178 -0.1196
11269W        W26738   5.560  17.408   4.796 -0.3723 -0.0579 -0.2877
11270W        W26739   6.929   7.541  11.864 -0.0276  0.0219  0.0654
11271W        W26740  16.552  14.568  10.352 -0.0179  0.2189  0.1043
11272W        W26741  13.108  15.615   3.725 -0.1852 -0.0461 -0.3550
11273W        W26742  12.418  16.487  11.742  0.0694  0.2438  0.2509
11274W        W26743  17.357   7.896  12.736 -0.0876  0.1959  0.3842
11275W        W26744  17.153   9.283   4.454 -0.0466  0.0005 -0.1781
11276W        W26745   1.126  11.484   0.372  0.0904  0.1437  0.1109
11277W        W26746   7.749  17.843   2.569  0.0200  0.2231 -0.1822
11278W        W26747  17.016   4.344  12.161 -0.0749 -0.0146  0.1685
11279W        W26748   4.194   3.479   3.109 -0.0781  0.0203 -0.2623
11280W        W26749  13.228  18.427  14.852 -0.2532 -0.2635 -0.0823
11281W        W26750   7.001   0.502   1.386 -0.0540 -0.2388  0.0287
11282W        W26751   5.345   2.770   1.490  0.0831 -0.0347 -0.0201
11283W        W26752   4.809   5.711  11.102 -0.0209 -0.4066 -0.0246
11284W        W26753  16.230   4.937   3.077  0.3576 -0.2385  0.0425
11285W        W26754  16.254  12.255  13.671 -0.0044  0.1952  0.1982
11286W        W26755  13.664   0.881  14.014  0.0562 -0.1107  0.0823
11287W        W26756   4.324  13.071   4.005 -0.2220 -0.1233  0.1470
11288W        W26757   4.652  17.812  13.042 -0.1944 -0.1713  0.0817
11289W        W26758   5.506   7.562  15.255 -0.0509  0.3192  0.0113
11290W        W26759  12.075   2.745   2.749 -0.0779 -0.0376 -0.2309
11291W        W26760   1.656   9.453  10.619 -0.1234 -0.1382  0.3139
11292W        W26761   8.843   1.099   0.222 -0.1787 -0.0098  0.0587
11293W        W26762   8.426   7.354   5.355  0.0335  0.1509  0.2351
11294W        W26763  14.009   1.623   3.408  0.1287  0.0641 -0.5556
11295W        W26764   7.319  16.721   0.647  0.1803  0.1199  0.0574
11296W        W26765  12.677   6.075  11.994 -0.0740  0.1122  0.0662
11297W        W26766  14.186  15.026   1.528 -0.4381  0.1848 -0.3451
11298W        W26767   5.826   4.657   0.897  0.2083 -0.1384 -0.1385
11299W        W26768   5.321  17.088   1.462  0.0238 -0.0632 -0.1855
11300W        W26769  10.962  12.724   5.284 -0.0695  0.3299 -0.1896
11301W        W26770   8.029   4.935   4.572 -0.1119  0.0656 -0.1863
11302W        W26771   5.657   2.712  13.720  0.1468 -0.0116 -0.0243
11303W        W26772   8.283   6.359  13.478 -0.1059  0.2977  0.3022
11304W        W26773  17.363  10.669  11.965 -0.0425 -0.0258 -0.0035
11305W        W26774   9.094   6.559   4.141  0.0052  0.1703  0.1187
11306W        W26775  14.021  11.690   0.189  0.4221  0.1241  0.3326
11307W        W26776   2.026  13.990  14.958  0.1177 -0.3169  0.0267
11308W        W26777   3.871   9.209   5.561  0.3575  0.1483 -0.3879
11309W        W26778   6.092  12.675  11.514 -0.2789  0.0965 -0.2152
11310W        W26779  10.689  15.379   4.122  0.1488 -0.0095  0.2178
11311W        W26780   6.075  10.592  11.015 -0.2690 -0.0596  0.0551
11312W        W26781  14.614  12.908   5.878  0.5277 -0.0413  0.0750
11313W        W26782  16.938  14.242   4.351 -0.1208 -0.1042  0.0442
11314W        W26783   0.884  18.177   2.741 -0.1841  0.0192 -0.2146
11315W        W26784  16.924  14.539  11.119  0.0360  0.1273 -0.0094
11316W        W26785  13.855   3.958  15.660 -0.1611 -0.1454  0.1681
11317W        W26786   8.204  14.016  13.437 -0.1160 -0.2200  0.0368
11318W        W26787   8.567   7.819  12.078 -0.2231 -0.2389 -0.0207
11319W        W26788  16.651   5.312  10.662  0.1879 -0.3117  0.0700
11320W        W26789   1.566   8.744   4.375 -0.4662  0.0117  0.4056
11321W        W26790   6.232   3.371  10.481 -0.2243 -0.1503 -0.1842
11322W        W26791  12.538   4.351  10.654  0.0843 -0.1471 -0.1266
11323W        W26792   7.000   1.171  11.316  0.2074 -0.1307  0.0226
11324W        W26793  14.959   8.088   1.424  0.0159 -0.1805 -0.1175
11325W        W26794  11.812  11.553  12.609 -0.1458  0.0336  0.1148
11326W        W26795   4.870  18.117   1.615  0.2705 -0.1207 -0.1038
11327W        W26796  14.021   8.041  11.953 -0.1046  0.1279 -0.1309
11328W        W26797   4.401   0.130   5.700 -0.2788  0.2363 -0.1774
11329W        W26798  14.764   1.818   4.908  0.2933  0.1596 -0.3073
11330W        W26799  13.154  10.672   6.262 -0.0565  0.0194  0.0729
11331W        W26800  18.590  10.063  10.892 -0.2970  0.0541 -0.0672
11332W        W26801   8.808   0.311  10.281 -0.1400 -0.0899 -0.1283
11333W        W26802  15.613  16.928   1.042 -0.0747  0.4059 -0.0347
11334W        W26803  15.993   3.372   3.267 -0.3916 -0.2172 -0.1746
11335W        W26804   8.179   9.178  12.870 -0.1862  0.0793  0.1107
11336W        W26805   5.662   1.515  12.669 -0.2051  0.0908 -0.0702
11337W        W26806  13.757  10.417  12.141 -0.0240  0.1262  0.0651
11338W        W26807   8.553  16.784  12.426 -0.0300  0.3755 -0.1773
11339W        W26808   8.914  14.318  15.210 -0.4556 -0.0310 -0.1959
11340W        W26809   9.180   0.078   2.066 -0.1736  0.0804  0.1246
11341W        W26810  12.889  10.661   9.931 -0.2367 -0.1050 -0.5688
11342W        W26811   1.638  13.044   2.337  0.0360  0.2210 -0.0617
11343W        W26812   2.401  12.361  14.505  0.0766  0.2345 -0.1322
11344W        W26813  10.531  11.208   3.685  0.1079  0.1027 -0.0362
11345W        W26814   7.012   9.057   1.690  0.0535  0.1596 -0.2368
11346W        W26815  16.686   5.860   5.569 -0.0916  0.0536  0.1550
11347W        W26816  10.464   0.602  14.692 -0.0249  0.1026 -0.1723
11348W        W26817  14.307   1.949  14.907  0.0594  0.4823  0.0198
11349W        W26818   3.474   0.486   0.734 -0.0414  0.0537  0.2947
11350W        W26819  12.156  16.101  14.822  0.1304  0.0140  0.0422
11351W        W26820  16.485   2.678   4.337  0.1047  0.2234  0.1011
11352W        W26821  14.496   7.218  15.300  0.0466 -0.0785  0.1211
11353W        W26822  12.510  13.417  12.771  0.1608 -0.2225 -0.0409
11354W        W26823   1.863  15.359   3.434 -0.0911 -0.1628  0.3334
11355W        W26824  16.555  14.776   0.335  0.0921  0.0962  0.2393
11356W        W26825   1.371  10.999   5.454  0.2738 -0.0836  0.2491
11357W        W26826   6.904   2.795   3.902 -0.0760  0.1443 -0.2215
11358W        W26827  15.930   3.093  14.100 -0.2065  0.0757  0.1134
11359W        W26828  13.198   7.102   2.192 -0.1236  0.1736 -0.2046
11360W        W26829   5.018   1.952   4.282 -0.1165 -0.0944 -0.1000
11361W        W26830  14.311  17.558   3.021 -0.1234  0.0264  0.0977
11362W        W26831   0.189   2.687  12.310  0.0521  0.2245 -0.1906
11363W        W26832   6.004   1.216  15.222  0.1677 -0.0337 -0.1594
11364W        W26833  18.341   6.765   1.588  0.1040  0.1740 -0.1591
11365W        W26834  13.850   5.176  10.744 -0.0634 -0.2056 -0.1081
11366W        W26835  14.093   3.321   4.329  0.7231  0.1045 -0.0323
11367W        W26836   9.910   1.669  15.346  0.1395 -0.2586 -0.0198
11368W        W26837   6.332   4.643   5.034  0.1418 -0.3587  0.0527
11369W        W26838   5.247   7.765  12.877 -0.0127  0.3148  0.0121
11370W        W26839  14.615   1.403  12.771 -0.1666  0.0577  0.0271
11371W        W26840  16.895  15.483   0.884  0.2963  0.0665 -0.0234
11372W        W26841   3.717   6.671  12.916  0.1431  0.1188 -0.5077
11373W        W26842  12.213  13.291   0.800 -0.1223  0.4150  0.3046
11374W        W26843   2.072   9.741  13.613  0.3437 -0.2696  0.1158
11375W        W26844  14.449   2.899   0.883 -0.1181  0.2658  0.3121
11376W        W26845  11.558  13.212   2.572 -0.3465 -0.1733 -0.0668
11377W        W26846   0.892   5.351   3.225 -0.0314  0.3048  0.1480
11378W        W26847   2.360   2.061   1.186 -0.1543  0.0880  0.2077
11379W        W26848  12.657  13.415  14.884  0.1760 -0.0189 -0.0138
11380W        W26849  17.962   6.439   4.609 -0.1170  0.3377 -0.3760
11381W        W26850  15.394   3.152  13.161  0.3098 -0.2697 -0.3161
11382W        W26851   2.787  12.192  13.688  0.1647  0.2590 -0.0915
11383W        W26852   1.971  17.646   1.649 -0.3208 -0.2090  0.0718
11384W        W26853  11.284  10.888  11.822 -0.0504  0.0248 -0.1130
11385W        W26854   2.172  10.285  10.762  0.0743  0.1006 -0.1401
11386W        W26855   0.309  10.857  11.864 -0.2841  0.0536  0.1544
11387W        W26856  18.409  15.592  12.618  0.1629 -0.0985 -0.0177
11388W        W26857   3.623   1.558  14.587  0.0100  0.1653  0.1308
11389W        W26858  11.069  14.303  13.680 -0.0563 -0.1818  0.0262
11390W        W26859  15.735  14.112  10.798 -0.3242 -0.2051  0.1688
11391W        W26860  15.069   9.560  14.314 -0.2286  0.2964  0.1970
11392W        W26861  13.575  12.732  11.341  0.1125 -0.2286 -0.0513
11393W        W26862   0.686  10.022  12.441 -0.3037 -0.0831  0.0590
11394W        W26863   9.522   7.092  12.354  0.0188 -0.3109  0.1061
11395W        W26864  15.626   3.091   3.099  0.3554 -0.1106  0.2329
11396W        W26865  14.512   8.839   1.373 -0.0931 -0.1290  0.0981
11397W        W26866   1.460  10.271  15.607  0.1827 -0.2710 -0.2827
11398W        W26867  12.540   6.770   4.492  0.2589 -0.0704 -0.1394
11399W        W26868  17.431  10.126   3.945  0.0015 -0.0484 -0.0795
11400W        W26869   3.128   0.722   6.294  0.0009 -0.1991  0.3768
11401W        W26870   7.185   2.922  10.605 -0.1116  0.2079 -0.4623
11402W        W26871   6.917  11.084  13.483  0.0551  0.0973  0.1731
11403W        W26872  10.479  13.368   4.865  0.0384 -0.0475 -0.0177
11404W        W26873   2.372  14.622   1.641 -0.3867  0.0879 -0.0032
11405W        W26874  14.393   8.387   3.594 -0.1181  0.1559 -0.0526
11406W        W26875  15.847  14.233   4.286 -0.0912 -0.1045 -0.4451
11407W        W26876  12.816  16.244  13.161  0.1325 -0.3700  0.1490
11408W        W26877  10.704   5.226   0.081 -0.4248  0.1550 -0.0965
11409W        W26878   6.322   3.047   3.776  0.0245  0.2191  0.2920
11410W        W26879  18.689   1.496  11.851 -0.4255 -0.2064  0.6572
11411W        W26880   8.063   6.435  11.339 -0.1201  0.1563  0.1091
11412W        W26881  15.672   1.521   4.597  0.0050  0.1777  0.2294
11413W        W26882   6.201   2.212   2.107  0.1441 -0.0150 -0.1478
11414W        W26883   0.991   7.805   4.668 -0.0580 -0.0096 -0.2659
11415W        W26884  17.595  18.407  12.313 -0.0684 -0.3391  0.3230
11416W        W26885   7.326  15.021   2.328 -0.1534  0.0785  0.0011
11417W        W26886   5.546  16.055  14.096 -0.0668 -0.1973 -0.1404
11418W        W26887  15.706   0.224  13.339 -0.0536  0.0213  0.2395
11419W        W26888  11.722  13.140   4.404  0.0889  0.0056 -0.1435
11420W        W26889   8.242  16.079  14.613 -0.0562 -0.0821  0.1662
11421W        W26890  14.322  17.970  12.487  0.3037 -0.1620 -0.3523
11422W        W26891  13.799   5.693  13.522 -0.0052  0.1105  0.1702
11423W        W26892   7.222   9.581  14.497  0.0760 -0.2006 -0.1196
11424W        W26893   9.272   1.133   1.721  0.1240 -0.2003  0.1851
11425W        W26894   8.471   9.610  10.611  0.0997 -0.2252 -0.4612
11426W        W26895   2.391   5.521   4.818  0.0327  0.3388 -0.2422
11427W        W26896   7.815  10.211  14.415  0.3519 -0.2897 -0.2442
11428W        W26897   5.528  14.759   2.748 -0.0512  0.0841 -0.0837
11429W        W26898   5.190   7.337  11.302 -0.2561 -0.0603  0.0667
11430W        W26899  10.947   9.724  14.814  0.0183 -0.1283 -0.1429
11431W        W26900  15.665  16.720  13.257  0.1052  0.0489  0.0569
11432W        W26901   2.076  10.653  14.432  0.0384 -0.3117  0.0011
11433W        W26902   3.451  14.904  11.185 -0.0877 -0.2553 -0.1723
11434W        W26903  13.219   8.653   3.955 -0.2575 -0.3121 -0.0647
11435W        W26904   0.879   0.792   1.697  0.0246  0.0885 -0.0695
11436W        W26905   2.934   0.706   1.296  0.2855  0.1653  0.0489
11437W        W26906   5.537   6.397   2.609 -0.1088  0.2521 -0.1244
11438W        W26907   9.475  10.881   4.218 -0.2668  0.0123  0.2674
11439W        W26908  14.670   9.262   4.339 -0.1880  0.0547  0.2831
11440W        W26909   2.819  18.244  12.368 -0.3521  0.1352 -0.2342
11441W        W26910  12.608   5.691   1.957 -0.1064 -0.0092  0.0709
11442W        W26911   1.426   1.421   0.307 -0.0967 -0.0841 -0.0898
11443W        W26912   2.686  12.735   3.889 -0.1901  0.0695  0.0588
11444W        W26913  12.526   4.857  14.249 -0.0637  0.0368 -0.1147
11445W        W26914  11.650   5.998   1.310  0.0106 -0.3400  0.0643
11446W        W26915   2.705  11.233  12.609  0.0947 -0.1881 -0.0764
11447W        W26916  12.651   2.412  12.671 -0.3143 -0.1161 -0.1853
11448W        W26917  18.424  10.531   2.044  0.0528 -0.1795  0.0057
11449W        W26918  17.638  16.237   0.500  0.1316 -0.2521 -0.0262
11450W        W26919  17.973  11.379   3.552  0.0539 -0.0268  0.2354
11451W        W26920   4.481   6.052  10.498  0.0610 -0.2102  0.1857
11452W        W26921  17.088  13.264  14.762 -0.0831 -0.2280 -0.1021
11453W        W26922   0.049  15.676   5.319 -0.1499 -0.1811 -0.0571
11454W        W26923  14.944   7.155   2.999  0.2496  0.1210  0.1974
11455W        W26924   5.427   8.315  11.022 -0.0358  0.1431  0.2332
11456W        W26925  17.623   8.246   3.334 -0.0332  0.0917  0.1881
11457W        W26926   7.740  14.349  12.236 -0.3798 -0.0012 -0.1087
11458W        W26927   8.873   2.773   3.582 -0.1227  0.0774 -0.5152
11459W        W26928  16.361   5.948  14.297 -0.1749 -0.1064  0.2466
11460W        W26929   0.172  10.875  13.430 -0.1565 -0.0559 -0.0395
11461W        W26930   3.465   0.610   1.247 -0.0421  0.0322  0.1124
11462W        W26931  15.854   1.749   3.155 -0.2229 -0.1406 -0.0814
11463W        W26932  14.563   9.764  15.042 -0.3367  0.2482  0.3242
11464W        W26933   8.205  13.947   1.458 -0.2328  0.2313  0.2197
11465W        W26934  13.423   4.386  14.822  0.2882 -0.0876  0.0589
11466W        W26935  10.099   9.408  15.333 -0.3537 -0.2543 -0.3346
11467W        W26936   5.812   2.949   3.041  0.0175  0.0183  0.2912
11468W        W26937   0.869   9.954   1.638  0.4933 -0.1431  0.0792
11469W        W26938   0.403  16.036  12.449 -0.1855  0.1976  0.0445
11470W        W26939   4.428   7.996  11.233 -0.2738 -0.1167  0.0132
11471W        W26940  13.702  12.567   5.435  0.1964  0.1760  0.0829
11472W        W26941   3.443   4.082  14.907  0.1264  0.0024  0.4781
11473W        W26942   6.126  14.879   4.525 -0.0281  0.0508  0.1445
11474W        W26943  11.958   8.349  15.128 -0.0804  0.0688 -0.0496
11475W        W26944  10.198  16.753   0.867 -0.1348 -0.0667  0.0107
11476W        W26945   7.382  14.724   4.322 -0.1565  0.4436 -0.0910
11477W        W26946   7.598  10.264  10.481  0.2744  0.1277 -0.1940
11478W        W26947   6.187   2.257  10.203  0.1508 -0.0342 -0.1687
11479W        W26948   1.784   0.020  12.187  0.0761  0.1160  0.0949
11480W        W26949  15.317   6.926   3.199 -0.3489  0.1819  0.2113
11481W        W26950   0.752   9.930  11.086 -0.1553 -0.1278  0.1353
11482W        W26951   0.792  14.227  10.774  0.0145 -0.0579  0.0778
11483W        W26952  14.851   8.539   3.563 -0.2728 -0.3595 -0.4315
11484W        W26953   2.054  11.873   0.437  0.1602  0.0203  0.0555
11485W        W26954  16.797   5.886  13.886  0.1539  0.1094  0.0493
11486W        W26955   8.022   5.139  13.183 -0.0185  0.0729  0.3723
11487W        W26956   4.387   2.712   0.125 -0.2997  0.0934  0.2752
11488W        W26957   7.087   1.069   4.154  0.1125 -0.0404  0.0345
11489W        W26958  13.266  17.175  14.521 -0.0906  0.1809  0.2199
11490W        W26959  17.597   4.037  10.817  0.1347 -0.1296 -0.0826
11491W        W26960  11.464  12.819  12.528 -0.1201 -0.2447  0.2945
11492W        W26961  17.062  18.338  12.511 -0.1884  0.3728  0.1651
11493W        W26962   4.463  12.605  12.113  0.1213  0.2082 -0.3029
11494W        W26963   4.539   4.645  10.691 -0.2605 -0.1614 -0.0807
11495W        W26964   7.936  13.651   0.348 -0.0665  0.2338  0.0374
11496W        W26965   9.896  16.282  13.827  0.2890 -0.2299 -0.0415
11497W        W26966   6.007   3.743  12.231 -0.0640  0.1045  0.1840
11498W        W26967   1.526   2.798  11.084  0.4492  0.0244  0.0425
11499W        W26968   7.210   0.047  12.178 -0.0517 -0.1315 -0.2454
11500W        W26969  13.134   0.640  12.966  0.0083  0.0190 -0.3198
11501W        W26970  13.488  10.680   1.883  0.2975 -0.1336 -0.0835
11502W        W26971  10.597  17.507  13.401 -0.0434  0.2855 -0.0529
11503W        W26972  11.237   7.651   0.961 -0.0664  0.1782 -0.2328
11504W        W26973  11.224  13.174   5.529  0.0502 -0.2832 -0.1671
11505W        W26974   1.851  17.249  15.611  0.3184  0.2147 -0.4139
11506W        W26975   4.821   9.920   1.833  0.2913  0.2205  0.2266
11507W        W26976  14.286   9.544  12.301  0.1796  0.0420  0.1635
11508W        W26977   9.672   1.121   3.423 -0.1518  0.1281  0.1685
11509W        W26978  16.428  10.868   1.679  0.2156  0.0997 -0.1595
11510W        W26979  11.218  15.327  13.128  0.0030 -0.0337  0.3523
11511W        W26980   8.115   4.113   2.348  0.1167 -0.0804 -0.1236
11512W        W26981  12.406  15.907  12.267  0.1073 -0.2832 -0.1382
11513W        W26982   2.303   3.676  14.779  0.1723 -0.1309  0.1033
11514W        W26983   9.126   3.224   0.744 -0.2846 -0.2686  0.1280
11515W        W26984  15.585   3.975   5.581  0.2348 -0.2044 -0.2498
11516W        W26985   8.700  18.190   2.538  0.3183 -0.0013  0.1109
11517W        W26986  16.290  17.932   2.228  0.0773  0.2067  0.2098
11518W        W26987   2.351  15.559  13.222  0.0014  0.0549  0.3668
11519W        W26988   2.680  10.517   1.892 -0.3005 -0.1789 -0.1740
11520W        W26989   6.283   6.415   3.085 -0.0916 -0.0239  0.0297
11521W        W26990  15.425   4.295  12.751 -0.1027 -0.0045  0.0080
11522W        W26991   4.281  10.307  14.336 -0.1042 -0.1430 -0.1665
11523W        W26992  10.757   6.498   0.245  0.2333  0.1691  0.0010
11524W        W26993  11.149   2.968  13.917  0.0635 -0.0709 -0.2252
11525W        W26994   2.593  12.124   0.824 -0.3236 -0.0448 -0.2995
11526W        W26995   7.092  14.413  13.390  0.1742 -0.2142  0.3569
11527W        W26996   5.700  14.364  14.241 -0.0897 -0.1557  0.1855
11528W        W26997   0.852  15.094   0.283 -0.0392  0.2601  0.2016
11529W        W26998  15.744   0.240   5.186 -0.0191 -0.0611  0.4421
11530W        W26999  11.906  15.803   4.779 -0.0291  0.2026  0.1690
11531W        W27000  10.280   7.454  13.586 -0.2008  0.1252  0.5197
11532W        W27001  16.246  18.428   9.868 -0.4052  0.0294  0.1562
11533W        W27002   0.740   7.679   5.050 -0.2773  0.0956 -0.0359
11534W        W27003  11.593  13.734   2.367 -0.1105  0.1208 -0.1039
11535W        W27004   6.625   8.370   3.082  0.1883 -0.0551 -0.0630
11536W        W27005   8.021  17.492   1.084  0.2754  0.3895 -0.1923
11537W        W27006  17.496  12.194   4.702  0.3520 -0.1374  0.0476
11538W        W27007  13.976  13.123  11.556 -0.1250  0.0837 -0.1272
11539W        W27008  11.110   2.724  15.552  0.0022 -0.3423 -0.0570
11540W        W27009  10.125  10.898   3.488 -0.0309 -0.0702  0.1013
11541W        W27010  14.051   3.503   0.196  0.0050 -0.0444 -0.0695
11542W        W27011   3.968   1.162   0.070  0.2104  0.3020 -0.4163
11543W        W27012  18.046  14.092  14.354  0.0487 -0.3063 -0.4352
11544W        W27013   5.455   0.743  13.553  0.1428  0.0339  0.0889
11545W        W27014  16.951   8.095   0.272  0.0809 -0.2154 -0.1715
11546W        W27015   1.546  13.692  12.164  0.1285  0.2755 -0.0966
11547W        W27016   8.444  10.435   1.843 -0.1479 -0.1782 -0.0078
11548W        W27017   4.139   7.212   1.496  0.1189 -0.3816  0.0919
11549W        W27018  11.371   7.281  10.399 -0.1546  0.0987  0.0153
11550W        W27019  15.433   6.148  15.150 -0.2525  0.2078 -0.3804
11551W        W27020   1.153  17.883   4.039 -0.2832  0.1195  0.0450
11552W        W27021   0.381   7.863  11.237 -0.0357  0.1641  0.3690
11553W        W27022  18.091  16.472   2.872 -0.3649 -0.2155 -0.0203
11554W        W27023   3.253   1.760  10.962 -0.2936  0.2231  0.2350
11555W        W27024  17.917  18.358  12.696  0.1697  0.0982  0.2242
11556W        W27025  15.237  14.441   3.020 -0.0196  0.0735 -0.0447
11557W        W27026  16.999  15.792   4.756 -0.0725 -0.0726 -0.2144
11558W        W27027   0.407   7.016   2.270 -0.2034  0.3659 -0.1406
11559W        W27028   1.630   1.100   4.015  0.1282 -0.0047 -0.1096
11560W        W27029  18.152  17.221   1.770  0.0803 -0.0147 -0.0726
11561W        W27030   0.504   5.008   0.599  0.1120 -0.0927 -0.0068
11562W        W27031  17.002   3.844   0.919  0.2316  0.2826  0.2988
11563W        W27032   5.193  14.241  14.242 -0.0348  0.0069 -0.1272
11564W        W27033   4.549   5.154  14.531 -0.0980  0.2394 -0.2162
11565W        W27034   9.482  15.514   9.956  0.0202  0.0597  0.1909
11566W        W27035  17.752  18.622  11.513  0.0214  0.0080  0.0133
11567W        W27036  13.682  13.113   0.354  0.0771  0.0104 -0.1448
11568W        W27037   6.443   6.302  13.153 -0.1620  0.0049  0.1705
11569W        W27038  11.588   2.193  14.530  0.4833  0.1646  0.2348
11570W        W27039  11.745   1.223   2.430 -0.1941  0.1778 -0.3047
11571W        W27040   4.029   9.548   0.134  0.3215 -0.0583  0.0871
11572W        W27041   6.904   4.431  11.715 -0.0149  0.1677  0.1100
11573W        W27042  13.835  11.937  14.035 -0.1047 -0.0446  0.0950
11574W        W27043  10.692   6.627  12.577  0.1599 -0.0508  0.0911
11575W        W27044   7.433   4.413   3.275  0.0754 -0.2230  0.0440
11576W        W27045  10.217   5.577  15.323  0.2552 -0.0516  0.2391
11577W        W27046  14.703   6.733  15.519  0.2382  0.0728  0.0106
11578W        W27047   8.265  10.738  13.071 -0.0594 -0.1607 -0.1955
11579W        W27048  10.943  11.145  12.263 -0.3523 -0.1062 -0.0816
11580W        W27049   1.300  16.737   2.671  0.2662  0.2000  0.1208
11581W        W27050   3.774   8.059  13.100 -0.0207  0.3170 -0.0547
11582W        W27051   6.696   9.873   2.074  0.1478  0.1357 -0.0814
11583W        W27052  13.195   9.075   5.328 -0.1856 -0.2562 -0.4581
11584W        W27053  18.320  18.685  12.608 -0.2812 -0.0942  0.2013
11585W        W27054  17.281   3.263   3.245  0.2453  0.3318  0.2551
11586W        W27055  12.634   7.967  11.472 -0.1115 -0.0582  0.0410
11587W        W27056   0.166  17.992  13.669  0.1664  0.0333  0.2596
11588W        W27057  11.503   1.984   5.035  0.0069  0.0983  0.0365
11589W        W27058  16.264   4.823  13.282 -0.5114  0.0424 -0.0027
11590W        W27059   7.013   2.355  13.601  0.0603 -0.1348  0.1349
11591W        W27060   6.261   9.853   1.653  0.0950 -0.2966  0.2768
11592W        W27061  15.600   6.862  14.867 -0.1823 -0.0947  0.1742
11593W        W27062   1.745   1.250   2.080  0.2597  0.0535 -0.0084
11594W        W27063   4.160   9.875   0.937  0.1074  0.2804 -0.0664
11595W        W27064  18.143  11.421   4.568 -0.1082  0.2169 -0.0438
11596W        W27065   2.334  12.977   1.745  0.1859  0.0592 -0.0694
11597W        W27066   2.364  11.141  11.630 -0.2624 -0.1098 -0.2046
11598W        W27067   6.619   1.121  12.731 -0.1813  0.2534 -0.0679
11599W        W27068   1.096  12.881   5.061  0.0302  0.3859 -0.2098
11600W        W27069  12.208  18.679   4.356  0.2446  0.0139  0.0924
11601W        W27070   9.625  11.770   0.773 -0.1151  0.0250  0.1958
11602W        W27071  18.278  14.373   1.357  0.4938  0.1231 -0.1305
11603W        W27072   2.028  14.869  11.402 -0.1017 -0.0987  0.1707
11604W        W27073   9.149  13.532  13.257  0.1001  0.1501 -0.1633
11605W        W27074  11.241   6.846  11.984  0.0428  0.1649 -0.1434
11606W        W27075   7.400   0.754  11.320 -0.0153 -0.0478 -0.1110
11607W        W27076  12.711  18.585   2.761 -0.1797 -0.0444 -0.0944
11608W        W27077  16.048  17.001  12.963  0.1178  0.0605  0.1135
11609W        W27078   9.067  18.094   2.233  0.1520  0.4205  0.3604
11610W        W27079  10.425  11.698   1.560 -0.1844 -0.0613 -0.1317
11611W        W27080  17.702  18.432  10.569  0.1065  0.3567  0.5223
11612W        W27081   8.407   2.515   5.586  0.2663 -0.0093 -0.2148
11613W        W27082  13.396  16.822  13.671 -0.2252  0.1124 -0.1003
11614W        W27083   5.176  14.017   4.198  0.1300  0.0073  0.0893
11615W        W27084   4.187   0.196   2.939 -0.3091 -0.1669 -0.3313
11616W        W27085  13.220  14.505   0.194  0.4631 -0.0632  0.2694
11617W        W27086   2.827  10.464   0.866 -0.1309  0.3647 -0.2085
11618W        W27087  13.819   2.549  13.881  0.0556 -0.3989  0.0857
11619W        W27088   3.291  10.294   4.833  0.2388 -0.1341 -0.2832
11620W        W27089  16.720   8.001   5.429  0.1902  0.0012 -0.2869
11621W        W27090  17.175   1.812   4.423 -0.0428 -0.1805  0.3793
11622W        W27091   4.371   8.071   3.810 -0.3411 -0.1361  0.0829
11623W        W27092  17.449  14.545  11.043 -0.1320 -0.1206 -0.2999
11624W        W27093   0.549   3.261  15.379  0.1107  0.3359  0.0672
11625W        W27094  13.287   7.180   1.636 -0.1718 -0.0034 -0.1449
11626W        W27095   7.645  18.627   1.798  0.0103 -0.3001  0.0309
11627W        W27096   6.801   4.577   1.997 -0.2468  0.0939 -0.2457
11628W        W27097   9.869   8.419  14.736  0.0005 -0.0965 -0.0840
11629W        W27098   8.863   4.011  11.896  0.2626 -0.1204 -0.1964
11630W        W27099   4.255  11.701  10.491 -0.0123  0.2679 -0.0586
11631W        W27100   4.731  16.179  15.444 -0.3212  0.1415 -0.0252
11632W        W27101   2.657  17.365  11.118  0.0222 -0.2309  0.1662
11633W        W27102  15.196   9.882   4.356  0.1636  0.4040 -0.1587
11634W        W27103  11.253  16.134  12.216  0.0173 -0.3383  0.1450
11635W        W27104   1.016  11.847  11.004  0.1969 -0.1970  0.1040
11636W        W27105  10.080   9.170  14.581  0.2082 -0.1642 -0.2808
11637W        W27106   3.960   4.234  14.881 -0.0853  0.3222 -0.0282
11638W        W27107  18.515  14.799   1.507 -0.0710  0.1012  0.2056
11639W        W27108   1.894  18.445   2.321  0.3768  0.1211 -0.1701
11640W        W27109  17.959   9.534  11.083 -0.0138 -0.0953  0.0516
11641W        W27110   7.236   0.311   5.432 -0.0597 -0.0933  0.2084
11642W        W27111   9.705  13.263   9.905 -0.3951 -0.2443 -0.2956
11643W        W27112   9.189   2.792  11.381 -0.0409  0.0665  0.1703
11644W        W27113  13.504   4.060  11.332  0.2592 -0.1941 -0.0601
11645W        W27114   7.701  17.907  12.269  0.1438 -0.0138 -0.1072
11646W        W27115  16.207   9.139   1.941 -0.0093 -0.3256  0.1895
11647W        W27116  17.259   8.237   2.288 -0.0632  0.0639  0.0679
11648W        W27117   9.278  17.256  11.028 -0.1249  0.0072 -0.3566
11649W        W27118  10.935   9.688   2.054  0.1008  0.0801  0.0653
11650W        W27119   2.681  13.302  11.648 -0.0942 -0.0681  0.2742
11651W        W27120  18.441   1.639   5.474 -0.1205  0.3560  0.0298
11652W        W27121  12.356  15.563   1.508  0.2510  0.0595 -0.3942
11653W        W27122   8.767  16.136  13.621  0.0402  0.1884 -0.1953
11654W        W27123  14.845   3.669  14.878 -0.1294  0.0512 -0.0756
11655W        W27124   6.443   5.017   4.624  0.2214  0.1114  0.0012
11656W        W27125   9.847  10.985   3.048  0.0808  0.1549 -0.0967
11657W        W27126   6.968   6.430   1.509 -0.3155  0.2332 -0.0664
11658W        W27127  14.698   4.654  10.851 -0.0335 -0.0495 -0.1575
11659W        W27128  12.423   7.630  15.471 -0.0316  0.0289  0.4461
11660W        W27129   0.952   6.883   1.565 -0.0310 -0.2229 -0.0845
11661W        W27130   7.631  12.173   2.975  0.1688 -0.1034 -0.0103
11662W        W27131   8.518  16.913   0.185  0.2497 -0.0253  0.0050
11663W        W27132   1.059   4.815  13.976  0.3009  0.1655  0.0479
11664W        W27133   9.983  12.675  14.637 -0.2435 -0.2025 -0.2069
11665W        W27134   7.546   6.296  11.572  0.2538  0.2439 -0.2317
11666W        W27135   7.622  10.138  11.185 -0.0678  0.0819  0.1105
11667W        W27136   4.815   0.906   5.538  0.2050  0.1995  0.2529
11668W        W27137  18.292  15.345   1.084 -0.1314 -0.2141 -0.2066
11669W        W27138   9.052  16.985  10.682  0.2694 -0.1363 -0.3405
11670W        W27139  17.013  11.350  12.452 -0.0195  0.2259  0.0138
11671W        W27140   5.125  13.573   5.362  0.0756 -0.0846 -0.0921
11672W        W27141   7.338  11.036   3.706 -0.2523  0.2581  0.1409
11673W        W27142  12.465  14.585   1.162  0.0656 -0.1588  0.1302
11674W        W27143   7.860  14.968   2.176  0.1712 -0.0029  0.2078
11675W        W27144   5.628  14.227   4.305 -0.1835 -0.0223 -0.1852
11676W        W27145  16.933   2.184  15.067 -0.4343  0.2593 -0.1407
11677W        W27146  17.571   3.189  11.404 -0.1204 -0.2380  0.1365
11678W        W27147  15.795   0.608   5.656  0.3893  0.0969  0.0137
11679W        W27148   8.513   6.046  15.136  0.0435 -0.2402  0.0161
11680W        W27149   9.767   5.279  15.645 -0.2981  0.0539  0.4183
11681W        W27150   6.314  14.627  12.346 -0.4435  0.0536  0.1766
11682W        W27151  11.338  13.728  12.538 -0.2053 -0.2352 -0.0582
11683W        W27152   6.312   2.689  11.036 -0.0658 -0.1118 -0.0787
11684W        W27153   6.651  14.686  15.540  0.0074 -0.1373 -0.0886
11685W        W27154   6.102  17.171   0.607 -0.1542  0.1836 -0.0135
11686W        W27155  10.032   6.613  13.337  0.2604  0.5059 -0.1736
11687W        W27156  17.219   5.267  14.446  0.1072  0.0240 -0.0441
11688W        W27157  18.400  13.668  15.230  0.0836  0.1289  0.1700
11689W        W27158   7.967  15.258   4.813  0.0588  0.1619 -0.1501
11690W        W27159   6.300   9.051   1.285 -0.1393  0.2091 -0.3177
11691W        W27160  17.241   5.750   2.854 -0.3470 -0.0844 -0.0963
11692W        W27161   9.665   7.012   4.923  0.1150  0.1015  0.3614
11693W        W27162  12.123  17.676   1.282 -0.0164  0.2147 -0.2297
11694W        W27163   9.563   9.716   0.011  0.0202  0.0473 -0.2853
11695W        W27164   3.236   2.870  11.875 -0.1616 -0.0931 -0.1161
11696W        W27165   4.424   9.778  11.226 -0.1314 -0.2264 -0.0215
11697W        W27166  11.649   1.128   5.190 -0.1132 -0.1063  0.1808
11698W        W27167   5.489  14.288   5.186  0.0088 -0.2340 -0.0188
11699W        W27168  12.963   9.061   0.650 -0.0786 -0.3047  0.0142
11700W        W27169   7.044  15.047  12.590 -0.1061 -0.1238  0.3672
11701W        W27170   9.406   7.715   0.527  0.3946  0.2130  0.0533
11702W        W27171  12.984   8.377  12.242  0.1158 -0.0978  0.1742
11703W        W27172   2.562   3.417   5.761  0.0280  0.4131  0.3913
11704W        W27173   2.959  11.644   2.992  0.0669  0.1535  0.4472
11705W        W27174   0.887  12.606   1.126 -0.0216  0.1275 -0.1012
11706W        W27175  15.246  13.112  15.240 -0.2017 -0.0643 -0.3033
11707W        W27176   3.755   7.276  14.835  0.1217  0.0644  0.1210
11708W        W27177   0.923   1.739  14.849  0.1253 -0.2585 -0.0616
11709W        W27178   8.836   9.164   0.897 -0.0513  0.3620 -0.3199
11710W        W27179  12.846  10.046   0.838  0.3871 -0.0612 -0.1491
11711W        W27180   9.290  17.852   3.526 -0.1015  0.1062  0.3063
11712W        W27181  10.124   8.355  15.121 -0.0831 -0.1374 -0.2064
11713W        W27182  15.284   0.184   3.892  0.1235  0.1309  0.2688
11714W        W27183   5.229  11.578   4.468  0.2210  0.4238 -0.0771
11715W        W27184   5.230   3.882   0.819 -0.2689 -0.1838  0.3628
11716W        W27185  17.158   2.028   3.691  0.3208  0.2526 -0.1188
11717W        W27186   2.077  16.401  14.441  0.1310 -0.1915 -0.2832
11718W        W27187   7.418  18.516  13.209  0.0680 -0.1414 -0.1553
11719W        W27188  17.026   6.897   1.193 -0.0460  0.1475  0.2721
11720W        W27189  14.550   2.538   4.839  0.0001  0.1494 -0.0811
11721W        W27190   3.128   3.986   4.538  0.0204  0.2624 -0.0213
11722W        W27191  12.918  16.097  15.524  0.0984 -0.0013 -0.0467
11723W        W27192   6.033   2.552   4.705 -0.2414  0.1098 -0.0096
11724W        W27193   2.511   1.192   9.788  0.1998  0.2017 -0.0481
11725W        W27194   9.525  15.017  12.476  0.2720  0.1050  0.6605
11726W        W27195  11.869   7.089  15.104 -0.0142  0.0673  0.2367
11727W        W27196  16.477   4.083   3.912 -0.0856 -0.0698 -0.1944
11728W        W27197   6.465  17.757   1.114  0.0139  0.2662 -0.1953
11729W        W27198   2.544   8.254  11.233 -0.2611  0.1032 -0.1371
11730W        W27199  11.949  13.568   2.852 -0.1348 -0.2085 -0.1442
11731W        W27200   2.816   0.708   5.177  0.0802 -0.0629  0.2129
11732W        W27201   6.036  14.136  15.037 -0.0306 -0.5677 -0.1202
11733W        W27202   2.575   4.494   4.902 -0.1686  0.0157 -0.1114
11734W        W27203  10.350   1.221  10.939 -0.0866  0.1489  0.0042
11735W        W27204  13.871   8.186  12.450  0.2130 -0.0461  0.3076
11736W        W27205   8.208   9.909  14.201 -0.0230  0.0091  0.4191
11737W        W27206  16.665   3.464   4.320  0.2865 -0.2845 -0.2359
11738W        W27207   6.880  12.136  10.412  0.3450  0.1220  0.1051
11739W        W27208  17.362  12.810   1.467  0.0190 -0.0622 -0.0012
11740W        W27209   0.229  18.626  15.122 -0.0555  0.0255 -0.1560
11741W        W27210   1.829   9.912  10.743 -0.1091  0.2276  0.0989
11742W        W27211   5.483  15.341   1.439  0.1937  0.2698  0.2269
11743W        W27212   3.395   9.831  10.996 -0.3149 -0.0724 -0.2250
11744W        W27213   8.190  10.285  15.614 -0.3408  0.1625  0.2838
11745W        W27214   7.940  18.206   2.174  0.2552  0.4097  0.0755
11746W        W27215  13.613   4.683  13.420 -0.4096  0.3060  0.1128
11747W        W27216  14.663   3.372  14.215  0.0947 -0.2828 -0.1355
11748W        W27217   3.390   8.719  11.362  0.1885 -0.2180  0.2702
11749W        W27218   0.143  16.176   2.672  0.0744  0.0807  0.0550
11750W        W27219  10.169  17.255  11.238 -0.4550 -0.0407 -0.1849
11751W        W27220   6.653  12.472  12.200 -0.1467  0.1699  0.0559
11752W        W27221  14.680   7.987   2.254 -0.4207 -0.0526  0.1339
11753W        W27222   2.918  16.148  13.018 -0.0742 -0.1614  0.0851
11754W        W27223   0.143   3.300  11.779  0.2360  0.1598 -0.0093
11755W        W27224  16.152  14.480   1.242  0.4450 -0.0135 -0.0936
11756W        W27225  14.466   8.909   3.519 -0.4183 -0.0064  0.2479
11757W        W27226   5.802  17.532   2.651 -0.0796  0.1185 -0.1029
11758W        W27227   7.478   6.772   2.793  0.0076 -0.2105  0.0056
11759W        W27228   0.129  12.500  14.643  0.2038  0.1104  0.3167
11760W        W27229   4.007   4.220   1.839 -0.0272 -0.0132  0.0951
11761W        W27230  13.792   1.357   0.256 -0.0806  0.2886  0.1119
11762W        W27231  15.753   5.738  11.634 -0.4110 -0.0280 -0.0786
11763W        W27232   4.617   1.466  11.818 -0.1848  0.0580 -0.0011
11764W        W27233   2.539   7.264  12.771 -0.0130  0.3314 -0.0880
11765W        W27234   1.447   6.745   2.383  0.0622 -0.2287 -0.0742
11766W        W27235   9.967  18.489  14.422  0.3025 -0.0881 -0.2546
11767W        W27236   1.264  14.408   4.113  0.0939 -0.0687 -0.3383
11768W        W27237  12.997   5.277  11.841 -0.1958 -0.1127 -0.2951
11769W        W27238  12.820   8.657   1.027 -0.1205  0.0281 -0.2205
11770W        W27239  13.871   8.370   5.394  0.0497  0.0850  0.1574
11771W        W27240   4.318   2.477  13.264  0.1139  0.2083  0.0256
11772W        W27241  17.977   2.863   4.052 -0.2454 -0.1473  0.1552
11773W        W27242   9.461   0.838   4.931  0.1031  0.0574 -0.1259
11774W        W27243   5.756  11.585  13.099 -0.2772 -0.2782 -0.1196
11775W        W27244   6.120   3.996   0.189 -0.3252 -0.4014 -0.0207
11776W        W27245   1.555  13.534   5.542 -0.0708 -0.1049 -0.1251
11777W        W27246   1.343   0.205  13.235  0.0492 -0.0262  0.1249
11778W        W27247  14.282  17.213  13.977  0.0710 -0.0143 -0.0884
11779W        W27248  13.983   6.527  13.174  0.2862  0.0291 -0.3032
11780W        W27249   1.157   8.787  13.980 -0.4160 -0.0792  0.1217
11781W        W27250  16.916   7.030  12.004  0.2588 -0.4172 -0.1311
11782W        W27251   7.453  16.153  13.125 -0.0702  0.5355 -0.0074
11783W        W27252  17.751  13.210  12.251 -0.4459  0.0918  0.0531
11784W        W27253   3.933   3.144   3.433 -0.2289 -0.0654 -0.0404
11785W        W27254  15.601   7.623  11.753  0.1536  0.0541  0.2572
11786W        W27255   7.540  15.115   1.028  0.2580 -0.4193 -0.0784
11787W        W27256  16.257   6.602   1.641  0.1535 -0.2089  0.2114
11788W        W27257  14.252  14.370   4.748  0.0541 -0.0812  0.0925
11789W        W27258  13.822   7.418  14.767 -0.1564 -0.0271  0.2737
11790W        W27259   0.772   6.448   5.012 -0.2776 -0.0433 -0.1988
11791W        W27260   2.716   9.017  10.987 -0.2425 -0.2628 -0.2967
11792W        W27261   6.640  13.444  10.433  0.0238  0.3693 -0.0889
11793W        W27262   8.352   0.595   3.173 -0.0582 -0.2647  0.0189
11794W        W27263   2.891   2.713   5.448 -0.1718  0.0540 -0.0381
11795W        W27264  16.025  15.517  14.676  0.2370 -0.1414 -0.0738
11796W        W27265  10.506  12.226   1.806  0.1933  0.0722 -0.0991
11797W        W27266   3.957   8.918  11.565  0.0859  0.1219 -0.0461
11798W        W27267   9.334   3.892  15.489  0.2234  0.0702  0.1948
11799W        W27268   7.079   6.158  12.047  0.0009  0.4278 -0.1102
11800W        W27269  14.901   9.425  13.867 -0.1435  0.1712 -0.1392
11801W        W27270  18.278   8.586  15.499  0.3782 -0.2523  0.1413
11802W        W27271   6.056  12.805  13.454 -0.0909  0.0156  0.0216
11803W        W27272   0.090  10.483   1.871  0.0128  0.2563 -0.1165
11804W        W27273   2.296   0.419  13.690  0.2044 -0.0472 -0.1623
11805W        W27274  12.793   3.031  12.588  0.1542 -0.1514  0.0476
11806W        W27275   4.063   8.055   2.354  0.2340  0.0458 -0.1336
11807W        W27276   3.589  12.520   3.320 -0.0571 -0.3634  0.1264
11808W        W27277  12.682  12.101   3.338 -0.3053  0.0369  0.0453
11809W        W27278   2.443  12.603   1.028 -0.0980  0.3328 -0.1810
11810W        W27279   9.752   2.583  12.211  0.0569  0.1174 -0.3271
11811W        W27280   3.955   3.183  12.302 -0.3250 -0.3495  0.0213
11812W        W27281   3.879   1.542   2.162  0.1320 -0.0613  0.1371
11813W        W27282   6.471  11.521   3.481  0.3107 -0.1042  0.0790
11814W        W27283  14.313  16.686   4.055 -0.0972 -0.4654 -0.2045
11815W        W27284  15.051   0.563  13.652 -0.2791  0.0681  0.1613
11816W        W27285   2.225   2.621  13.033 -0.3624 -0.2628  0.0117
11817W        W27286  13.319  12.700  15.209 -0.1338  0.1585  0.0972
11818W        W27287  12.687   2.464  14.930  0.0854  0.3557 -0.0297
11819W        W27288  15.866   8.366  11.611 -0.1108  0.0676  0.3301
11820W        W27289  17.621   7.661  13.115 -0.1297 -0.0493  0.0479
11821W        W27290   3.235   0.240   1.084  0.2618  0.3034  0.0504
11822W        W27291  18.510   2.072  13.413 -0.2827 -0.2308  0.0024
11823W        W27292   6.939   9.783   1.628 -0.1934 -0.2393  0.1009
11824W        W27293   4.283   5.799  15.320 -0.1306 -0.1019  0.0247
11825W        W27294   1.745  14.211  15.374 -0.0172 -0.1507  0.0010
11826W        W27295  17.946   8.690   2.535  0.0411 -0.0761  0.1082
11827W        W27296   2.624   2.650  14.890  0.0856  0.1371 -0.2747
11828W        W27297   7.183   7.174  11.537  0.0658 -0.1690 -0.3405
11829W        W27298  15.744   6.784  14.251  0.3024  0.0489 -0.2619
11830W        W27299   3.502   7.552  10.654 -0.0532 -0.1938 -0.2970
11831W        W27300  14.063   4.270  15.160  0.0317  0.1951 -0.0673
11832W        W27301   5.113   1.076   0.241 -0.0449 -0.0169 -0.2149
11833W        W27302   1.799   5.248  14.160 -0.1417  0.1351  0.0281
11834W        W27303  10.465  13.163   1.835 -0.1676  0.0967  0.0476
11835W        W27304  11.708  14.528  12.856  0.1337  0.0219  0.2740
11836W        W27305   1.891   7.830  12.748 -0.0173 -0.0779 -0.1348
11837W        W27306   1.128  17.705   1.957  0.3567 -0.4285  0.2275
11838W        W27307   7.626  14.554  10.717  0.4410  0.0999  0.2258
11839W        W27308  11.076   8.457   3.825  0.0727  0.1849  0.0948
11840W        W27309  16.169   7.456  10.339 -0.0448  0.0707  0.2106
11841W        W27310   2.952  13.834  13.398 -0.0221  0.0625  0.1768
11842W        W27311   0.324   5.190  12.124  0.1027 -0.2028 -0.0762
11843W        W27312   8.609   6.918  12.565 -0.1883  0.1972 -0.0383
11844W        W27313  14.687  14.219  12.828 -0.2354  0.1262  0.0455
11845W        W27314   7.461  17.173  15.493 -0.1492  0.3244 -0.1496
11846W        W27315   9.347  17.920   4.465 -0.2357  0.0946  0.0878
11847W        W27316  11.661   7.567   1.334  0.2011  0.0172 -0.3015
11848W        W27317   2.399  13.065   0.297 -0.1167  0.0615 -0.0923
11849W        W27318   1.431  11.460  12.749  0.0203  0.1407  0.2400
11850W        W27319  14.863   5.125  10.827 -0.0923  0.1279 -0.0758
11851W        W27320   4.742   0.724  15.008 -0.0271  0.1099  0.2145
11852W        W27321   8.265   8.126   0.025  0.0339  0.1858 -0.2027
11853W        W27322   8.043   8.078  12.861  0.0400  0.1797 -0.1583
11854W        W27323  15.427  10.345  14.548  0.1052 -0.1660 -0.0448
11855W        W27324  16.372   8.965  10.697  0.1947 -0.1298  0.0908
11856W        W27325   8.570  17.443   2.773  0.0786  0.0721 -0.1840
11857W        W27326   9.524   5.476  14.199  0.1649 -0.1051 -0.3334
11858W        W27327   4.576   0.875  13.567  0.0072 -0.2090  0.0075
11859W        W27328   6.687   9.120  15.425  0.1408  0.2841 -0.2310
11860W        W27329   5.749   9.396  14.653  0.0638  0.1154 -0.0608
11861W        W27330  11.909   1.555  15.057 -0.0966  0.0325  0.0363
11862W        W27331  13.046   7.464   3.688  0.4022  0.1199 -0.0023
11863W        W27332  17.879  15.545   4.224 -0.1444 -0.3056 -0.0275
11864W        W27333   4.648  10.166  15.153 -0.2730  0.1646 -0.0615
11865W        W27334  14.136   8.070   0.943 -0.0099  0.3998 -0.0773
11866W        W27335  11.939  13.115  13.447 -0.0333 -0.0605 -0.0098
11867W        W27336  16.279  14.254   2.929 -0.2470 -0.1036 -0.0171
11868W        W27337   4.338  12.667   5.221 -0.4700  0.2179  0.2844
11869W        W27338   1.056  10.419  14.385  0.0124 -0.0404 -0.2787
11870W        W27339  13.487  15.729  10.939 -0.2418 -0.2832 -0.1680
11871W        W27340   0.687  13.672   3.872 -0.1866  0.1357 -0.0582
11872W        W27341   9.545   7.761   2.970  0.2504 -0.0394  0.1947
11873W        W27342  16.891  18.242  12.011  0.3167  0.4204 -0.1381
11874W        W27343   6.732   6.271   2.846  0.0783  0.2311  0.2001
11875W        W27344   0.422  14.265  14.972 -0.0594 -0.1479 -0.2143
11876W        W27345   2.942   2.667   2.508 -0.0727  0.1076  0.0083
11877W        W27346   2.980  17.655  14.187 -0.1509 -0.1261 -0.2749
11878W        W27347  15.801   8.563   2.986 -0.0200  0.2180 -0.1373
11879W        W27348  18.665   1.125   3.421 -0.1197  0.0233 -0.0016
11880W        W27349  15.379   4.465  10.106 -0.3675  0.3956 -0.0649
11881W        W27350   3.493  16.829   0.726  0.0526 -0.0714 -0.1484
11882W        W27351  14.535   7.694   3.170  0.1321  0.3462  0.0330
11883W        W27352   7.180  11.363   3.413  0.0329 -0.0530  0.2202
11884W        W27353   5.641  17.597   5.289 -0.0332 -0.1419  0.2019
11885W        W27354  14.424   1.985  15.471  0.0983 -0.0120 -0.1351
11886W        W27355   5.168  10.682  10.363 -0.1359  0.2415  0.0385
11887W        W27356   9.116  11.874  10.097 -0.0107 -0.1408 -0.1682
11888W        W27357  13.705  15.845   0.468 -0.2351 -0.0592 -0.2948
11889W        W27358   4.881   9.563  11.972  0.1287  0.0024 -0.0560
11890W        W27359  10.659  11.118   3.174  0.0859 -0.0088  0.1016
11891W        W27360  18.466  12.731  15.474  0.2724 -0.1297 -0.0087
11892W        W27361   5.472   8.415  13.356 -0.0194 -0.1885  0.0307
11893W        W27362   9.148  10.177   2.989 -0.1789  0.0266  0.0640
11894W        W27363   9.192  13.905   2.691  0.2226 -0.3031  0.0896
11895W        W27364  18.015  12.457   4.737  0.1525  0.1084 -0.0105
11896W        W27365   2.713   9.696  10.344  0.2930 -0.0086 -0.1480
11897W        W27366  12.147  10.600  11.675 -0.2553 -0.1443 -0.0147
11898W        W27367  10.544  10.229   0.974 -0.0812  0.1867  0.3768
11899W        W27368  11.102   1.803   2.501 -0.0790 -0.0652  0.0525
11900W        W27369   1.153   3.929  15.563 -0.0919 -0.0927  0.0791
11901W        W27370  11.835   6.484  13.082 -0.0045  0.2118 -0.1297
11902W        W27371   0.846   2.910   3.781 -0.1498  0.0843  0.0925
11903W        W27372   7.976  10.694   1.674 -0.2945  0.0873  0.0019
11904W        W27373  10.958   5.252  14.409 -0.3054  0.0189  0.0050
11905W        W27374  18.174   7.183   4.086 -0.0227  0.0962 -0.1546
11906W        W27375   6.665   6.700   3.307 -0.0006  0.2110 -0.1402
11907W        W27376   6.052   1.263  13.669 -0.0488 -0.1576 -0.1423
11908W        W27377  10.809   5.682   1.864 -0.2486  0.0264  0.2581
11909W        W27378  10.724   1.769   0.163 -0.2562  0.2250  0.3556
11910W        W27379   7.524  14.942  11.017 -0.0388 -0.2188 -0.1549
11911W        W27380  10.558  11.215   1.643 -0.1672  0.0839  0.0568
11912W        W27381   0.499   5.118   3.486  0.1344  0.0547 -0.2306
11913W        W27382   2.186  17.230   3.173  0.3112 -0.1110  0.1004
11914W        W27383  11.572   6.746  12.748 -0.1348  0.0197  0.1814
11915W        W27384  10.819  13.521  12.682  0.0212  0.2481 -0.0987
11916W        W27385   9.719   2.887   1.955 -0.1108  0.4102  0.0396
11917W        W27386   8.280   8.904   1.556 -0.1280 -0.0151  0.3536
11918W        W27387  15.485  17.118   5.037 -0.1118 -0.4816 -0.0134
11919W        W27388   8.548   4.634   3.609  0.4394  0.3564 -0.1389
11920W        W27389  11.623  18.063  15.149 -0.2482  0.0781 -0.1802
11921W        W27390  11.970  16.565  13.353  0.3203 -0.2182 -0.2994
11922W        W27391   4.799  10.908  10.027  0.1799  0.2454  0.0236
11923W        W27392   0.371  12.466   0.478  0.0939  0.2102 -0.2427
11924W        W27393   2.192  15.887   2.205  0.1634 -0.1342 -0.1327
11925W        W27394   3.704   6.444  15.577 -0.0936 -0.4238  0.2460
11926W        W27395  18.711   3.807  10.777  0.3287  0.0238  0.0603
11927W        W27396   8.035   0.836  10.717  0.0137 -0.2402 -0.0610
11928W        W27397   8.521   4.665   4.989 -0.2141 -0.0689  0.0593
11929W        W27398   6.333  13.022  13.948  0.0508  0.1187 -0.0727
11930W        W27399  18.201   9.112   2.749  0.1432 -0.1027  0.3000
11931W        W27400   9.827  14.017   3.960  0.1783 -0.0557  0.0165
11932W        W27401  18.585   6.083   9.949  0.2946 -0.2216 -0.1627
11933W        W27402   0.859   9.526  12.331 -0.1270  0.0367  0.0915
11934W        W27403   0.907  16.881  13.547  0.0223  0.4697 -0.1135
11935W        W27404   9.118  11.629  12.359  0.0626  0.0565 -0.0411
11936W        W27405   1.224  10.931   3.130 -0.0933  0.4182  0.1909
11937W        W27406   6.753  15.543   0.393  0.0041  0.5196 -0.0913
11938W        W27407  18.281  12.437   0.284 -0.1360 -0.2392  0.0192
11939W        W27408   4.935  12.908   4.128 -0.6986 -0.3002  0.1522
11940W        W27409   1.416  18.771  11.268 -0.0786 -0.0619 -0.3873
11941W        W27410  16.408   3.917   4.424  0.0393 -0.1691 -0.0409
11942W        W27411  13.842  17.569  13.996 -0.1362  0.0693  0.1401
11943W        W27412  11.967  13.728  13.565 -0.2363 -0.1651 -0.1355
11944W        W27413  10.366  16.133  10.478  0.0919 -0.0446  0.2021
11945W        W27414   5.420  15.917   5.396  0.1736 -0.1136 -0.1347
11946W        W27415   4.273  13.844   4.413  0.0976  0.1479 -0.0850
11947W        W27416  17.859   8.052  11.071 -0.1184 -0.0752  0.0820
11948W        W27417   4.039  10.051   4.719  0.0923 -0.1161  0.0766
11949W        W27418  16.873  16.678   6.189  0.2357 -0.1319  0.1629
11950W        W27419   2.525  18.385   1.867 -0.1920 -0.1461 -0.1407
11951W        W27420   7.294  13.126   0.733 -0.0356 -0.1557  0.1930
11952W        W27421   7.918   9.512   3.875 -0.1614 -0.1198  0.1146
11953W        W27422   7.690   8.756  11.384  0.1147  0.3572  0.1289
11954W        W27423   3.999  15.011  12.594  0.0158 -0.0191  0.1112
11955W        W27424  13.248   6.793  12.128 -0.0008 -0.2269 -0.3854
11956W        W27425   4.810  13.789  12.795 -0.0039  0.1119  0.0798
11957W        W27426  13.669   3.137  14.569 -0.3251  0.1008 -0.2951
11958W        W27427  15.293  11.369   2.206  0.0281  0.0190  0.1757
11959W        W27428   4.918   2.116   1.629  0.1666  0.2623 -0.0814
11960W        W27429  12.669  14.223   2.845 -0.1353 -0.1670  0.1529
11961W        W27430   3.531   1.538  10.090 -0.1396 -0.0069  0.3302
11962W        W27431  12.218  18.472  14.454  0.3992 -0.0690  0.0879
11963W        W27432  11.850   8.818   5.662 -0.0380 -0.4085 -0.0125
11964W        W27433   6.754   9.562   0.764 -0.2193 -0.0726 -0.4552
11965W        W27434   3.645  17.691   4.427  0.4801  0.2934  0.0966
11966W        W27435   9.299  14.471  14.596  0.0626 -0.2792  0.0832
11967W        W27436   4.559   5.894   0.050 -0.1279  0.0806  0.2437
11968W        W27437  15.026  18.634  12.295 -0.1785  0.1172  0.1791
11969W        W27438  11.595   5.455  13.153 -0.0258  0.0464  0.1328
11970W        W27439  16.280  15.862  15.076 -0.0485 -0.0104 -0.1049
11971W        W27440   1.491  13.425   3.996  0.0297  0.0651 -0.1928
11972W        W27441  18.031  12.594  11.197  0.2401 -0.2799 -0.1361
11973W        W27442  10.451   1.846  10.836 -0.3017 -0.0801 -0.2997
11974W        W27443   7.205   9.900   3.933  0.1045 -0.1026 -0.3274
11975W        W27444  13.255  11.491  13.418 -0.5923 -0.0016 -0.2288
11976W        W27445   1.134   8.204   5.044  0.0741 -0.0763 -0.1584
11977W        W27446  16.525   1.616  11.084 -0.0062  0.1344  0.0204
11978W        W27447   7.630   3.647  10.859  0.0478  0.1729  0.0752
11979W        W27448  12.167   7.820   4.409  0.0143 -0.0332 -0.0030
11980W        W27449   1.422   6.147  10.355  0.1010 -0.1478 -0.3182
11981W        W27450   9.839  16.173   1.934  0.0876  0.3085 -0.0285
11982W        W27451  16.239   9.293  13.856 -0.2500 -0.1645  0.0207
11983W        W27452   1.521   2.424  15.323  0.4383  0.0601  0.0492
11984W        W27453   1.777   7.013  15.094 -0.0585  0.1018  0.1867
11985W        W27454   2.644   8.988   1.370 -0.0480  0.1036  0.0324
11986W        W27455  13.671  17.637   3.805 -0.0062  0.2838 -0.1799
11987W        W27456   9.337   8.249   3.275  0.0935  0.1842  0.0721
11988W        W27457   9.524  12.618   2.666  0.0511  0.0676  0.1904
11989W        W27458  17.219   1.519  13.107  0.1536  0.2640 -0.0355
11990W        W27459  18.753   9.159  11.075 -0.2340  0.1446 -0.1065
11991W        W27460  15.429   4.014   2.797  0.0303 -0.0636 -0.1012
11992W        W27461   0.892  14.609   1.372 -0.0889  0.0158  0.1318
11993W        W27462   5.240  17.174   5.339 -0.2160 -0.2222 -0.0186
11994W        W27463   0.374  13.789  13.974 -0.0864  0.0627  0.1769
11995W        W27464  18.688  13.565  13.609  0.2089  0.3273  0.1554
11996W        W27465   2.005   8.761   1.899  0.1634  0.0018  0.0923
11997W        W27466  13.999   5.198  11.680  0.1428 -0.3826 -0.1100
11998W        W27467  13.650   1.295  14.258 -0.0240 -0.1513  0.2083
11999W        W27468   0.587   8.793  13.733  0.3400  0.0867  0.3341
12000W        W27469  17.616  11.791  14.648 -0.0042 -0.3544  0.0011
12001W        W27470   9.258   9.671  10.053 -0.1516 -0.1792  0.1201
12002W        W27471  15.570   8.205   1.492  0.0757  0.0332  0.3241
12003W        W27472   8.244   2.239  13.999  0.1331 -0.2848  0.0574
12004W        W27473   7.199  14.639  10.402 -0.1326  0.1510  0.2302
12005W        W27474   1.730   4.033  11.686 -0.0141 -0.1070 -0.2731
12006W        W27475   7.191   3.267   1.349 -0.2324  0.2879  0.0568
12007W        W27476   1.950  18.035   5.611 -0.0209 -0.2180 -0.0658
12008W        W27477  18.338   7.362  15.667 -0.3720 -0.2112  0.3009
12009W        W27478   0.258   3.794   1.870  0.3635 -0.1705  0.0239
12010W        W27479   9.980   2.775   3.628  0.4114  0.1055 -0.0587
12011W        W27480   6.706  11.906  14.506 -0.0673  0.2402  0.2141
12012W        W27481   1.092   1.307   4.321  0.2166  0.2475 -0.1557
12013W        W27482   2.870   5.428  13.700 -0.0914  0.0355  0.1161
12014W        W27483   9.375  10.577   3.836  0.5514  0.2307 -0.1568
12015W        W27484   4.146   0.629  13.509  0.2707  0.1158  0.0814
12016W        W27485  16.449  10.468  11.032  0.1839 -0.0648  0.0882
12017W        W27486  10.096  10.540  12.230  0.0202 -0.2612  0.0300
12018W        W27487   6.452  14.930  12.889 -0.3169 -0.3081 -0.1330
12019W        W27488  11.003   5.321   3.344 -0.0165 -0.1381 -0.1368
12020W        W27489   9.889  16.322   9.487 -0.1591 -0.3364  0.2676
12021W        W27490   3.634   0.895   3.501 -0.1054  0.0827  0.1393
12022W        W27491   3.138   9.481  15.019  0.2943 -0.0135  0.2389
12023W        W27492  12.746  14.669  12.266 -0.0304  0.0619 -0.1612
12024W        W27493   4.418   4.828  15.161  0.1512  0.2500  0.6028
12025W        W27494   7.329   4.938  10.533 -0.1074 -0.2270 -0.0948
12026W        W27495  12.542  15.845  13.094  0.2580 -0.0427  0.2493
12027W        W27496   6.698   0.388   3.394 -0.0708 -0.0966 -0.1176
12028W        W27497  15.112   6.205  13.008 -0.1433 -0.2512  0.0990
12029W        W27498   9.926  10.268  14.932  0.3168 -0.2200  0.0046
12030W        W27499  13.959   3.756   4.261  0.0625  0.0677 -0.0772
12031W        W27500  14.037  18.078   3.963  0.3153  0.0997  0.1431
12032W        W27501   9.962   8.673   3.557 -0.1167  0.1984 -0.1967
12033W        W27502   3.499  16.527  14.996  0.4118  0.1024 -0.0858
12034W        W27503   8.059   2.510   0.695 -0.1855 -0.0988 -0.0661
12035W        W27504   5.932   5.638   0.082  0.1124 -0.2921 -0.0052
12036W        W27505   4.174  15.356   4.475 -0.0533 -0.0093 -0.2529
12037W        W27506   3.866   1.949  12.826  0.4212  0.0120 -0.1967
12038W        W27507   1.633  12.236   3.728  0.1121  0.0214  0.0329
12039W        W27508  15.577   5.614  11.015 -0.3354  0.0551 -0.0375
12040W        W27509  10.307  14.016   5.762  0.3067  0.0066 -0.0637
12041W        W27510   5.593   1.830   1.372  0.1971 -0.3200  0.0634
12042W        W27511   6.388   0.067  14.013 -0.0750 -0.2882 -0.1742
12043W        W27512   7.682  10.033  11.972  0.0312  0.2943 -0.1508
12044W        W27513  10.987   5.197  12.285  0.1998 -0.0875  0.0056
12045W        W27514  14.006  18.168   4.530 -0.3144  0.4164  0.0309
12046W        W27515   3.521   9.680  12.048  0.0319 -0.1911  0.0692
12047W        W27516  12.293  15.363  11.942 -0.1318 -0.0086 -0.3746
12048W        W27517  16.000  10.943  15.466  0.2158  0.4217  0.1666
12049W        W27518  15.767  14.965   2.637  0.0327  0.0875  0.0697
12050W        W27519   0.706   1.772  11.371  0.3830 -0.3527  0.2055
12051W        W27520   4.486  16.489  14.425  0.4003  0.0023  0.1462
12052W        W27521   4.440   0.589  13.981 -0.0697 -0.3298  0.0470
12053W        W27522   2.503   1.783   3.084  0.0987  0.0542 -0.0110
12054W        W27523  14.014  15.050  13.515 -0.1399  0.3495 -0.0628
12055W        W27524  18.258  16.527  10.227  0.2980  0.1020  0.0032
12056W        W27525  12.692  12.502  11.878 -0.1240 -0.3167 -0.1093
12057W        W27526   5.665   1.666  15.241 -0.2883 -0.0893  0.0755
12058W        W27527   5.275  11.839   2.831 -0.2572 -0.2199  0.5055
12059W        W27528  15.742  11.706  11.946  0.2323 -0.1530  0.1595
12060W        W27529   1.665   6.349   1.791 -0.1570  0.4367  0.1079
12061W        W27530  14.847   3.866  13.414 -0.1861  0.0211  0.2036
12062W        W27531  17.637  12.112   4.134 -0.0344 -0.2838  0.0824
12063W        W27532   6.234   5.617  11.859 -0.2591  0.0895  0.2657
12064W        W27533   0.170  13.326  13.937 -0.2432 -0.1725 -0.3531
12065W        W27534  10.388   6.252   2.550 -0.1245 -0.3422 -0.2496
12066W        W27535   2.019  13.219   3.779  0.2818  0.5140 -0.2329
12067W        W27536   5.518  11.479   2.568 -0.3088  0.1390 -0.2148
12068W        W27537   6.035  12.693   1.872  0.1498 -0.0058 -0.1262
12069W        W27538   9.121  13.699   0.212 -0.3006 -0.2775 -0.0033
12070W        W27539  11.548   4.118   3.751  0.1491  0.1080 -0.1177
12071W        W27540   0.696  18.281  10.774  0.1918  0.1553 -0.2018
12072W        W27541  11.756  11.152  12.207  0.1992 -0.1072 -0.3184
12073W        W27542   5.541   5.317  14.940  0.0855  0.0121 -0.4422
12074W        W27543  16.062  13.504  13.914  0.2735  0.1402  0.1700
12075W        W27544   1.756   6.650  11.088  0.0347 -0.3439  0.2150
12076W        W27545  15.352   9.177  14.168 -0.1611 -0.0123 -0.3329
12077W        W27546   3.920  10.648  14.227 -0.0174 -0.1717  0.1702
12078W        W27547  14.966   0.356   3.510  0.0513  0.0278  0.2894
12079W        W27548   2.961  15.429  12.355  0.0785 -0.2788  0.0312
12080W        W27549   3.406  13.134  15.660 -0.1291 -0.0329  0.0463
12081W        W27550   5.884  15.743  13.012  0.0096 -0.1220  0.2110
12082W        W27551   2.891  10.014   3.430 -0.1316 -0.3331 -0.1024
12083W        W27552   4.403   7.763   2.754 -0.3711 -0.0840 -0.1222
12084W        W27553  15.149  15.853  14.836 -0.2785  0.1290 -0.0480
12085W        W27554   6.840   7.600  12.784  0.1025  0.1110 -0.0874
12086W        W27555  11.014   3.828   0.575  0.1179 -0.0691 -0.1085
12087W        W27556  12.401  15.672  15.095 -0.1190  0.0726 -0.2314
12088W        W27557   7.321   1.116  13.874 -0.1819  0.0569  0.2519
12089W        W27558  10.055   8.752  13.752 -0.0900  0.1339 -0.2413
12090W        W27559  12.705  18.701  11.775  0.1619 -0.3280 -0.0516
12091W        W27560  11.842  15.220   4.997  0.0132  0.0338  0.0759
12092W        W27561   6.266   1.993   0.707 -0.2384  0.0174  0.2477
12093W        W27562   4.495   1.473  14.463 -0.0881 -0.1196 -0.1377
12094W        W27563   1.208  12.792   2.481  0.2392  0.0408  0.0202
12095W        W27564   3.101   8.191   1.320  0.3411  0.0211  0.3854
12096W        W27565  16.942  16.559   0.755  0.3518  0.1217 -0.0267
12097W        W27566   2.855   6.927   4.577  0.0710 -0.0091 -0.0362
12098W        W27567   6.309  10.070   5.020 -0.0903  0.0003  0.0527
12099W        W27568  12.308  14.417  12.873  0.3757  0.3513  0.2865
12100W        W27569  10.506   7.097   4.350  0.0317 -0.1968  0.0218
12101W        W27570   5.075   0.941  11.527  0.0457 -0.0024  0.1004
12102W        W27571  17.193   7.371  13.461  0.1830 -0.3925  0.2147
12103W        W27572   2.790   9.605   3.144  0.2199  0.0805  0.2878
12104W        W27573   8.595   2.028  14.300 -0.0943 -0.1477  0.1506
12105W        W27574   9.042   8.975   4.919 -0.1968 -0.0148  0.1224
12106W        W27575  16.488  15.982  13.583  0.0085 -0.3162  0.3288
12107W        W27576   3.253  12.041   2.397  0.3249  0.3190  0.1340
12108W        W27577   2.654   8.643   2.851 -0.0231  0.1228 -0.4021
12109W        W27578   5.904  13.591   3.685  0.1968  0.1353 -0.0849
12110W        W27579   0.285   7.896  12.515 -0.2739  0.0489 -0.0616
12111W        W27580  11.248  12.962  13.095 -0.1732  0.1176  0.1648
12112W        W27581   4.845  15.949  11.001 -0.1698 -0.1223 -0.2345
12113W        W27582  17.375   9.567  14.271  0.1184 -0.0387  0.2977
12114W        W27583   1.104  16.034  15.490 -0.4169 -0.2758  0.0873
12115W        W27584  15.173   6.146   2.502  0.0619  0.0285 -0.3092
12116W        W27585   1.271  16.304   0.845 -0.1390  0.1009 -0.2102
12117W        W27586   3.952   7.145  11.392 -0.2849 -0.1405  0.5577
12118W        W27587  15.474   6.863   2.095  0.0253  0.2315 -0.1689
12119W        W27588   6.992  11.048   4.530  0.1243 -0.1104  0.1914
12120W        W27589   1.250  17.174  15.619 -0.2370 -0.0238 -0.0848
12121W        W27590   2.096   0.742   4.846  0.0414  0.3310  0.0394
12122W        W27591  10.408  16.061   2.811  0.0332 -0.1462 -0.0120
12123W        W27592   9.911  14.844   3.567  0.0786 -0.1424 -0.2036
12124W        W27593  18.247   6.621   3.107 -0.1652 -0.0643  0.1815
12125W        W27594  11.935   7.346  11.265 -0.0280 -0.2582 -0.2467
12126W        W27595  16.316  11.481   0.460  0.2176  0.0945  0.1621
12127W        W27596  14.933   8.650   1.003  0.0095 -0.0257  0.1851
12128W        W27597   0.205   6.641   4.383  0.0221  0.1839  0.1816
12129W        W27598  12.785   2.751   1.306 -0.2377  0.3249 -0.0532
12130W        W27599  13.075   2.677   0.002 -0.1223  0.1524  0.1219
12131W        W27600   9.592  10.193   3.582 -0.0680  0.1821 -0.2108
12132W        W27601   6.742   3.126  11.931 -0.0871 -0.0048 -0.1723
12133W        W27602   6.683   6.858  11.569  0.1607 -0.1064  0.0458
12134W        W27603  15.356   1.081  12.594  0.1764  0.2101  0.0499
12135W        W27604   3.085   2.560  15.143  0.2380  0.0845 -0.2609
12136W        W27605  12.320  15.369   5.204 -0.0485 -0.1510 -0.1921
12137W        W27606  14.068   0.081   0.703  0.1671  0.0719  0.2132
12138W        W27607   8.044   6.842  13.356 -0.2791  0.0523 -0.0217
12139W        W27608   1.731   7.833  11.475  0.3242  0.0337 -0.0680
12140W        W27609  12.391   4.625  11.007  0.0744 -0.3105  0.1241
12141W        W27610   5.131  17.975  12.943  0.0042 -0.2136  0.1021
12142W        W27611   7.505  13.458  10.018  0.1242  0.1151 -0.1705
12143W        W27612   3.697   6.956   0.023 -0.1691  0.3259 -0.3032
12144W        W27613  10.387  12.096  13.417 -0.0225  0.1775 -0.2136
12145W        W27614  12.044   4.182   2.269 -0.0280  0.2020 -0.0423
12146W        W27615   4.945   0.122   2.290  0.1597 -0.3837 -0.2732
12147W        W27616   5.517  12.161  13.594 -0.0123 -0.0602  0.0184
12148W        W27617   3.401  12.209  12.049  0.1264  0.1566  0.1227
12149W        W27618  18.010   9.039  10.525  0.3656  0.0342 -0.0117
12150W        W27619   7.665  11.121   5.176  0.0099  0.0873  0.3147
12151W        W27620   9.414  18.399   1.316 -0.2006 -0.2658 -0.1060
12152W        W27621  14.416  14.565   4.343 -0.2398 -0.1097 -0.0087
12153W        W27622  17.640   4.466   0.507 -0.2787  0.1567  0.3836
12154W        W27623  16.224  18.761   0.081 -0.2331  0.1189  0.1063
12155W        W27624   0.644  16.326   3.431 -0.2720 -0.0898  0.1617
12156W        W27625   3.031  17.541  11.481  0.0898 -0.5039 -0.2972
12157W        W27626  12.048  12.483  12.562  0.2354  0.0914 -0.2957
12158W        W27627   7.712   2.403  11.313 -0.5078  0.0588 -0.0098
12159W        W27628  12.992   5.683  12.222  0.0848 -0.1165  0.2211
12160W        W27629   6.640   8.862   9.517  0.2580  0.1382  0.1545
12161W        W27630   9.336  12.123  15.006 -0.3169  0.0181  0.0255
12162W        W27631  17.203   3.575  12.911 -0.1502  0.0178  0.1091
12163W        W27632   8.949   7.160   4.461  0.2461 -0.1714 -0.0570
12164W        W27633  12.963  18.629  14.482  0.1494 -0.4590 -0.1313
12165W        W27634  16.461   5.781  10.548  0.1460 -0.2338  0.1707
12166W        W27635   7.324  16.551   3.853  0.2569 -0.3821  0.1524
12167W        W27636   6.736   0.652  13.629 -0.1240 -0.1080  0.1887
12168W        W27637  11.234   6.105  13.596  0.1437  0.0415  0.1975
12169W        W27638  15.976   6.014  15.204 -0.1360  0.0966 -0.3875
12170W        W27639  17.957  15.714  15.527  0.0653 -0.0442  0.2286
12171W        W27640  13.136  11.391  12.197  0.0517 -0.2354 -0.0332
12172W        W27641  10.507  12.922   4.897  0.2186  0.2857  0.3974
12173W        W27642   4.131  15.352   3.879 -0.1255 -0.1380  0.1651
12174W        W27643  13.637   7.223   3.991 -0.0457  0.4399  0.2436
12175W        W27644   8.935   0.798   2.085 -0.0558  0.2562  0.2622
12176W        W27645   4.269  10.787  13.781  0.1501 -0.2304 -0.1550
12177W        W27646   7.282  12.138   2.632  0.0628  0.0577 -0.1357
12178W        W27647  14.998  15.664   1.954 -0.1635 -0.2696 -0.2629
12179W        W27648   4.269  18.124   0.959  0.1654  0.0060  0.2326
12180W        W27649   8.243  17.637  15.029 -0.2702  0.2263  0.2229
12181W        W27650  13.803  17.850   1.009 -0.3561 -0.1129  0.0475
12182W        W27651   4.667   6.470  15.004  0.0890 -0.1919  0.0504
12183W        W27652   9.667  14.655   3.190 -0.4832 -0.0191  0.0875
12184W        W27653  12.751  13.758  15.325  0.4586  0.0228 -0.1072
12185W        W27654  13.001  10.890  11.893  0.0198  0.0140 -0.1143
12186W        W27655   0.342  10.769  15.198 -0.0582  0.0597 -0.0205
12187W        W27656  11.002  11.876  14.546 -0.1527  0.1119  0.2368
12188W        W27657   8.625   6.959   0.007  0.0330 -0.0045 -0.1074
12189W        W27658  16.504   7.045   3.211  0.2769  0.1295  0.0901
12190W        W27659   1.577   7.147   1.033  0.4138  0.0941  0.3428
12191W        W27660   2.650   8.021   3.432  0.0411 -0.2270  0.2719
12192W        W27661  16.078   3.797   3.067  0.5338 -0.0123 -0.0452
12193W        W27662   3.502   2.374   3.309 -0.0011  0.0125  0.2519
12194W        W27663  14.920   5.339   2.819  0.1381 -0.0630 -0.0335
12195W        W27664   0.850  13.150   3.929 -0.0979  0.0973  0.0746
12196W        W27665   0.470   5.993   0.951 -0.3551  0.3594  0.0065
12197W        W27666   1.796  12.683   3.951 -0.1454  0.1204  0.0091
12198W        W27667  17.402   4.002  13.472  0.3365  0.1927  0.2379
12199W        W27668   9.507  10.727   0.929 -0.1152  0.1126 -0.0655
12200W        W27669   1.655   0.188  13.997 -0.0101  0.0909 -0.0742
12201W        W27670   8.859  10.106  13.626  0.1993 -0.4188 -0.0026
12202W        W27671   9.973  17.740  10.626 -0.0608  0.2228 -0.0943
12203W        W27672   1.028  18.707   4.175  0.1494 -0.3175  0.0061
12204W        W27673   6.962   7.343   1.248 -0.0299  0.2966  0.0838
12205W        W27674   5.732   0.182   2.200  0.2219  0.2659 -0.1259
12206W        W27675  14.909  16.162   0.802  0.1917 -0.0713 -0.0414
12207W        W27676   8.025  13.228  12.586  0.2703  0.1244 -0.2645
12208W        W27677   8.236  11.130   4.016 -0.2969 -0.1396 -0.0164
12209W        W27678   8.061   6.550   3.931  0.0700 -0.3503 -0.0009
12210W        W27679  14.155   5.890   4.128  0.0226 -0.1402 -0.4115
12211W        W27680   3.765  12.491  13.859 -0.4309 -0.3498 -0.0938
12212W        W27681   5.341   1.121  13.978 -0.0619  0.1790 -0.1290
12213W        W27682  16.391   9.048  11.354  0.1147 -0.0673 -0.3466
12214W        W27683  13.588  16.065   2.421  0.0987 -0.0850  0.1805
12215W        W27684   4.175  14.152   3.000  0.1517 -0.0583 -0.1204
12216W        W27685   9.659   3.202   0.912  0.0423 -0.0104 -0.0420
12217W        W27686   4.441   6.430  13.562  0.2729  0.1657 -0.0006
12218W        W27687   4.911  15.881  11.523 -0.0105 -0.1884  0.0488
12219W        W27688  16.294  17.604  11.203 -0.2337 -0.1107 -0.2343
12220W        W27689  16.328   5.054   0.673  0.1020  0.0322  0.0358
12221W        W27690   4.353   7.157   0.666  0.0617  0.2184  0.0656
12222W        W27691  16.428   5.475  14.429 -0.0462 -0.0720 -0.0252
12223W        W27692   0.934  11.189   1.559 -0.0221  0.0584 -0.3768
12224W        W27693   6.790   8.676   2.154 -0.0853 -0.0550 -0.0785
12225W        W27694   4.026   6.884  11.834 -0.0135  0.1357  0.2352
12226W        W27695  10.349   2.545   0.857  0.4451  0.4375  0.0984
12227W        W27696  14.069  11.674   0.669 -0.0882  0.2085 -0.0638
12228W        W27697  16.316  14.620   5.085 -0.1228  0.1840  0.0544
12229W        W27698   9.715  18.677  11.714  0.0022  0.1952  0.0106
12230W        W27699   4.149  11.471   5.429  0.0662  0.2578 -0.0415
12231W        W27700  12.464   0.072  14.617  0.1625 -0.0429 -0.1636
12232W        W27701  15.853   3.829  15.262 -0.1071 -0.0295 -0.1832
12233W        W27702   5.934  14.818  12.611 -0.0078  0.2259  0.1881
12234W        W27703  12.843   8.205   1.831  0.2657  0.1065 -0.1539
12235W        W27704   9.560   8.771  10.709 -0.3283 -0.1219  0.0959
12236W        W27705   7.626  11.022  12.893 -0.4317  0.2704 -0.0838
12237W        W27706  17.531  13.134   2.544 -0.2407  0.1077  0.0993
12238W        W27707  10.806   2.146   0.516  0.3502 -0.0256 -0.1107
12239W        W27708   7.460  18.386  12.167  0.2240  0.2097  0.0521
12240W        W27709   3.315  18.098   0.631  0.2757  0.2867  0.3503
12241W        W27710   2.999   5.563   1.351  0.2453 -0.2945 -0.0075
12242W        W27711  11.283   0.189  13.617 -0.0165  0.2159 -0.1553
12243W        W27712  10.268   8.843  13.216 -0.0189 -0.6581 -0.0256
12244W        W27713   9.270  16.862   3.241  0.0085 -0.4926 -0.1048
12245W        W27714   8.193  13.927   3.640  0.0821 -0.0366  0.1304
12246W        W27715  17.339  18.039  12.140  0.0437 -0.3170  0.0802
12247W        W27716  10.606  18.174  13.770 -0.2733  0.0342 -0.0147
12248W        W27717  10.728   7.428  13.428  0.2954  0.4437  0.1497
12249W        W27718   0.310  17.688   5.064 -0.0939  0.2015 -0.0665
12250W        W27719   4.382  18.178  13.832  0.1205  0.2213  0.1054
12251W        W27720  14.927   3.478   4.439  0.1266 -0.2246  0.1546
12252W        W27721   6.153   7.353  12.429 -0.0747  0.2831 -0.0653
12253W        W27722   2.946  15.968   0.685 -0.1717  0.1230 -0.3079
12254W        W27723   1.191  13.884   5.443 -0.1134 -0.2431 -0.1229
12255W        W27724  13.957  13.761  13.897  0.0314  0.1079  0.2773
12256W        W27725  11.682  13.107   1.153 -0.0598  0.2172 -0.2910
12257W        W27726   4.160   2.748  10.823  0.0681  0.2628 -0.2150
12258W        W27727   2.930  10.463   4.311  0.1623 -0.1886 -0.0914
12259W        W27728  10.038  15.991  13.365  0.0381  0.1334  0.1763
12260W        W27729   1.961   4.289   2.297 -0.4523  0.0921  0.0988
12261W        W27730   3.016   2.279  12.707  0.1169  0.0477  0.0728
12262W        W27731   2.139   0.934   3.343 -0.0166  0.2606  0.2685
12263W        W27732  15.836  18.647  14.253  0.0276  0.2848  0.1160
12264W        W27733  17.275  14.768  13.503  0.0298 -0.3879  0.2541
12265W        W27734   7.241  10.620  11.501 -0.1340 -0.0748  0.2363
12266W        W27735  12.792   2.280  10.749  0.0527 -0.1632 -0.2917
12267W        W27736   5.080   9.467   5.288  0.0346  0.3885 -0.0518
12268W        W27737  14.904  12.192  13.993 -0.3079  0.3469 -0.3294
12269W        W27738  18.409  15.433  15.240 -0.3352  0.0420  0.0502
12270W        W27739  13.579   0.275   3.432 -0.0281 -0.1409  0.0535
12271W        W27740   9.807   1.054  11.747  0.0410  0.0286  0.0536
12272W        W27741   4.922   7.881  13.953  0.5236 -0.2063 -0.3677
12273W        W27742   5.140   6.609  14.875 -0.1542 -0.2271  0.0579
12274W        W27743   1.589   3.504   4.160  0.0209  0.2575  0.0650
12275W        W27744   1.287   3.562   1.666 -0.2293  0.0436  0.1881
12276W        W27745   9.365  14.143  15.095 -0.0272  0.1468  0.0073
12277W        W27746   4.048   2.159  15.028 -0.1266 -0.1682 -0.0626
12278W        W27747   3.092  12.200  14.109  0.1834  0.1523 -0.0413
12279W        W27748  18.100   1.944   6.175 -0.1630  0.0162  0.0972
12280W        W27749  12.925   4.995   2.625  0.1001  0.1037  0.0730
12281W        W27750  17.309   3.533  11.607  0.3394 -0.4282  0.1203
12282W        W27751   9.386   3.130   9.692  0.0108 -0.1541  0.3166
12283W        W27752  16.937  10.558  11.778  0.1189 -0.0621 -0.0170
12284W        W27753  18.699   0.822   2.713 -0.0439 -0.0078 -0.0769
12285W        W27754  12.397   7.013  15.126  0.4900 -0.1434  0.0823
12286W        W27755   5.274   6.637  11.650 -0.2095 -0.1021 -0.0511
12287W        W27756  17.202  16.744   2.473  0.1475  0.1207 -0.2273
12288W        W27757  14.210  12.494   3.015  0.1077 -0.2768  0.3297
12289W        W27758   5.340   3.801   4.723  0.2511 -0.0721 -0.1878
12290W        W27759  13.386   6.561   4.516 -0.2647 -0.2480  0.1711
12291W        W27760   5.639   0.892  11.463 -0.1414 -0.2489 -0.2690
12292W        W27761   9.294   5.628  12.696 -0.1457  0.1222 -0.0984
12293W        W27762  18.050   2.909  11.697 -0.2399  0.4270 -0.0375
12294W        W27763   2.214   4.378  13.650  0.1707 -0.1167  0.2040
12295W        W27764  11.373  12.458   2.125  0.2554 -0.1714  0.0738
12296W        W27765   8.051   9.024   4.618 -0.0499  0.1469 -0.3502
12297W        W27766   9.768   7.535  13.658 -0.1972  0.0500 -0.2519
12298W        W27767  16.530   8.082  11.818  0.1207  0.0696 -0.2494
12299W        W27768  13.370  15.856  11.890  0.1690  0.2399 -0.0940
12300W        W27769   1.935   4.793   2.946  0.0477 -0.0611 -0.4764
12301W        W27770  15.181  15.225  14.284 -0.2960  0.3657  0.2476
12302W        W27771  16.536  17.668  14.895 -0.1042  0.1264 -0.1695
12303W        W27772   6.450   3.696  10.053  0.2374 -0.1861  0.0414
12304W        W27773  10.167   9.788  15.652 -0.1233 -0.2201 -0.5971
12305W        W27774  15.604  15.825   3.693 -0.0757  0.2321  0.2208
12306W        W27775  11.853   7.458   1.805 -0.1161  0.0393 -0.0143
12307W        W27776  11.970   7.526  14.264 -0.1106  0.3724 -0.0103
12308W        W27777   9.672   4.752  14.421  0.0310  0.3062  0.0993
12309W        W27778   1.156  16.881  15.244  0.0289  0.1261  0.1005
12310W        W27779   0.653  15.128  13.476  0.0536 -0.0210  0.2566
12311W        W27780  12.484   4.684   4.980  0.4256  0.0025  0.0157
12312W        W27781   0.951   0.812  15.559 -0.0535 -0.0224 -0.1019
12313W        W27782   4.651  14.039  14.992 -0.2090 -0.1014 -0.0371
12314W        W27783   0.652  13.107  14.157 -0.0893 -0.0797 -0.0539
12315W        W27784  18.343   8.886  10.876 -0.2634 -0.1998 -0.2608
12316W        W27785   5.430   0.611  15.583  0.0274 -0.0142 -0.0702
12317W        W27786   8.907   9.418  11.466 -0.5706 -0.2456 -0.2617
12318W        W27787   1.495  17.097   4.309 -0.1707  0.2031 -0.1553
12319W        W27788   2.914   9.441   0.662  0.2621  0.0000  0.3466
12320W        W27789  13.003   6.351   1.681 -0.0343 -0.1353 -0.0464
12321W        W27790  10.510   7.069   9.859 -0.0584  0.0384  0.1342
12322W        W27791   0.388  13.053   3.527 -0.1036  0.0945  0.1660
12323W        W27792  18.329  15.123   0.275  0.0193 -0.5992 -0.0024
12324W        W27793   0.247   1.221   4.733 -0.3555 -0.0535 -0.3957
12325W        W27794  16.145  17.103   3.716  0.1073 -0.1393  0.0237
12326W        W27795  17.062   2.581   1.551  0.0645  0.4225 -0.2207
12327W        W27796  10.059   6.374   0.073  0.0110  0.1160  0.1148
12328W        W27797  13.912   6.752   3.744  0.0249  0.0864 -0.0031
12329W        W27798  15.448   9.639  11.039  0.1750  0.1630  0.0780
12330W        W27799   5.960  10.037  15.543 -0.0577 -0.2780 -0.0028
12331W        W27800   4.824   6.437   1.931 -0.2169 -0.0442 -0.1021
12332W        W27801   6.943  13.212   2.718  0.2507  0.3818 -0.0171
12333W        W27802   8.521  17.269  14.731 -0.4163 -0.2403 -0.3187
12334W        W27803   9.128   2.103  13.496  0.1651 -0.0934  0.1439
12335W        W27804   5.498   5.333   4.284 -0.0940  0.0821 -0.2823
12336W        W27805   8.859  12.286  11.575 -0.0699 -0.2255  0.0719
12337W        W27806  18.556   7.265   0.591 -0.0222  0.0885  0.0635
12338W        W27807   3.380  13.770  11.122 -0.0424  0.0821  0.1173
12339W        W27808  14.119   6.392   5.427  0.3854 -0.2307 -0.1816
12340W        W27809   0.522   0.875   0.530  0.0889 -0.1251  0.3830
12341W        W27810  17.892   4.567   4.141  0.0207 -0.0410  0.0971
12342W        W27811   3.236  18.511  13.971  0.1321  0.0648 -0.0742
12343W        W27812  11.134   5.859   3.165 -0.0006  0.2421  0.0831
12344W        W27813   7.178   1.253   3.663 -0.2101  0.1919 -0.2127
12345W        W27814   8.243  10.701   3.249 -0.2914  0.0029  0.0500
12346W        W27815  10.567   3.573   4.700 -0.1543 -0.2293 -0.0318
12347W        W27816  14.119   8.341  14.830  0.2465  0.1173  0.0986
12348W        W27817   5.855  15.556   4.080  0.3226 -0.3312  0.1814
12349W        W27818  17.173  15.067   5.269  0.2361 -0.2065 -0.0739
12350W        W27819  17.179  10.702  13.039  0.0287  0.1547 -0.1368
12351W        W27820   3.045   6.917   1.010 -0.1750 -0.0940  0.0892
12352W        W27821   0.764   3.536   1.859  0.2184 -0.0333  0.3632
12353W        W27822   9.126  14.140  13.182  0.1053 -0.1285  0.0362
12354W        W27823   4.825   9.415   0.404 -0.0714  0.1028  0.1255
12355W        W27824  16.831   0.161   3.230  0.1723  0.0238 -0.0639
12356W        W27825   6.348  16.976  14.798 -0.3372  0.0098  0.4610
12357W        W27826   5.854   9.420  13.810 -0.0474  0.0556 -0.1064
12358W        W27827   2.813  11.859   0.281 -0.0278  0.0519 -0.0435
12359W        W27828  17.960  17.779  12.782 -0.3644  0.2821 -0.0648
12360W        W27829  12.989  14.844   1.171 -0.0733 -0.1446  0.1268
12361W        W27830  12.551  15.217  15.262  0.0965  0.3143  0.0014
12362W        W27831   7.150  10.080  10.724  0.2700 -0.1599 -0.1018
12363W        W27832   5.661  14.055   0.810  0.2716 -0.1730 -0.0168
12364W        W27833  13.272   1.570   2.876 -0.1025 -0.2221 -0.2761
12365W        W27834  13.033  12.935  11.292 -0.2179 -0.1445 -0.0493
12366W        W27835   5.377   0.102  10.942 -0.1495 -0.0239  0.0480
12367W        W27836   1.801   8.575   1.084 -0.0295 -0.0064 -0.0424
12368W        W27837   3.592  17.940   2.480  0.1268 -0.1280 -0.1949
12369W        W27838   5.899  12.658   3.902  0.0987 -0.0375  0.1454
12370W        W27839   0.571   2.032   5.176 -0.4111 -0.2506 -0.1513
12371W        W27840   9.527   0.709   2.652  0.2542 -0.0630 -0.2333
12372W        W27841   4.758   2.849  11.734 -0.2630 -0.2425  0.1461
12373W        W27842  17.162   5.114   4.052  0.0842  0.2507 -0.3137
12374W        W27843  15.286  14.323   1.096 -0.0388 -0.0822 -0.2860
12375W        W27844  16.657  11.217   4.736 -0.1207 -0.3087 -0.0567
12376W        W27845   9.018   0.070  11.643 -0.2838 -0.0252 -0.2348
12377W        W27846  16.444   2.292   1.244 -0.0556  0.0665  0.1393
12378W        W27847  16.195   3.861   2.150 -0.1746 -0.1177  0.1857
12379W        W27848  18.331   5.037   1.687  0.1238  0.0386 -0.0688
12380W        W27849  16.088   6.764   2.600 -0.4502 -0.0182 -0.0037
12381W        W27850  18.143   8.030  14.802  0.0557 -0.2365  0.1967
12382W        W27851   1.463   7.792   1.521  0.3276 -0.1174 -0.1250
12383W        W27852   9.511  14.379   1.576 -0.2168 -0.0586  0.2196
12384W        W27853  10.829   2.463   6.015  0.0255  0.0833  0.1921
12385W        W27854   0.325   9.705   2.430 -0.2741  0.1970 -0.1199
12386W        W27855  14.172  14.377  12.862 -0.0699  0.1140 -0.0543
12387W        W27856   2.933   1.833   0.979 -0.0056  0.1228 -0.1223
12388W        W27857   6.245  11.402  10.702 -0.1625 -0.1032  0.1760
12389W        W27858   4.240   9.459   5.374  0.2191  0.1855 -0.1166
12390W        W27859   1.686  17.993  11.757  0.1634 -0.0203 -0.0557
12391W        W27860  10.116  16.452   2.897 -0.0855 -0.0750  0.0849
12392W        W27861  11.703  10.822  13.786  0.0907 -0.2102 -0.1036
12393W        W27862   9.378  16.900  13.784  0.1761 -0.3237 -0.3110
12394W        W27863   4.881   7.250   1.412  0.0686  0.2683  0.0121
12395W        W27864  11.135  14.180   0.111 -0.1176 -0.5527 -0.0398
12396W        W27865  10.154  16.272  10.918 -0.2408  0.0130 -0.1755
12397W        W27866   7.778  14.969   4.456  0.2018 -0.0378 -0.1517
12398W        W27867   7.855  18.590  14.014 -0.2009 -0.3837  0.0622
12399W        W27868  16.400   6.286  13.904 -0.4433  0.3511 -0.2139
12400W        W27869  15.294   5.697  11.432 -0.4507  0.2464  0.1312
12401W        W27870   5.177   2.827  13.373 -0.1934 -0.1250  0.0471
12402W        W27871   3.342   2.194   1.164 -0.3149  0.2746 -0.0616
12403W        W27872   7.388  14.774   1.858 -0.1302 -0.1901  0.4638
12404W        W27873   3.725  16.245  15.416 -0.0386  0.0453 -0.1612
12405W        W27874  13.360  17.476   6.176  0.2056  0.2787  0.2106
12406W        W27875   1.476  11.300   1.381  0.1210  0.3046 -0.2850
12407W        W27876   9.852  10.673   2.149  0.0004 -0.0044  0.0242
12408W        W27877  13.507   0.347   5.821  0.0018 -0.3766  0.0531
12409W        W27878   9.459   9.121  10.281 -0.1799  0.2480  0.2186
12410W        W27879   3.805   5.911   0.682 -0.0098  0.1083  0.0919
12411W        W27880  17.790  17.176  13.530  0.3510 -0.0098  0.0263
12412W        W27881  12.863  13.695   1.851 -0.1506  0.1966  0.0743
12413W        W27882  11.867  11.651   5.247 -0.3423 -0.2257  0.0326
12414W        W27883  17.650  10.821   1.012 -0.2722  0.2427  0.1337
12415W        W27884  10.356  11.086   5.733  0.2225 -0.1055  0.1897
12416W        W27885  17.183   2.902  13.340 -0.1830 -0.0019  0.3041
12417W        W27886  12.968   2.229  15.385 -0.0148 -0.2152  0.0052
12418W        W27887   5.470   3.074   4.022 -0.4088 -0.2403 -0.2822
12419W        W27888   8.672   4.743   2.665 -0.5802 -0.0761  0.1968
12420W        W27889  14.868  12.945  11.728 -0.2714 -0.0456 -0.0235
12421W        W27890   0.672  12.511   3.755  0.1570 -0.2932 -0.2494
12422W        W27891   5.640   5.741   1.933  0.1145 -0.0248 -0.1019
12423W        W27892   1.253   5.231  11.896  0.1615 -0.1865 -0.1255
12424W        W27893   4.604   1.276  15.080  0.1797 -0.1442  0.1219
12425W        W27894   9.531   6.454  13.187 -0.1728 -0.2114  0.1094
12426W        W27895   0.185  13.715   2.270  0.1877 -0.1607 -0.0780
12427W        W27896   7.114  18.106   4.119  0.0161 -0.0100  0.1822
12428W        W27897  18.593  13.240  15.330 -0.3735 -0.2495 -0.0498
12429W        W27898  10.362  18.097  12.157  0.1785  0.0163  0.0569
12430W        W27899  16.271  13.476  11.981 -0.0408  0.0366  0.0892
12431W        W27900   3.466   6.978  11.754  0.0002 -0.0988  0.2016
12432W        W27901  14.998   3.709   0.229 -0.0454  0.1596  0.0271
12433W        W27902   1.521  18.628  12.659 -0.3356 -0.1456  0.2035
12434W        W27903  11.243   7.156  12.881 -0.3293 -0.1790  0.0394
12435W        W27904  16.072   8.680  11.148 -0.0783 -0.0490  0.1144
12436W        W27905   6.177   6.389  15.021  0.0099  0.0969  0.1159
12437W        W27906   8.476  14.948  11.718 -0.2002  0.2300  0.1667
12438W        W27907   8.838  12.614  13.710 -0.0171 -0.2954 -0.5043
12439W        W27908  13.725  16.605  13.972  0.0045 -0.0477  0.0726
12440W        W27909   8.486   6.507  10.866 -0.1612  0.1450 -0.4167
12441W        W27910   0.702   5.302  10.368  0.1228  0.2960  0.0127
12442W        W27911  12.875   5.841  14.477 -0.2900  0.2433 -0.1270
12443W        W27912   4.724  16.192  14.018  0.2197  0.1396  0.1607
12444W        W27913   2.284   7.623  13.055 -0.2560  0.4123 -0.1386
12445W        W27914   3.895  15.256   5.294 -0.3981 -0.0812 -0.0809
12446W        W27915   0.252  10.081   4.816  0.0888 -0.0645 -0.1781
12447W        W27916   9.863   7.020  13.493  0.1477 -0.3124  0.2370
12448W        W27917  10.235  10.308   0.306  0.2211 -0.2468  0.0727
12449W        W27918   9.015  18.016  11.942  0.0354 -0.0716  0.3008
12450W        W27919  18.295  16.277  11.890  0.0666 -0.1906 -0.0221
12451W        W27920  11.857   1.683  14.117 -0.1306  0.1180  0.2574
12452W        W27921   6.635  13.562  13.156  0.3705  0.3465 -0.0488
12453W        W27922  10.895   3.337  12.164  0.1378 -0.0434  0.2353
12454W        W27923  15.765   6.978   5.028 -0.2493 -0.1015  0.1460
12455W        W27924  16.588   2.520  14.992 -0.0340 -0.1325  0.3467
12456W        W27925  13.811  17.273   1.948  0.3242 -0.1115 -0.2240
12457W        W27926   9.786   1.377   0.218  0.0023 -0.0417 -0.3317
12458W        W27927  10.842  12.540   0.888 -0.2048 -0.1670  0.1938
12459W        W27928  15.320  13.006  13.976  0.1973 -0.0662 -0.1212
12460W        W27929  13.932  16.132   3.278 -0.0401  0.1072 -0.0971
12461W        W27930   7.713   2.468  12.270  0.1262  0.3811 -0.3692
12462W        W27931  12.143   7.702  11.592 -0.1368  0.0778  0.2341
12463W        W27932   2.349  17.856  13.634 -0.0608  0.0529 -0.0224
12464W        W27933  16.519  16.919   1.537  0.0144 -0.0524 -0.2007
12465W        W27934   5.366  16.769  10.628 -0.1660 -0.0942  0.0543
12466W        W27935   3.402   2.844   2.493 -0.0616 -0.1007 -0.1126
12467W        W27936  17.381   7.062   4.543  0.0042 -0.2830 -0.2585
12468W        W27937  18.493   2.900   0.894 -0.2025  0.0624  0.0449
12469W        W27938   1.427   9.096  15.110  0.2570  0.0380  0.0748
12470W        W27939   4.094   4.248  15.437 -0.0214 -0.2775 -0.0665
12471W        W27940  13.574   4.784   0.932 -0.1352 -0.2979  0.2185
12472W        W27941   5.585  13.791   4.032  0.3688  0.0784 -0.1602
12473W        W27942   7.342   9.638  11.678  0.1213 -0.1494 -0.2017
12474W        W27943   4.806   9.133  13.139 -0.3634 -0.1567  0.0208
12475W        W27944   8.854  11.922  12.652 -0.2432  0.2029  0.0253
12476W        W27945   3.078  17.199  14.002  0.3243  0.0685 -0.0125
12477W        W27946  14.932   3.127  11.819  0.0932 -0.0744  0.4115
12478W        W27947   0.819  14.540   1.939 -0.0039 -0.1856  0.1693
12479W        W27948  10.987  12.993  15.321  0.0339  0.2573 -0.3392
12480W        W27949  15.509  15.890  13.824  0.0636  0.0992 -0.1174
12481W        W27950  11.383  12.729   0.003  0.3089 -0.1998 -0.0147
12482W        W27951  16.106  16.847  14.676 -0.4312 -0.4914  0.3051
12483W        W27952  18.497   1.257   5.184 -0.1689  0.3070 -0.0353
12484W        W27953  13.838   0.626  13.562 -0.2106 -0.4174 -0.3343
12485W        W27954  17.123  11.716  11.074 -0.1386 -0.5612  0.0811
12486W        W27955  11.604   6.683  15.275 -0.2144 -0.2639  0.1542
12487W        W27956   3.916   5.184   4.132 -0.2824 -0.3667  0.0859
12488W        W27957  12.651  18.108  15.589 -0.2648 -0.1454 -0.1307
12489W        W27958  12.470  16.156  15.251 -0.3647 -0.4353 -0.1559
12490W        W27959  11.647  12.679  15.183  0.2278  0.0764  0.2996
12491W        W27960   3.520   3.109  11.500  0.0715  0.2443 -0.0971
12492W        W27961   5.662   4.852   3.156  0.0596  0.1206  0.1517
12493W        W27962   9.381  17.803  10.913  0.2259 -0.3828  0.0765
12494W        W27963   0.677   6.752   9.758 -0.1434 -0.1528 -0.0832
12495W        W27964   7.280   6.774  12.862 -0.3778 -0.0626 -0.0805
12496W        W27965  12.266   9.641   5.457 -0.0949 -0.0407  0.1335
12497W        W27966   6.037   9.768   2.606  0.2045  0.1525  0.1911
12498W        W27967  15.791  15.045  14.955 -0.0015 -0.0083  0.3483
12499W        W27968   1.239   6.834  11.380  0.0704 -0.1035 -0.1618
12500W        W27969   2.093   8.606   3.208 -0.1260  0.0910 -0.0208
12501W        W27970   6.112   0.485   3.462 -0.2184 -0.1220  0.2902
12502W        W27971  14.064   3.942   3.302  0.3041 -0.2084 -0.2160
12503W        W27972  10.420   8.758  14.819  0.1443 -0.0257 -0.1271
12504W        W27973  13.155  17.686   0.212 -0.1539 -0.2530  0.0632
12505W        W27974   8.071   3.027  13.522 -0.2718 -0.0731  0.1040
12506W        W27975  11.903  10.511   0.828 -0.0544 -0.1012 -0.0033
12507W        W27976  10.563  12.023  11.388 -0.0212  0.0876 -0.0585
12508W        W27977  12.166  14.169   1.205  0.1092 -0.0925  0.1448
12509W        W27978   2.880   4.447   5.287  0.0540  0.0626  0.0963
12510W        W27979   7.240  10.838   3.266  0.1703 -0.0763  0.0499
12511W        W27980  10.471   9.222  12.111 -0.0441  0.0734 -0.1551
12512W        W27981   7.601   8.771  13.950  0.1470  0.2634  0.0151
12513W        W27982  14.670   7.430   0.577 -0.0228  0.0354 -0.0652
12514W        W27983   3.116  13.964   1.069 -0.1101 -0.1405  0.0639
12515W        W27984   2.509  14.096  14.660  0.0823 -0.0902  0.3551
12516W        W27985   2.170   1.721  14.575  0.3491  0.0943 -0.0621
12517W        W27986  10.715   9.751   3.131 -0.1072  0.2394 -0.1700
12518W        W27987   2.270   8.076  14.576  0.0290 -0.0915 -0.0657
12519W        W27988  13.840  14.527   4.935  0.0051 -0.1008  0.1034
12520W        W27989   8.274  12.914  12.182  0.2530  0.0461  0.0461
12521W        W27990  11.749   6.157   1.791  0.0553 -0.1064  0.0775
12522W        W27991  16.255  18.331  11.165  0.2315  0.2486  0.0154
12523W        W27992   1.200  13.355  12.902 -0.2937 -0.0710  0.1549
12524W        W27993   2.522  12.101  14.997 -0.0748 -0.0839  0.2246
12525W        W27994   2.303   5.440   3.485 -0.2430 -0.0283  0.2552
12526W        W27995   0.772   4.412  10.776  0.2449 -0.3667 -0.1169
12527W        W27996   3.652   0.756  13.444  0.1101 -0.1481  0.0930
12528W        W27997  18.715   9.207   9.370  0.0576 -0.1467  0.1611
12529W        W27998   9.654   8.254  13.277 -0.0142 -0.0564 -0.5507
12530W        W27999  15.806  12.919   5.348  0.0546  0.0928 -0.0315
12531W        W28000   4.550  16.836  11.981 -0.0271  0.1969  0.4716
12532W        W28001   4.236  11.473   0.374 -0.1504  0.0902 -0.2234
12533W        W28002   7.192   2.460   3.633 -0.3051 -0.1704  0.3065
12534W        W28003  17.801  12.730   3.368 -0.0261 -0.0130 -0.0288
12535W        W28004  11.662   3.934   1.934  0.0257  0.3968  0.0174
12536W        W28005  10.564   3.531   2.501 -0.0681 -0.1230  0.3511
12537W        W28006   8.810  17.533  15.148  0.1768  0.1402  0.0285
12538W        W28007  10.989   6.022  11.926 -0.0651 -0.1347  0.4164
12539W        W28008  16.186   3.392   4.548 -0.2155  0.1469 -0.0032
12540W        W28009  16.488  17.044  10.955 -0.1065 -0.0332 -0.1220
12541W        W28010  12.655   0.625  12.931  0.1400 -0.1857 -0.4095
12542W        W28011   5.416  14.114  13.306  0.2225 -0.2906  0.2349
12543W        W28012  14.908  11.800  10.495  0.2369 -0.2085  0.0546
12544W        W28013  15.935   6.087  11.167 -0.4272 -0.2656  0.6521
12545W        W28014  16.234   0.858  12.906  0.2220 -0.0863  0.1226
12546W        W28015   8.395   8.696   2.409 -0.1024  0.2108 -0.2863
12547W        W28016   0.923   5.268   0.597  0.3348 -0.0564  0.6320
12548W        W28017   1.108   3.191   2.867 -0.1025 -0.2093  0.1011
12549W        W28018  12.644   9.917  15.523  0.3000 -0.0073  0.0411
12550W        W28019   8.221   4.653  14.553  0.1778 -0.1239  0.0213
12551W        W28020   4.381   4.034   5.040  0.3130  0.0861  0.0568
12552W        W28021   7.666  13.518   2.200  0.2050 -0.3424 -0.1486
12553W        W28022   1.325   8.922   5.383  0.2235  0.1905  0.2057
12554W        W28023  15.991  12.459  11.753 -0.1240 -0.0629 -0.1728
12555W        W28024   0.873   6.634  10.968  0.1572 -0.0068 -0.2021
12556W        W28025   3.986  10.767  12.950 -0.1259  0.5428  0.1614
12557W        W28026   6.908  18.119   3.224 -0.2532  0.0424  0.1195
12558W        W28027  11.339  12.988  12.102 -0.1655  0.0917  0.0626
12559W        W28028   0.997  15.306   2.440  0.0220 -0.2593 -0.2256
12560W        W28029   8.101  13.419  11.307  0.0066  0.0156  0.0523
12561W        W28030   1.210  18.608  14.957 -0.2237 -0.1515  0.0447
12562W        W28031   9.351   1.177  14.972 -0.0001  0.0416 -0.0256
12563W        W28032  15.507  12.550   5.512  0.2162 -0.1487 -0.2250
12564W        W28033  18.594   8.199   0.549  0.1937  0.0649 -0.2976
12565W        W28034  10.209   2.637   2.121  0.0700  0.2982 -0.0722
12566W        W28035  10.848  11.957   2.206 -0.2918 -0.1107 -0.2121
12567W        W28036  16.848   5.742  14.405  0.0177  0.2875  0.1615
12568W        W28037  15.614  13.723   4.172  0.3708  0.2171  0.3943
12569W        W28038   4.997   3.283   0.015  0.0585 -0.4586 -0.0785
12570W        W28039  12.915  15.148  12.588 -0.1647 -0.0014  0.1056
12571W        W28040   0.853   8.007   3.070  0.2194  0.0253 -0.1107
12572W        W28041   9.597  18.189   2.813 -0.3190 -0.2962  0.1907
12573W        W28042  11.497  14.615   2.311 -0.4418  0.1592 -0.2053
12574W        W28043   9.952   2.054  13.689  0.0256 -0.0256  0.3895
12575W        W28044   3.417   3.651  12.945  0.1210 -0.1831  0.0132
12576W        W28045   8.453  11.246   1.012  0.1863 -0.1063  0.2312
12577W        W28046   9.915  13.635  14.419  0.2306 -0.0172  0.2016
12578W        W28047  15.715   0.847  13.001 -0.0184  0.0435  0.1156
12579W        W28048   7.168  11.401  13.714  0.0024  0.0289 -0.1126
12580W        W28049   1.035  17.370  13.768  0.0784  0.0561 -0.1507
12581W        W28050  12.400  10.307  14.740  0.0052  0.4297 -0.2160
12582W        W28051  10.148  11.831  12.207 -0.4926 -0.2649  0.0121
12583W        W28052  17.313  10.797  14.862 -0.0696  0.1112 -0.2346
12584W        W28053   8.843   6.891  14.587 -0.1147 -0.1185  0.1192
12585W        W28054  13.939  10.503  15.629  0.0245 -0.1859 -0.2888
12586W        W28055  15.856   3.569  13.208  0.1204 -0.4885  0.2679
12587W        W28056   4.271   7.060  12.274 -0.1741  0.3500 -0.1110
12588W        W28057   2.935  12.312   3.773  0.2356  0.0230 -0.3866
12589W        W28058   0.337   4.829  13.459 -0.0530  0.0022  0.0731
12590W        W28059   8.601   3.399  12.954  0.0051 -0.0706 -0.2656
12591W        W28060  18.398   4.780  13.213  0.0268 -0.1357  0.6514
12592W        W28061   4.795   2.931  15.435  0.0122 -0.3643  0.1525
12593W        W28062   3.547  12.470  14.380  0.3035 -0.0022 -0.1096
12594W        W28063   1.303   3.020  10.602 -0.0018 -0.1564 -0.0936
12595W        W28064  17.468  11.096  15.325  0.1204 -0.1076 -0.0621
12596W        W28065   7.935  16.126  11.368  0.2160  0.4235 -0.1002
12597W        W28066   5.992   5.726   0.597 -0.3204 -0.0828  0.1127
12598W        W28067   3.648  15.792  13.637 -0.1196 -0.0623 -0.0785
12599W        W28068  15.999   2.368   4.781 -0.2022  0.1062 -0.0644
12600W        W28069  11.815   9.536  14.487  0.0113 -0.2106 -0.0947
12601W        W28070  11.879  15.886  13.155  0.0975 -0.2800 -0.1749
12602W        W28071   7.121  16.274  15.380 -0.2074 -0.1232  0.1637
12603W        W28072   7.248   3.254  12.112  0.1188  0.2387 -0.0997
12604W        W28073   5.981   5.656   2.603 -0.0769 -0.2109 -0.1851
12605W        W28074  14.490  15.406   1.800  0.1724 -0.1927  0.1759
12606W        W28075   6.328   2.004   3.762  0.1659  0.0418  0.0390
12607W        W28076  14.503   9.101  11.778  0.3987  0.1050  0.2795
12608W        W28077  12.000  15.402   1.856  0.0272 -0.0925  0.1920
12609W        W28078   6.939  13.172  12.890  0.1797  0.1051  0.2545
12610W        W28079  18.319  10.532   2.910 -0.0782 -0.1850  0.2624
12611W        W28080   1.630  16.753  11.884  0.0602 -0.3276  0.0397
12612W        W28081  16.767   8.924   2.016  0.1378  0.2473  0.0823
12613W        W28082  11.461  14.830   4.996  0.1013  0.3180  0.0650
12614W        W28083   1.744  15.234  11.731  0.1258 -0.0840 -0.0006
12615W        W28084  10.609   6.527  14.970  0.1987  0.1240 -0.1732
12616W        W28085   5.476  10.598  13.709 -0.1051  0.0647  0.0423
12617W        W28086   2.121  17.921   5.145 -0.2209 -0.1682 -0.0543
12618W        W28087   2.524   3.369  15.525 -0.1858 -0.1176  0.1572
12619W        W28088  18.687  10.703   2.470  0.0379  0.0273 -0.4219
12620W        W28089   9.869   4.892   1.522 -0.1085  0.2674  0.0926
12621W        W28090   9.276   3.894  12.274  0.0960  0.1645 -0.1325
12622W        W28091  16.735   0.249   4.296  0.1089 -0.0018 -0.2361
12623W        W28092   9.001   0.044  13.890 -0.1393 -0.1990 -0.0881
12624W        W28093  10.074  17.176  11.920 -0.3361 -0.0421  0.1058
12625W        W28094   2.967   0.540   0.715  0.0279 -0.2190  0.3450
12626W        W28095  18.153   7.710  10.333  0.0394  0.0004  0.3462
12627W        W28096  10.080   3.482  15.341  0.0777  0.0405 -0.2108
12628W        W28097  14.207   3.685   5.276  0.0465 -0.1330 -0.1037
12629W        W28098   3.890  15.067   1.986 -0.0955  0.2009 -0.1434
12630W        W28099  17.621   0.898   0.158 -0.2146  0.3252  0.0036
12631W        W28100   6.130  16.518  11.497 -0.1992  0.0453  0.0491
12632W        W28101   0.766  12.644  11.435 -0.1298 -0.0614 -0.3321
12633W        W28102  17.466   6.855   1.999  0.1074 -0.2273 -0.3477
12634W        W28103   4.075  12.593   3.925 -0.0476 -0.0962 -0.0636
12635W        W28104   4.222   0.643  11.505  0.1344 -0.0334  0.1708
12636W        W28105  17.520  16.049   0.022  0.2463 -0.1520  0.0194
12637W        W28106  15.139   2.324   2.765 -0.1995 -0.0807  0.0105
12638W        W28107   8.125   0.774  13.795  0.0292 -0.2205 -0.1070
12639W        W28108   2.908   9.836   5.726  0.0550 -0.2301  0.2650
12640W        W28109  15.115  11.662  14.695  0.0800  0.1985  0.0476
12641W        W28110  18.247   4.002  14.366  0.1787  0.0337  0.0945
12642W        W28111  13.947   7.448  10.615 -0.1333 -0.0029 -0.0995
12643W        W28112  13.846  13.751   5.988 -0.0539 -0.1018  0.2249
12644W        W28113   7.665  12.034  13.200 -0.0548 -0.1037 -0.1310
12645W        W28114   3.557  10.367  11.633  0.1412 -0.2229 -0.1112
12646W        W28115  13.563   2.472   3.479 -0.0695 -0.1716 -0.0432
12647W        W28116   6.452  11.128   4.446 -0.1630  0.0140 -0.1594
12648W        W28117  10.665  11.601  12.163  0.1156 -0.3053 -0.0582
12649W        W28118  10.319  10.301   3.375 -0.1183 -0.1547 -0.0803
12650W        W28119  16.201   4.124   9.759 -0.0449  0.0217 -0.4041
12651W        W28120  15.101   3.468   2.140  0.3298 -0.1773 -0.2694
12652W        W28121  12.756  18.508  12.258  0.1630 -0.1957  0.2394
12653W        W28122  12.687   2.687   4.103  0.0310 -0.0582  0.2840
12654W        W28123   1.357  15.372   3.348  0.0771 -0.0718  0.1631
12655W        W28124   3.217  16.985   4.023 -0.0736  0.0147  0.0862
12656W        W28125   1.276   3.930  13.673 -0.4723 -0.1795 -0.0228
12657W        W28126   4.972   6.216   2.458 -0.1123  0.1043 -0.2220
12658W        W28127   7.173  10.967   2.220  0.1880  0.4660  0.2580
12659W        W28128   7.815  12.506   2.115  0.0852  0.1537  0.1553
12660W        W28129   9.171   2.823   4.463 -0.2955 -0.2549 -0.0823
12661W        W28130   1.494   1.599   2.541 -0.3988 -0.0240  0.0215
12662W        W28131   2.594   1.429   0.270  0.0088  0.0422 -0.1021
12663W        W28132  10.515   5.389   3.217  0.2458 -0.0026 -0.0668
12664W        W28133   1.203   6.350   1.520  0.5193 -0.1842  0.0963
12665W        W28134  14.073  10.204  13.174  0.1835  0.0155 -0.3129
12666W        W28135  17.481   6.905   4.031  0.0701  0.1010 -0.0616
12667W        W28136  14.244   8.774   1.815  0.0970  0.0218 -0.0199
12668W        W28137   4.246  15.773   2.807  0.0458 -0.0688  0.0295
12669W        W28138   7.684   5.533   3.315  0.1563 -0.0900  0.1904
12670W        W28139  10.079  11.308   3.904 -0.1893 -0.0938  0.1663
12671W        W28140  17.400   0.687   5.467 -0.0409  0.0643  0.1230
12672W        W28141  11.032   8.375   0.319  0.2304 -0.1259  0.5014
12673W        W28142  15.506   8.909  11.136  0.1466 -0.0534 -0.3137
12674W        W28143  17.754   2.165  13.112  0.1727  0.0432  0.1372
12675W        W28144   6.585   4.105  13.947 -0.4342  0.0493 -0.1435
12676W        W28145   5.621   6.470   2.073  0.1425 -0.3498 -0.0263
12677W        W28146   6.538  15.661   0.901  0.0161 -0.1134 -0.0074
12678W        W28147   5.398   9.909  13.186  0.2214  0.1275  0.0737
12679W        W28148   7.979   8.161  13.908 -0.1797  0.1694  0.0156
12680W        W28149  11.894  16.554   5.388  0.0519  0.2090 -0.0279
12681W        W28150   7.318   9.008  11.075 -0.2043 -0.2493  0.0031
12682W        W28151  13.430   2.878   0.611 -0.0098  0.1504 -0.2962
12683W        W28152  13.998   4.283  11.290  0.1256 -0.0076 -0.0507
12684W        W28153   5.621  13.260   0.778  0.0829 -0.0704  0.0844
12685W        W28154   9.415   7.104  10.517  0.0850  0.2532 -0.3626
12686W        W28155   9.759   7.955   4.631 -0.1393 -0.1668  0.0328
12687W        W28156  15.584  18.611  12.510 -0.2941 -0.2923 -0.2389
12688W        W28157   3.753   7.304  14.316  0.1529 -0.0218 -0.0504
12689W        W28158  14.015   1.448  11.271 -0.0742 -0.1405  0.0719
12690W        W28159  10.207  12.279   4.032 -0.2137  0.2488  0.0882
12691W        W28160  16.637  16.469   2.748  0.2170  0.1160 -0.1043
12692W        W28161  18.488   5.533  12.249 -0.0593  0.2614 -0.0074
12693W        W28162   8.088   3.999   2.914  0.2083  0.2354 -0.0042
12694W        W28163  10.485   0.198  15.015  0.2150 -0.1404 -0.0116
12695W        W28164   1.247  18.680   3.746  0.3676 -0.0884 -0.1310
12696W        W28165  17.471  14.432  11.886  0.0223 -0.0319  0.0563
12697W        W28166  16.187   1.560  11.494 -0.3917 -0.0825 -0.0022
12698W        W28167  14.099   5.295  13.234 -0.4345 -0.1010  0.0490
12699W        W28168   5.276   8.691   2.389  0.1499  0.0890  0.0080
12700W        W28169   8.188  11.333   5.416  0.0683 -0.3484 -0.0751
12701W        W28170   8.951   9.559  12.509  0.2231 -0.4214  0.2641
12702W        W28171   2.418   3.213   0.432 -0.1103 -0.0498 -0.2011
12703W        W28172   4.653  11.367   3.592  0.2541  0.1943  0.1175
12704W        W28173  17.187   5.534  13.991  0.1000  0.2027 -0.0332
12705W        W28174   6.293   7.175   0.800  0.1575 -0.3033 -0.1686
12706W        W28175   6.792   1.859  12.048 -0.2316  0.0579 -0.1279
12707W        W28176   5.131   1.659  11.079 -0.1541 -0.0315 -0.0231
12708W        W28177  17.496  12.312   1.365  0.2240  0.1565  0.0234
12709W        W28178   8.039  17.046  15.609 -0.0673  0.3525 -0.0385
12710W        W28179   3.455   9.934  12.500 -0.0796  0.0302  0.2567
12711W        W28180   6.849  10.443   2.092  0.1079 -0.1015  0.1056
12712W        W28181  15.841   3.020  12.228  0.1599 -0.2695  0.0743
12713W        W28182  17.187   0.838  15.385 -0.2570  0.0094 -0.2591
12714W        W28183   6.620  17.332  11.745  0.3044  0.1458  0.0718
12715W        W28184  10.934  13.546  11.733 -0.0460  0.0212 -0.2161
12716W        W28185   4.063  10.615  15.513  0.0555 -0.3545  0.0687
12717W        W28186  12.535   1.853   4.993 -0.0112  0.2650 -0.2942
12718W        W28187   3.745   2.877   4.205  0.2706  0.2015  0.0174
12719W        W28188   2.411  17.893  10.035  0.0459  0.0343 -0.0375
12720W        W28189  12.765  15.253   2.592  0.2674 -0.1299  0.0707
12721W        W28190  12.628  10.261   9.898 -0.1262 -0.2593  0.0349
12722W        W28191   5.456   8.645  13.817 -0.1121  0.2174 -0.0693
12723W        W28192   2.943   9.001  13.717 -0.0289 -0.0314  0.0859
12724W        W28193  12.095   4.915  13.594  0.0774 -0.2470  0.2475
12725W        W28194  16.103  10.353   4.726  0.0535 -0.1725  0.0053
12726W        W28195   2.282   2.210  13.431 -0.0146  0.1835 -0.0815
12727W        W28196   1.878   5.048   1.743 -0.0371  0.0517  0.4625
12728W        W28197  15.687   4.632   1.444  0.0724  0.1445 -0.1030
12729W        W28198   9.507  16.299   4.133  0.1991  0.2289  0.2521
12730W        W28199   3.499  10.199   1.571  0.1376 -0.0633 -0.0576
12731W        W28200  12.503   1.024   1.966  0.0160  0.2996  0.0552
12732W        W28201   1.080  12.476  15.360 -0.2891 -0.0775 -0.2048
12733W        W28202   7.432  15.892   0.429  0.0071 -0.0279 -0.3668
12734W        W28203   9.808  10.519  15.375 -0.0133 -0.3168 -0.0358
12735W        W28204  14.457  14.315   2.162 -0.1348  0.3265 -0.0160
12736W        W28205  16.509   5.824  13.413 -0.1251  0.3476  0.2720
12737W        W28206   4.194  17.719   3.483  0.1708 -0.0604 -0.3508
12738W        W28207   4.912   7.936   2.814  0.1218 -0.0861 -0.2035
12739W        W28208  16.093   4.659   1.163 -0.2221  0.2583 -0.2069
12740W        W28209   9.667   0.695   1.918  0.2733  0.1340  0.1583
12741W        W28210   8.123  12.111   9.968 -0.3319  0.4268 -0.1467
12742W        W28211   2.530  18.659   1.056  0.0815 -0.1823 -0.0185
12743W        W28212   6.245   5.978  15.379 -0.0975  0.2259 -0.0338
12744W        W28213   6.506   5.494  12.332  0.1248  0.0415 -0.0781
12745W        W28214   6.777  18.538   4.127 -0.1078 -0.2936 -0.0494
12746W        W28215  15.284   4.636  14.220  0.1536 -0.1031  0.0557
12747W        W28216  13.845   5.279   4.492  0.0470 -0.2771 -0.0495
12748W        W28217  13.193  11.143   9.948 -0.1768 -0.1498  0.1601
12749W        W28218  18.259  17.152   1.277 -0.1513 -0.0368 -0.3582
12750W        W28219   4.176  13.696  13.546  0.4156  0.3462  0.1199
12751W        W28220  17.309   3.048  14.791  0.2740 -0.0279 -0.0771
12752W        W28221   3.304   7.798   0.485  0.0482  0.1059  0.0096
12753W        W28222  17.175  13.311  15.514  0.0224  0.4828 -0.0968
12754W        W28223   7.036  17.632  13.301 -0.0285  0.0693  0.1465
12755W        W28224   0.945  13.988   2.928 -0.0070  0.4514 -0.4138
12756W        W28225  18.659  16.969   3.571  0.0354 -0.0440  0.2007
12757W        W28226   7.895   2.272   0.311  0.6554  0.1255  0.0124
12758W        W28227  12.184  16.885  13.087 -0.0683 -0.0701  0.1798
12759W        W28228  11.599   5.084  13.528  0.1132 -0.1310  0.4144
12760W        W28229   8.027   5.396   4.469  0.5750  0.0225 -0.1263
12761W        W28230  13.528   1.101  11.155  0.0015 -0.2193 -0.1173
12762W        W28231   8.279   3.329  11.272 -0.1973  0.1245  0.0768
12763W        W28232   1.683   6.739   1.293 -0.0201 -0.0460 -0.0157
12764W        W28233   8.466   8.437   5.179 -0.1024 -0.3466  0.0299
12765W        W28234  18.752   2.459  13.093  0.0954 -0.0470  0.3149
12766W        W28235   7.575  10.837  14.885 -0.0752  0.0702 -0.0927
12767W        W28236   9.351  16.096  10.570 -0.3149 -0.1989  0.0573
12768W        W28237   3.808  14.994  10.829  0.0586  0.3313  0.4788
12769W        W28238   4.196   7.628   9.772 -0.1758 -0.0125 -0.4011
12770W        W28239  16.379   7.751   2.665  0.2024 -0.2259  0.2345
12771W        W28240  13.817  16.839   2.835 -0.1835  0.3683 -0.3279
12772W        W28241  15.007   5.815   4.883  0.1015 -0.2860 -0.2195
12773W        W28242  12.714  14.307  13.750 -0.0967 -0.1199  0.0465
12774W        W28243  10.125  10.085   1.998  0.3764  0.4372 -0.0360
12775W        W28244   7.701   0.940  13.582  0.1539 -0.0199 -0.1649
12776W        W28245   5.035   8.938  15.178  0.1839  0.0457 -0.1706
12777W        W28246   7.932  16.796   3.397 -0.3063 -0.0623  0.0844
12778W        W28247  11.995  13.648   5.220 -0.1849  0.2214 -0.0846
12779W        W28248   6.615   4.704   2.997 -0.1359 -0.1252  0.0797
12780W        W28249  16.336   3.067  12.342  0.0823  0.0813  0.1889
12781W        W28250  11.179   9.362  15.668  0.2394  0.1308 -0.1671
12782W        W28251   7.616  17.731   2.996  0.0855 -0.0025  0.0907
12783W        W28252  12.968   8.206   3.975 -0.0601 -0.0482 -0.1040
12784W        W28253   1.784   7.211  13.489 -0.0662 -0.2290  0.0482
12785W        W28254  11.907   4.463   4.074  0.2459 -0.4234  0.0486
12786W        W28255   7.221   6.054  14.279  0.2070  0.1134 -0.2146
12787W        W28256   7.923   0.187   3.246  0.1589 -0.0686 -0.2686
12788W        W28257  15.043  13.273  12.690  0.2115  0.0511  0.3339
12789W        W28258  16.228   7.898   3.160  0.1217  0.0735  0.0917
12790W        W28259  14.329  13.384   2.486 -0.3176 -0.1986  0.1502
12791W        W28260  14.136  15.856   0.110  0.4479  0.0476 -0.1240
12792W        W28261  17.712  13.200  13.939  0.0895  0.2752 -0.0703
12793W        W28262  16.651   2.515   1.815  0.0682 -0.0795 -0.0362
12794W        W28263   5.756  16.668   4.295  0.1049 -0.1622 -0.2034
12795W        W28264   7.162  13.807  14.132 -0.0278 -0.0924  0.5115
12796W        W28265  17.787  18.750   0.079  0.0710  0.0604 -0.2112
12797W        W28266   1.340  13.700   2.785  0.1912 -0.0759 -0.3260
12798W        W28267  16.497  18.290  11.683 -0.1524  0.0485 -0.3243
12799W        W28268   8.192  17.773   1.583 -0.3228 -0.1007 -0.1837
12800W        W28269   7.566   9.847   3.600  0.0786  0.2073  0.1567
12801W        W28270  15.298   8.062  10.952 -0.0393  0.2902  0.1033
12802W        W28271  15.103   8.637   4.931 -0.2670  0.0890  0.4447
12803W        W28272   7.723  17.431   3.870  0.0210  0.1803  0.0325
12804W        W28273  15.555  12.531   2.157  0.0751 -0.2018  0.1113
12805W        W28274   0.764   4.918  11.194  0.1017  0.0968 -0.0972
12806W        W28275  11.506   5.249  11.708 -0.2198  0.2193  0.1650
12807W        W28276   1.101  10.111   1.200 -0.1377  0.1069 -0.0551
12808W        W28277   3.549   7.959  10.409 -0.0639 -0.0041  0.0487
12809W        W28278   8.971  12.870   0.853 -0.1417  0.0020 -0.2346
12810W        W28279   3.017   7.226  13.062 -0.0946  0.0098  0.1643
12811W        W28280   6.660  14.363  10.841  0.3362  0.1543  0.5180
12812W        W28281  11.855   0.802   3.512 -0.3153 -0.1774  0.1716
12813W        W28282   4.919  16.483   4.238  0.0172  0.3848 -0.0447
12814W        W28283   8.995  15.102   5.029  0.3209 -0.2269  0.0313
12815W        W28284   6.618  11.870   2.287 -0.3560  0.0449  0.0418
12816W        W28285   2.820   9.497   1.192  0.2446 -0.1528  0.0070
12817W        W28286   7.201  12.618  12.396  0.0799  0.1439  0.2801
12818W        W28287  14.635   2.547  15.064 -0.1976 -0.4638  0.1541
12819W        W28288  17.715   0.073  15.111 -0.1842 -0.1245 -0.3603
12820W        W28289  16.570   2.411   3.370 -0.1716 -0.3647 -0.0078
12821W        W28290   4.551   3.968   0.650  0.1433 -0.1958  0.1194
12822W        W28291   0.128  11.907  11.494 -0.4105  0.0600  0.2482
12823W        W28292   5.519   2.340   0.530  0.0587  0.0764 -0.0115
12824W        W28293  10.754   6.651   5.122 -0.3709 -0.0554 -0.0489
12825W        W28294  14.452   4.341   3.253 -0.1889  0.0661  0.0437
12826W        W28295  13.506   9.678   4.845  0.1267 -0.1313 -0.0276
12827W        W28296   5.862  13.541  11.690 -0.0834 -0.1091 -0.0488
12828W        W28297  11.639  10.842   3.422  0.4730 -0.2311  0.1101
12829W        W28298  12.460   7.562   4.732  0.0344  0.0798  0.1801
12830W        W28299  10.173  13.780   2.209  0.1293  0.0911  0.0924
12831W        W28300   5.096   0.414  15.290  0.0912  0.2508 -0.0887
12832W        W28301  16.460  10.807   5.279 -0.0903 -0.1698  0.2724
12833W        W28302   6.795   8.943  13.071  0.2332 -0.0577  0.3225
12834W        W28303  18.635   8.810  12.019 -0.1137  0.1994 -0.2471
12835W        W28304   5.947   2.709  11.514 -0.1160  0.0865 -0.1643
12836W        W28305  10.696   0.997  10.646  0.1018  0.0675  0.0860
12837W        W28306   3.524   8.571  13.923 -0.1375 -0.3135  0.0116
12838W        W28307  17.230  17.714   0.330  0.1752  0.1255 -0.1312
12839W        W28308  14.658   2.402  11.591 -0.2048 -0.1797 -0.0699
12840W        W28309  16.737   5.015   0.323  0.0436  0.1447  0.2332
12841W        W28310   9.102  11.850  13.300  0.1834 -0.0799  0.2767
12842W        W28311  11.568   3.042   3.657 -0.0580  0.0952  0.0450
12843W        W28312   8.105  14.002  10.804  0.1795 -0.4838 -0.1929
12844W        W28313  10.031  18.587   2.759 -0.2778  0.2308  0.0058
12845W        W28314  18.023  11.384  14.620 -0.0653 -0.0381  0.1588
12846W        W28315  15.571   5.674   2.565 -0.0014  0.3120  0.1535
12847W        W28316   4.166   7.598  15.566 -0.2804  0.1342  0.0833
12848W        W28317  15.041  18.439   5.088  0.3887 -0.0445  0.2997
12849W        W28318   3.404  11.699  10.940  0.0491 -0.0597  0.2263
12850W        W28319   0.286  15.460  13.520 -0.0941  0.0676  0.4392
12851W        W28320  14.419  15.826   4.178 -0.1857  0.2568  0.1447
12852W        W28321  15.252  11.561   3.455 -0.2520 -0.0607 -0.0784
12853W        W28322  18.234  13.209  12.101 -0.1350 -0.2062  0.0599
12854W        W28323  14.788  13.693  12.783  0.2684  0.1700 -0.0227
12855W        W28324  18.128   9.565  13.323  0.3237 -0.2189  0.1273
12856W        W28325   6.722  11.701   4.383 -0.0265 -0.2248  0.2647
12857W        W28326  10.735  17.528  15.584  0.0927  0.2879 -0.1347
12858W        W28327   6.310   0.808   2.454  0.0592  0.1535  0.4252
12859W        W28328   7.994   8.089  10.808 -0.0206 -0.2281 -0.1899
12860W        W28329   1.518   5.347   1.479  0.1744  0.0819 -0.1012
12861W        W28330   9.071  16.309  15.569  0.2964 -0.0299  0.0283
12862W        W28331   2.632   2.897  14.480  0.1298 -0.0036 -0.1927
12863W        W28332  15.218  11.487   1.665 -0.0143 -0.2948 -0.1774
12864W        W28333   1.117   7.817  13.288 -0.1190  0.0881 -0.1446
12865W        W28334  11.884  15.433  10.309  0.3422 -0.0237 -0.2113
12866W        W28335   5.213   2.115   2.229 -0.1331  0.0808  0.1253
12867W        W28336  15.311   4.288  12.124  0.0930  0.1097  0.0291
12868W        W28337  16.705   0.829  15.516 -0.1040 -0.1905 -0.0211
12869W        W28338  10.938  10.934   2.077 -0.3995 -0.2009  0.1107
12870W        W28339  16.522  12.531  12.012  0.4089  0.2300 -0.1534
12871W        W28340   0.781   2.679  11.192  0.1354 -0.0151  0.2599
12872W        W28341  10.382   5.837   3.457  0.0774  0.0209  0.1670
12873W        W28342   1.255   0.462   1.559 -0.1664 -0.4248 -0.2423
12874W        W28343   6.721  14.934   3.753  0.0117  0.2151  0.0559
12875W        W28344  11.708  13.262   0.707 -0.0174  0.0025 -0.0780
12876W        W28345   3.860   2.401  11.169  0.1133  0.4154 -0.0549
12877W        W28346  11.363  12.005  11.961  0.0107  0.1027  0.1637
12878W        W28347  10.328  11.425   4.531 -0.1087 -0.1186  0.2228
12879W        W28348   5.333   1.708   5.292 -0.1946 -0.0619  0.2701
12880W        W28349   3.687  14.196   2.318  0.2142 -0.1730  0.1718
12881W        W28350   1.301  10.857  12.540  0.3676  0.3336  0.2970
12882W        W28351  16.673  10.876  14.051  0.1197  0.0982  0.0287
12883W        W28352  13.094   4.389  10.671 -0.1155  0.1498 -0.1608
12884W        W28353  17.825   3.071   5.255 -0.1516  0.1738 -0.1869
12885W        W28354   2.431   4.869   1.556  0.1548 -0.0080  0.0616
12886W        W28355  16.358   0.718   0.198 -0.0966 -0.2735  0.0808
12887W        W28356   9.100   6.073  10.607  0.2785  0.0143  0.2896
12888W        W28357  17.932   6.191  12.765 -0.0323  0.1991 -0.5562
12889W        W28358   8.870   3.580   4.094  0.0820 -0.0088  0.1209
12890W        W28359  14.330  18.555  11.003  0.0263  0.0116 -0.0316
12891W        W28360   0.247   2.294  13.686  0.1249 -0.1161  0.0246
12892W        W28361   5.320  12.813  11.303  0.0917  0.2547  0.1323
12893W        W28362   0.837   9.685   1.203 -0.0573  0.0257  0.1017
12894W        W28363  15.424   3.142   9.921 -0.0152 -0.1231  0.1021
12895W        W28364   7.825   3.953  14.955 -0.1932 -0.1433  0.0157
12896W        W28365   8.688  18.478   5.562 -0.2477 -0.1778  0.1868
12897W        W28366   9.533  14.747   1.237  0.1997 -0.2483  0.1522
12898W        W28367  12.148  13.702   1.299  0.1167 -0.1489  0.4842
12899W        W28368  12.736  11.443  11.158  0.0991 -0.1528 -0.1543
12900W        W28369   4.980   8.895  10.412  0.0057  0.0962  0.0401
12901W        W28370  15.616   0.946  11.133 -0.0130  0.1437 -0.0139
12902W        W28371   9.035   3.629  10.927 -0.0550  0.0065 -0.1337
12903W        W28372  15.145  16.775  14.906 -0.1660  0.2139  0.4448
12904W        W28373   6.731  16.681   5.137  0.0548 -0.2014  0.0206
12905W        W28374   6.412   6.392  10.824  0.0721  0.0272  0.0697
12906W        W28375   3.266   9.952  15.053 -0.1695  0.2202 -0.2164
12907W        W28376   7.839   6.842  12.164 -0.1335 -0.2633 -0.0538
12908W        W28377  14.821  13.214   2.860 -0.3233 -0.0267 -0.0206
12909W        W28378  16.810   3.770  13.185 -0.0921  0.1512 -0.0585
12910W        W28379   1.390  11.382   2.997  0.1912  0.1029 -0.3675
12911W        W28380   3.091   1.373  12.006  0.0862 -0.0032  0.2901
12912W        W28381  17.792  16.702  15.129  0.2222 -0.0193  0.3785
12913W        W28382   3.231  17.435   4.188  0.0821  0.2355 -0.4538
12914W        W28383  11.707   0.170  12.421 -0.0801 -0.0084 -0.1455
12915W        W28384   1.320   5.670  12.740 -0.1278 -0.0949  0.0732
12916W        W28385   1.253   0.379   0.748  0.2651  0.1862 -0.0761
12917W        W28386  17.933   9.705   1.510 -0.3068 -0.0291 -0.0514
12918W        W28387   9.320   4.889  11.079  0.0320  0.1692 -0.1753
12919W        W28388  14.001   2.243   3.242  0.3780  0.2105  0.1975
12920W        W28389   9.532  10.933  10.782  0.1014 -0.0858  0.1444
12921W        W28390   9.088   9.701  11.872  0.0464  0.2998  0.3751
12922W        W28391  11.298   7.304   0.597  0.0916  0.0796 -0.1618
12923W        W28392   2.581  14.316  14.044  0.1126 -0.0585 -0.1440
12924W        W28393  11.565  10.001  10.678 -0.0897 -0.2412  0.1131
12925W        W28394  14.855  18.737   0.119  0.0112  0.2485  0.2009
12926W        W28395   1.888  14.528   1.756  0.0209 -0.0023  0.1565
12927W        W28396  14.736   4.159   4.280 -0.0130  0.0852 -0.0114
12928W        W28397  18.153   3.846   4.543 -0.0756  0.2416  0.0513
12929W        W28398  18.248   5.813  12.653  0.1865 -0.0447 -0.0808
12930W        W28399  18.548  10.135  15.011  0.2778  0.0380  0.1491
12931W        W28400   5.658   3.932   3.137 -0.0403 -0.1393  0.2084
12932W        W28401   2.891  14.733  13.259 -0.1866 -0.2048  0.0611
12933W        W28402   8.677  16.620  13.446  0.0886  0.0730  0.0882
12934W        W28403  13.934  16.581   2.376  0.0889  0.1730 -0.1026
12935W        W28404   1.375   0.543   3.448 -0.1840  0.0091  0.0408
12936W        W28405   4.717  14.339  14.136  0.0182 -0.1537 -0.0718
12937W        W28406  12.469   6.478   2.182 -0.4098  0.3627 -0.4142
12938W        W28407  10.552  10.268  14.911 -0.1670 -0.2369 -0.1026
12939W        W28408   3.707   7.386   1.303  0.0608 -0.1486  0.0797
12940W        W28409  18.255  10.009   3.613  0.0841  0.0510 -0.0322
12941W        W28410   6.692   9.845  13.023  0.2398 -0.1582  0.2002
12942W        W28411  10.543  15.975   1.287  0.3648 -0.0008 -0.2402
12943W        W28412   4.260  14.858  11.181 -0.0084 -0.3018 -0.2328
12944W        W28413   7.502  15.453   2.114  0.1190  0.0875 -0.0415
12945W        W28414  15.420   0.469  11.808  0.1114  0.0962 -0.0099
12946W        W28415   9.455  15.972   2.769  0.1121 -0.0587  0.1259
12947W        W28416   4.841  16.926   5.602  0.0888  0.3820  0.0548
12948W        W28417  15.386  12.284   1.286  0.1175  0.1280  0.0808
12949W        W28418  16.828  12.875  13.845  0.0794 -0.1271 -0.2209
12950W        W28419  12.007  10.346   3.592  0.0514 -0.0125 -0.0424
12951W        W28420   1.315  18.449   4.657  0.2568  0.4931 -0.0007
12952W        W28421  11.804  10.956  11.692 -0.1150 -0.0050  0.1958
12953W        W28422   1.550   9.585   0.526 -0.0195 -0.2824 -0.0838
12954W        W28423  11.247  10.873   1.626 -0.1108 -0.0085 -0.0713
12955W        W28424   8.442  14.340  11.050 -0.0185  0.0650 -0.2526
12956W        W28425  13.504  18.055   3.611 -0.2498  0.4041  0.0242
12957W        W28426  17.509   5.569   1.907  0.3808  0.1263 -0.0766
12958W        W28427   7.083  18.512   4.548 -0.1649  0.2634  0.2100
12959W        W28428  15.944   0.961   1.689  0.1704  0.0911  0.1356
12960W        W28429   7.634   1.756   3.737 -0.3460  0.1962  0.0875
12961W        W28430  17.051   1.526   1.432  0.0089  0.1655 -0.1784
12962W        W28431  13.539   3.572  14.956  0.0376  0.2526 -0.1190
12963W        W28432   6.155   3.768   3.125 -0.0131 -0.4304  0.1767
12964W        W28433  11.851   4.129   2.728  0.4204 -0.0656  0.2704
12965W        W28434  15.693   2.551  11.274 -0.1061  0.1676 -0.2515
12966W        W28435   9.212   2.103  12.531 -0.1606  0.0175  0.0734
12967W        W28436   9.936  14.674  11.422 -0.2264 -0.2527 -0.0814
12968W        W28437   5.869   7.510  12.822 -0.0198 -0.0675 -0.2799
12969W        W28438   7.847   9.215  14.634  0.2782  0.0469  0.2178
12970W        W28439   1.901  13.094   3.256 -0.0677 -0.3299  0.3405
12971W        W28440  11.452   0.328  11.704 -0.1150  0.0348  0.2301
12972W        W28441   1.566   8.748  11.833 -0.2994 -0.0703  0.1106
12973W        W28442   4.577   2.349   4.250 -0.0730 -0.2070  0.0393
12974W        W28443   8.738  12.156  13.147  0.0355  0.3725  0.1823
12975W        W28444   3.466   3.264   0.321 -0.1742 -0.1034 -0.3950
12976W        W28445   7.912   7.168  15.472  0.0820  0.2282 -0.0643
12977W        W28446   8.705   8.700  12.335  0.0553  0.1750 -0.2244
12978W        W28447   9.838  10.177   0.049  0.4231 -0.1966  0.1610
12979W        W28448  15.106  13.254   4.611  0.2898  0.2612  0.2534
12980W        W28449  16.887  11.841   1.184  0.1813 -0.0289 -0.1527
12981W        W28450   0.673   7.404  10.627 -0.2470 -0.1975 -0.2883
12982W        W28451  13.291   7.204  12.850 -0.1006 -0.0450  0.2831
12983W        W28452   7.896  13.043  10.827  0.1477  0.0374  0.0718
12984W        W28453   6.663  11.139  15.005 -0.2723  0.0068 -0.2314
12985W        W28454   5.627  11.817  12.193  0.0235 -0.2320 -0.1801
12986W        W28455  10.929   0.829  12.073 -0.2409  0.2720  0.3021
12987W        W28456  15.948   6.984  11.207 -0.5894 -0.1547  0.1273
12988W        W28457   3.137   1.834  14.392  0.1523  0.0143  0.1951
12989W        W28458   0.005  15.456   4.423 -0.2304  0.2030  0.2867
12990W        W28459  15.864   3.417  14.900  0.0164  0.1922 -0.0368
12991W        W28460   1.116   3.644   0.836 -0.2824 -0.1912  0.0174
12992W        W28461   8.554   4.324   4.014 -0.3015 -0.0358  0.0199
12993W        W28462  12.343   4.362  12.742  0.1672 -0.0899  0.1482
12994W        W28463  16.293  10.094  11.326 -0.2178  0.3237  0.0972
12995W        W28464  18.451  10.242  14.066 -0.0417 -0.0099 -0.3932
12996W        W28465   0.996  11.232  10.941  0.1570 -0.1768 -0.1337
12997W        W28466   2.402  12.046  13.499 -0.1020 -0.2156 -0.0585
12998W        W28467  17.159  12.010  15.307  0.0793 -0.0535  0.0621
12999W        W28468  14.607  18.706  12.042  0.0041  0.5381  0.1697
13000W        W28469   6.311   4.702   2.106  0.1098 -0.2020  0.1552
13001W        W28470   5.708   1.030  12.872  0.2564  0.2396  0.2884
13002W        W28471  13.223  10.576   0.575  0.0332  0.1053 -0.5704
13003W        W28472   0.959   3.185  15.100  0.1366 -0.0304  0.3599
13004W        W28473   3.279  18.069   2.996  0.0955 -0.0362  0.1725
13005W        W28474   9.436   5.609   1.219  0.2006 -0.0502  0.3662
13006W        W28475   5.308   0.101   4.051 -0.0983 -0.0217  0.0499
13007W        W28476   8.698   2.192  13.754 -0.1720  0.0841  0.0804
13008W        W28477  13.323   6.035   3.598  0.1000 -0.1722  0.1386
13009W        W28478   8.420  13.905  10.462  0.2074 -0.1776 -0.5077
13010W        W28479   4.924  12.112  12.975  0.1109  0.1475 -0.0968
13011W        W28480  11.825  18.343  10.274 -0.1909 -0.4982 -0.1314
13012W        W28481   0.052   4.037  12.522  0.2450  0.2925 -0.1319
13013W        W28482  17.904   9.521   6.109  0.0465 -0.3652  0.1436
13014W        W28483  12.873  18.386   1.653 -0.1514  0.0219 -0.1297
13015W        W28484  10.788   8.176  14.128 -0.1484  0.2663  0.2898
13016W        W28485   4.842  11.710  11.705 -0.2385  0.0783  0.2678
13017W        W28486   7.993  13.845  12.222 -0.2249  0.1759 -0.2020
13018W        W28487   6.613  15.047  13.427 -0.0793 -0.1497  0.0841
13019W        W28488  14.369  14.040   4.371 -0.0197 -0.2346  0.0015
13020W        W28489   5.282  13.630   2.912  0.0251 -0.1821 -0.3184
13021W        W28490   8.663   6.355  13.840 -0.1254  0.0549  0.0858
13022W        W28491   5.010  14.277   2.186  0.1183 -0.3051  0.3944
13023W        W28492  10.549   9.783  13.229  0.1399 -0.2643  0.2979
13024W        W28493  14.974   8.432  11.097 -0.1967  0.2680 -0.4029
13025W        W28494  13.009   7.362  10.280  0.0159 -0.1311 -0.0515
13026W        W28495   8.163   3.006  10.535  0.3286 -0.0193 -0.0291
13027W        W28496   2.997   2.259   6.207  0.2320  0.1020 -0.0173
13028W        W28497  12.136  11.163   5.355  0.3401 -0.0557  0.1254
13029W        W28498  10.839   2.633   3.433 -0.0901  0.1409  0.0353
13030W        W28499  13.528   8.678  12.995 -0.0159 -0.0216  0.0113
13031W        W28500   0.190  15.007   2.283  0.0753  0.0694 -0.1982
13032W        W28501   4.488   5.205  14.040 -0.0625  0.4801  0.0381
13033W        W28502   5.616   7.492  10.553  0.0629  0.0436 -0.0745
13034W        W28503  13.873  11.035  11.201 -0.1092  0.0179 -0.1041
13035W        W28504  15.397  11.745  11.164  0.3038 -0.1926 -0.1441
13036W        W28505  18.719  17.055  13.912  0.0176 -0.0253 -0.1412
13037W        W28506  11.548   7.285   4.138  0.0603 -0.0949 -0.2218
13038W        W28507   6.028  14.014   2.519  0.1355 -0.0169  0.1233
13039W        W28508  14.235  17.765  12.938 -0.1382 -0.0781  0.0448
13040W        W28509   0.019   5.238   1.683 -0.0251  0.1327 -0.2047
13041W        W28510   1.804  18.671   0.497 -0.3741 -0.2346  0.0327
13042W        W28511  14.550   9.312   3.195 -0.5274  0.0442 -0.4852
13043W        W28512   5.972  17.701  11.306 -0.0772 -0.3773 -0.1121
13044W        W28513  12.468   2.371  14.397  0.1656 -0.0512 -0.0395
13045W        W28514  15.551  18.433  13.378 -0.2615 -0.1476  0.2555
13046W        W28515  18.721  15.112   1.038  0.0126  0.0276  0.1771
13047W        W28516  17.125   5.144   2.956 -0.0506 -0.0840  0.2121
13048W        W28517  13.467   3.500   0.267  0.1445 -0.0642  0.0197
13049W        W28518   4.499  16.168   5.160  0.1482 -0.1040  0.3008
13050W        W28519   4.527   4.463   3.755 -0.0585  0.0577 -0.0901
13051W        W28520   1.154  15.197  11.094 -0.0141 -0.2766 -0.2262
13052W        W28521  15.609   2.464   1.783  0.1880 -0.0724  0.2061
13053W        W28522   0.818  10.025   3.523 -0.1030  0.3853  0.4704
13054W        W28523  11.943  15.667  11.309  0.0782 -0.0762  0.0609
13055W        W28524   2.149   2.523  15.320  0.0453 -0.2598 -0.2002
13056W        W28525   8.314  16.509  11.477  0.1353  0.0135 -0.1339
13057W        W28526  17.900  11.561   2.193 -0.3357 -0.0099  0.0564
13058W        W28527   0.382  10.660  13.081  0.1973  0.0428 -0.1753
13059W        W28528   7.973  17.376  13.171 -0.0025 -0.2718 -0.0298
13060W        W28529   8.678   2.195   4.583 -0.1998 -0.1655 -0.0677
13061W        W28530   0.945  10.232  10.728 -0.1425  0.1004  0.2643
13062W        W28531  17.751   7.224   5.914  0.3335  0.2010 -0.1259
13063W        W28532  16.598  17.443  10.052  0.0857  0.1358  0.0087
13064W        W28533   4.608  11.093  13.903  0.0599  0.1975 -0.2151
13065W        W28534  14.580   1.536  15.019  0.1470 -0.1087 -0.3569
13066W        W28535  17.860   4.684  11.352 -0.0016  0.2886 -0.1027
13067W        W28536   7.817   4.205  13.806  0.0570 -0.2231  0.1382
13068W        W28537   6.911   2.943  12.448  0.1588 -0.3438  0.0532
13069W        W28538  11.724   4.033   0.111  0.0498 -0.0403 -0.0891
13070W        W28539  13.422  16.558   3.013  0.2086  0.4364  0.0913
13071W        W28540  10.983  11.079   5.189  0.0869 -0.0105  0.0777
13072W        W28541   3.213  16.114   4.998 -0.0227 -0.3304  0.4591
13073W        W28542  17.673   2.946  13.606 -0.2474 -0.2479 -0.1631
13074W        W28543   0.622   4.075  11.263 -0.1507  0.2201 -0.1944
13075W        W28544   7.372   2.282   4.997  0.0120  0.1799 -0.1481
13076W        W28545   6.771  17.651   2.994  0.2117 -0.1660 -0.1975
13077W        W28546   9.919   1.712  14.025  0.1327 -0.0091 -0.0750
13078W        W28547  14.526   5.122  14.303  0.0400 -0.1382 -0.1138
13079W        W28548  18.056   1.433  13.033  0.2340  0.0091  0.0517
13080W        W28549   6.856  17.891  11.754  0.3444  0.2986  0.2466
13081W        W28550   2.554  17.255  14.394  0.1082 -0.1530  0.1232
13082W        W28551   9.292  12.897  14.018  0.3180 -0.0957 -0.1501
13083W        W28552   5.410  14.664  13.502 -0.0196 -0.2015  0.3979
13084W        W28553  15.552   0.904  10.153 -0.2439 -0.1481  0.1137
13085W        W28554  12.612  10.811   0.109  0.1186 -0.0933  0.0156
13086W        W28555  12.109  15.669   2.871 -0.2526  0.3298  0.1073
13087W        W28556  16.530   0.141  14.875  0.2202 -0.1556  0.0208
13088W        W28557  12.006  12.820   0.824 -0.0425 -0.2617  0.0695
13089W        W28558   8.960  11.347  14.718 -0.0408 -0.0129 -0.1784
13090W        W28559   8.895   9.312   3.614  0.2966 -0.2596 -0.0188
13091W        W28560   5.893   8.514   3.472 -0.0107  0.1147 -0.2320
13092W        W28561   5.162  10.315   1.814  0.1708 -0.1504  0.2326
13093W        W28562   9.449   8.322   4.335 -0.3212 -0.1225 -0.0026
13094W        W28563  13.000  16.639  13.380 -0.4145  0.0602 -0.0170
13095W        W28564  12.599   5.209  11.460 -0.0937  0.3170 -0.1295
13096W        W28565   0.583  15.720   5.241 -0.3477 -0.2079 -0.1385
13097W        W28566   2.313   1.108   0.585  0.0828  0.2199  0.4578
13098W        W28567   5.444   2.164   1.717  0.0735 -0.2528 -0.3764
13099W        W28568   1.942  14.397   0.803 -0.0794 -0.1049 -0.0297
13100W        W28569  13.793  17.266  12.022  0.1801 -0.1274  0.1134
13101W        W28570   6.173  14.263   4.352 -0.0566 -0.1137  0.0312
13102W        W28571  18.356  16.467  14.509 -0.0263  0.2262  0.2838
13103W        W28572   9.063   4.477   1.385 -0.2125  0.4067  0.0687
13104W        W28573  16.627  12.107  15.553  0.1539  0.1059 -0.0727
13105W        W28574  10.226  17.422   3.310  0.1371  0.0872  0.1235
13106W        W28575  17.991   8.935  13.047  0.1118  0.0167 -0.0690
13107W        W28576  15.619   6.309  15.603 -0.0529  0.2218  0.0844
13108W        W28577   8.279  15.308   0.621 -0.1264 -0.4138 -0.0335
13109W        W28578  13.382   2.863   2.906  0.0283  0.1918 -0.0440
13110W        W28579   7.214  12.960   3.873 -0.2083  0.1601  0.0810
13111W        W28580  18.615  18.598  10.739 -0.1333 -0.0960  0.0771
13112W        W28581  17.437   2.781  15.231  0.3045 -0.1564  0.0762
13113W        W28582   1.990  17.110   0.800  0.0541  0.3001  0.2616
13114W        W28583   5.404  17.457   3.884  0.1951  0.1351  0.0412
13115W        W28584   0.083  11.394  15.643  0.0046  0.1427  0.1915
13116W        W28585   9.347  17.668  11.573 -0.3921 -0.0256 -0.0584
13117W        W28586   6.921   3.097   0.093 -0.0677 -0.0809  0.0662
13118W        W28587   6.255   6.665  11.235  0.2707 -0.1242  0.2365
13119W        W28588  11.743  13.097  14.830  0.1956  0.5001  0.2212
13120W        W28589  17.705   4.437  13.288 -0.0602 -0.0922  0.0919
13121W        W28590   4.824  18.744  12.619 -0.1181 -0.1328  0.1217
13122W        W28591   0.879  13.290   1.067  0.2604 -0.1712  0.1051
13123W        W28592   8.378   5.896   1.933 -0.0874  0.1173 -0.0717
13124W        W28593   2.246  12.906  11.848 -0.0959  0.0275 -0.0580
13125W        W28594  18.654   6.985  11.670  0.3418  0.2499  0.2581
13126W        W28595  13.247  10.621   5.347 -0.0079 -0.2769  0.1777
13127W        W28596   6.226   8.010  13.084 -0.1179  0.0979  0.3820
13128W        W28597  18.519  17.587  12.279 -0.2536  0.2834  0.1155
13129W        W28598   3.744  15.296   9.996 -0.3583 -0.0066  0.0249
13130W        W28599  17.520   0.183   2.472 -0.3424  0.0060  0.0188
13131W        W28600   4.283  11.218   3.885  0.2800  0.1171 -0.1563
13132W        W28601  11.979   5.160  11.401 -0.0017  0.0254  0.2850
13133W        W28602   2.091  18.096   3.708 -0.1568 -0.0806  0.2609
13134W        W28603  11.980   2.486   1.101  0.1782 -0.0330 -0.1556
13135W        W28604  10.819   0.594   1.577  0.0934 -0.0233  0.2894
13136W        W28605  11.267  17.752   4.358  0.0865 -0.0208  0.1822
13137W        W28606   2.530  18.733   5.392  0.0691  0.4381 -0.2498
13138W        W28607   8.184  14.629   0.019  0.0813 -0.1446  0.2026
13139W        W28608  14.274  18.057   2.908 -0.0152  0.0312  0.0424
13140W        W28609   9.656   7.852   0.067  0.0264  0.4173  0.1162
13141W        W28610   4.217   4.439  11.016 -0.2132 -0.0745 -0.0455
13142W        W28611   9.035   0.604  15.440 -0.1926  0.1220 -0.3240
13143W        W28612   9.552   6.751   2.242  0.1498 -0.2653 -0.0796
13144W        W28613   3.851   6.300  14.925 -0.1834  0.4306 -0.0341
13145W        W28614   7.034  13.127  12.417 -0.0281  0.0893 -0.0675
13146W        W28615   0.225   5.276   4.134  0.0548 -0.0513  0.0954
13147W        W28616   4.537  11.725   2.979 -0.0111 -0.2020 -0.2726
13148W        W28617   9.409   5.685  14.781  0.1093  0.2427  0.0373
13149W        W28618  15.771  15.897  14.912  0.0394  0.1979 -0.0022
13150W        W28619  15.471  15.824   5.631 -0.1067 -0.1723 -0.1880
13151W        W28620   4.078   3.581  12.041  0.0594  0.0203  0.0598
13152W        W28621   4.654  17.444  13.406  0.0509  0.0314 -0.3664
13153W        W28622  11.481  17.915  15.609  0.0562 -0.0267 -0.1033
13154W        W28623  13.574   1.507   2.472 -0.0160  0.0955 -0.0181
13155W        W28624   1.915   9.734  11.741  0.2858 -0.1864 -0.2588
13156W        W28625   3.420   7.735  12.910  0.2023 -0.2020  0.1320
13157W        W28626  17.212   7.116   0.171  0.2134  0.2614  0.2309
13158W        W28627  11.404   5.310   4.384  0.4292  0.1821  0.0778
13159W        W28628  12.395   0.816  12.119  0.0946  0.1236 -0.3187
13160W        W28629   1.396   0.286  12.713 -0.0923 -0.1411  0.3741
13161W        W28630   9.794   9.840  15.280 -0.1167 -0.4420  0.2765
13162W        W28631   6.085   7.895  12.058 -0.1626  0.0889 -0.1403
13163W        W28632   2.164   7.115   3.739 -0.2146 -0.1202 -0.0239
13164W        W28633   8.418  11.668  12.849 -0.0318 -0.1984 -0.1186
13165W        W28634  13.442  15.426  14.771 -0.0337 -0.2945  0.1408
13166W        W28635  13.092   2.929   1.925 -0.0247 -0.0942  0.1837
13167W        W28636   0.610   9.168  14.586 -0.0692  0.0022 -0.3134
13168W        W28637  12.709  10.483   2.588 -0.0179 -0.2362 -0.5446
13169W        W28638   6.374   9.779  10.396  0.1084  0.2481  0.0817
13170W        W28639   0.347  12.093  14.940  0.0329  0.0361  0.1860
13171W        W28640   5.580   9.965  12.433  0.2573  0.1934 -0.0360
13172W        W28641  16.966  16.096   1.143 -0.1035 -0.0720 -0.1702
13173W        W28642  14.597  10.512   5.175  0.1942 -0.1793 -0.2111
13174W        W28643   6.285   9.599   2.192  0.0263 -0.0661 -0.1368
13175W        W28644   8.097   0.488   2.236  0.0140 -0.0442 -0.2569
13176W        W28645  18.043   3.418  11.276  0.0531 -0.1649  0.0716
13177W        W28646  16.121   8.023   3.642 -0.2852  0.2565 -0.1202
13178W        W28647  10.821   8.193   3.358  0.2840 -0.2888  0.1574
13179W        W28648   7.251  15.743   3.393 -0.0729 -0.0287 -0.1729
13180W        W28649   0.422   7.317  11.072 -0.3633 -0.1049  0.0747
13181W        W28650   2.346   2.861  12.034  0.3146  0.1543 -0.0659
13182W        W28651  17.179   7.869   4.418 -0.0964 -0.0669  0.1628
13183W        W28652  18.665  15.782   2.483 -0.0388  0.0962  0.1075
13184W        W28653  10.926   8.415   4.451 -0.0642 -0.0333  0.0094
13185W        W28654  15.151  10.480  14.151  0.1095 -0.1262 -0.0466
13186W        W28655   9.882   3.281  10.634 -0.2199 -0.0431  0.4220
13187W        W28656  12.830  10.609   4.251 -0.1544 -0.2112 -0.0209
13188W        W28657  10.406  11.060   4.152  0.0902  0.6424  0.0781
13189W        W28658   8.710   1.462   3.972  0.1672 -0.1410  0.0564
13190W        W28659  16.571   0.143   2.661  0.2023  0.1843 -0.0056
13191W        W28660   5.503  14.453  12.933  0.0663  0.0610 -0.1877
13192W        W28661  10.308   9.077   0.649  0.1042 -0.2237  0.5005
13193W        W28662  15.387  13.392   3.946  0.0119 -0.0918 -0.3766
13194W        W28663   8.591   7.762  14.436 -0.0374 -0.2485  0.0372
13195W        W28664   1.135  12.788   3.091  0.2135  0.0305 -0.0966
13196W        W28665  12.596   1.971  14.591  0.1128  0.1415 -0.1422
13197W        W28666   5.935  13.099  11.819 -0.3427  0.0862  0.0008
13198W        W28667   1.654   2.512   1.393  0.1864  0.1957 -0.0505
13199W        W28668   6.235   0.394   3.929 -0.1142 -0.0702 -0.1092
13200W        W28669  18.689   2.290  11.467  0.1013  0.2301  0.0134
13201W        W28670   2.465   8.077   2.985  0.2326  0.0067 -0.1150
13202W        W28671   3.166   5.897  12.830  0.2189  0.2330 -0.1403
13203W        W28672   7.804   2.147  13.152  0.0583  0.1928  0.1483
13204W        W28673   9.684  16.835   2.904  0.0855  0.0954 -0.2408
13205W        W28674  16.880  13.679  11.704  0.1809  0.0492 -0.0413
13206W        W28675  11.799  17.919   2.606 -0.0729 -0.0762 -0.1506
13207W        W28676  18.430   3.416  10.875  0.2586  0.0334  0.1226
13208W        W28677  14.848  13.742   5.545  0.1622 -0.2187  0.0810
13209W        W28678  10.959   3.266   2.320  0.3040 -0.0826  0.1015
13210W        W28679   6.228   4.005  14.355  0.0124  0.1676 -0.1360
13211W        W28680   3.293   9.741   1.418  0.0626  0.0603  0.0052
13212W        W28681   8.748  14.076  10.769 -0.1756 -0.0223 -0.2417
13213W        W28682   4.843   2.218  14.078 -0.1007  0.1474 -0.1506
13214W        W28683  11.933   6.958   1.808 -0.1042  0.2554  0.0658
13215W        W28684   0.119  13.319  14.964  0.0268 -0.1442  0.2126
13216W        W28685  18.138   2.149  13.817 -0.2355 -0.0498  0.2448
13217W        W28686   6.644  14.153  13.408 -0.1927  0.1585  0.0236
13218W        W28687   7.424  15.264  12.241 -0.1808 -0.0481  0.1676
13219W        W28688  13.838  14.740  13.048 -0.0733  0.4041  0.1332
13220W        W28689  14.764  14.834   2.468  0.1011  0.1482 -0.1770
13221W        W28690  16.060   9.729   3.850 -0.0497  0.1331 -0.2023
13222W        W28691  17.938  10.250   2.681  0.1538  0.0470 -0.2099
13223W        W28692   0.458  12.914   1.351 -0.1739  0.2674  0.2274
13224W        W28693   6.940   7.872   1.102  0.1292  0.0075  0.1900
13225W        W28694  13.792  11.359   4.247  0.1494 -0.3238  0.0338
13226W        W28695   6.917  11.475  14.735  0.2249  0.1278  0.1332
13227W        W28696   9.783   2.354   1.966 -0.1270  0.0436  0.0678
13228W        W28697   3.208  12.859   4.244  0.1326 -0.2744 -0.3013
13229W        W28698   6.826  16.960   1.590  0.1234  0.0104 -0.0545
13230W        W28699   7.166   5.879   5.171 -0.2750  0.1053  0.2600
13231W        W28700  14.731  13.607   3.127  0.0198 -0.2082 -0.0131
13232W        W28701  13.196  10.650   2.815  0.1348  0.0386 -0.0974
13233W        W28702   2.044  13.636  12.236  0.0031 -0.2145  0.0448
13234W        W28703   6.993  15.551  14.646  0.0116  0.0268 -0.2379
13235W        W28704  18.020  11.455   1.639  0.0876  0.3590  0.1008
13236W        W28705   8.193  11.200   3.388 -0.0721 -0.3028 -0.0802
13237W        W28706  17.994   2.579   3.576  0.0832 -0.0195 -0.0384
13238W        W28707  13.457   6.476   5.012 -0.0786  0.0423  0.0042
13239W        W28708   6.876   2.800   0.586 -0.1089  0.2528  0.2978
13240W        W28709  13.389   3.061  15.577  0.2633 -0.0785  0.3494
13241W        W28710   5.678   0.886   2.931  0.0120 -0.2211 -0.0211
13242W        W28711   7.922  18.214   5.850  0.2082 -0.0686  0.1166
13243W        W28712   7.771   9.565   2.775  0.2151  0.2723  0.3039
13244W        W28713   8.346   2.159  15.119 -0.1778 -0.5635  0.0625
13245W        W28714  14.233   2.932   4.738 -0.0766  0.0201 -0.0284
13246W        W28715   7.806   6.351  13.712 -0.1036 -0.2422  0.1794
13247W        W28716  16.405  10.713   4.611 -0.0268 -0.1397  0.0287
13248W        W28717   6.372   0.272  15.516  0.0234  0.0294  0.2018
13249W        W28718  16.271  15.551  13.533 -0.0574  0.2288  0.2493
13250W        W28719   4.950   4.414  11.530  0.2206  0.2722  0.1932
13251W        W28720  16.117   7.299  10.876 -0.2269 -0.0346  0.2643
13252W        W28721   3.880   7.928   2.844 -0.2979  0.1836  0.0566
13253W        W28722   2.893  17.206  13.040 -0.5185  0.0345  0.0022
13254W        W28723   1.345  12.428  12.097  0.0115 -0.0380  0.0597
13255W        W28724   1.066   5.851  13.610 -0.1126  0.1362 -0.1974
13256W        W28725   5.391  16.123   9.774 -0.1075  0.1075 -0.0218
13257W        W28726  17.711   5.406  15.271 -0.0853 -0.1999 -0.0893
13258W        W28727   5.051  10.433  13.900 -0.1756  0.0553 -0.0992
13259W        W28728  17.154   6.984  12.592  0.0538  0.2231 -0.0533
13260W        W28729   1.127  13.366   1.694 -0.1133 -0.2178 -0.0678
13261W        W28730  18.421  11.146  14.277 -0.0540  0.2704  0.1808
13262W        W28731   0.664  11.333   2.501 -0.1748 -0.1790  0.4096
13263W        W28732  18.110   2.357   1.958  0.1577 -0.1880  0.1433
13264W        W28733  10.526   8.979  13.619 -0.0441 -0.1466  0.0450
13265W        W28734   5.069  18.284  11.579 -0.0851  0.0648 -0.1299
13266W        W28735  13.289   7.169   3.043 -0.2517 -0.2558  0.2076
13267W        W28736   5.030   2.515   1.835 -0.0619 -0.1001 -0.0361
13268W        W28737  10.894   9.424  10.704 -0.1980  0.1022 -0.1180
13269W        W28738  16.651   5.889   2.753 -0.0510  0.1959 -0.2238
13270W        W28739   0.700  14.988   2.187 -0.0623  0.0391  0.1915
13271W        W28740   8.160   6.283   3.366 -0.2333  0.1158 -0.2738
13272W        W28741  14.018  12.928   0.055 -0.1139 -0.2265 -0.0744
13273W        W28742   3.963  17.807   0.617  0.1085  0.4014 -0.2001
13274W        W28743   9.641   9.815   4.143  0.2982  0.0601  0.0943
13275W        W28744   5.336   7.781  10.909  0.0232  0.1943 -0.0221
13276W        W28745  18.524   6.149   2.475 -0.1450 -0.2221 -0.0895
13277W        W28746  15.482  11.482  12.589  0.2053 -0.3933 -0.1353
13278W        W28747   6.748   3.111  14.991  0.1108 -0.1505 -0.2728
13279W        W28748   8.371  15.879  15.206 -0.4761  0.3415  0.1849
13280W        W28749   8.692  13.872  15.024  0.1476 -0.0105 -0.1533
13281W        W28750   2.466  13.928   1.719  0.0485 -0.0725 -0.0580
13282W        W28751   8.501   2.326  11.816  0.0703 -0.5110  0.0227
13283W        W28752  17.344   1.783  11.404  0.0837  0.2248  0.1709
13284W        W28753   7.027  17.935   5.227 -0.2221  0.0292  0.1279
13285W        W28754   6.552   8.901  15.044 -0.0833 -0.1163 -0.0016
13286W        W28755   9.172  10.003  10.516  0.1934 -0.1744 -0.2272
13287W        W28756  17.893   0.624   4.056 -0.3086  0.2151  0.2365
13288W        W28757   0.349   6.060   3.687 -0.1176 -0.3850 -0.0539
13289W        W28758   4.877   0.526   4.160 -0.5961  0.0276 -0.0544
13290W        W28759   6.336   4.858  15.303  0.0051 -0.2998 -0.0335
13291W        W28760  13.050  16.346   5.914 -0.0773  0.3029 -0.1381
13292W        W28761  11.651   1.852  13.683 -0.3822  0.0466  0.0699
13293W        W28762   5.492   3.952  11.273 -0.0657  0.0495  0.0213
13294W        W28763   0.033  15.201  15.424  0.1671  0.2004  0.1960
13295W        W28764  13.330  16.770  11.398 -0.0324  0.5251 -0.2305
13296W        W28765   3.500  10.366   3.806 -0.0327 -0.4957  0.0281
13297W        W28766  10.234   7.803   4.288 -0.1252  0.2698  0.0785
13298W        W28767   6.488   1.211  15.414  0.4647  0.1335 -0.0051
13299W        W28768  14.433  14.061  11.391  0.0995 -0.1768 -0.1467
13300W        W28769   1.395   7.457   3.393 -0.0174 -0.0010 -0.0257
13301W        W28770   1.807   9.959   1.363 -0.1445  0.0422 -0.1678
13302W        W28771  14.109   1.967   4.216 -0.0053  0.0126 -0.2244
13303W        W28772  18.334   3.852  12.445  0.0605  0.0973 -0.2304
13304W        W28773   8.617  14.207   2.404 -0.1312 -0.0419  0.0578
13305W        W28774   0.903  18.436   1.339  0.3959  0.1362  0.0174
13306W        W28775   9.500   8.982   5.235 -0.0725  0.0899 -0.1319
13307W        W28776  17.739  10.672   2.806 -0.5086 -0.1072 -0.3335
13308W        W28777  12.338  12.230   2.171 -0.1019  0.1745  0.0246
13309W        W28778   3.185   6.083  12.296  0.0890 -0.1224  0.2378
13310W        W28779   1.574  10.701   3.442 -0.0590 -0.0390 -0.3216
13311W        W28780   4.822  14.469   0.738  0.0503  0.1063 -0.0479
13312W        W28781   4.879  17.398  11.252  0.0363 -0.1466 -0.0189
13313W        W28782  12.723   0.688   2.810  0.1489 -0.0737  0.0675
13314W        W28783   0.884  12.141   1.297  0.1527  0.2012  0.1574
13315W        W28784  15.743  15.817  11.043  0.0635  0.1262  0.5750
13316W        W28785   0.503   6.211  15.252 -0.2311  0.2061 -0.2176
13317W        W28786  18.425  11.452   5.050 -0.2346  0.0020 -0.0659
13318W        W28787   3.484   0.115   4.721 -0.0913 -0.1413 -0.0599
13319W        W28788   9.482   2.359  13.217  0.1787 -0.0209  0.4561
13320W        W28789   3.292   8.496  10.893  0.2128  0.0522 -0.1355
13321W        W28790   1.015   7.884   5.552  0.1688  0.0245 -0.2374
13322W        W28791   2.162   3.840  13.525 -0.2225  0.1271  0.0401
13323W        W28792   4.446  10.966  13.308 -0.3289  0.0782 -0.0667
13324W        W28793   6.692   4.153  15.082 -0.3061  0.2344 -0.0478
13325W        W28794  16.966   0.783   5.797  0.1140 -0.1208  0.2023
13326W        W28795  13.214   9.444  14.278 -0.1417 -0.0397 -0.0584
13327W        W28796  11.299  17.637  15.181  0.1024  0.2805  0.2341
13328W        W28797  18.165  18.395   3.021  0.0676 -0.2247  0.0531
13329W        W28798   6.535   7.198  15.118  0.0182  0.2073  0.2003
13330W        W28799   2.573   5.249  12.587  0.1685 -0.0265  0.0675
13331W        W28800   7.017  18.143   0.573  0.1786  0.0101 -0.1573
13332W        W28801  14.227  17.079  14.610  0.2898 -0.0699  0.0906
13333W        W28802   5.766  16.196  14.713 -0.2307  0.0791  0.1242
13334W        W28803  14.705   9.320   5.270 -0.1359  0.0599  0.0395
13335W        W28804   2.156  16.314  13.370  0.3364 -0.0043  0.1504
13336W        W28805  11.435   8.076   3.025 -0.0750  0.2962 -0.0135
13337W        W28806   7.938   1.293  12.620 -0.1043 -0.3523  0.1454
13338W        W28807   9.010   6.338   1.358 -0.0996 -0.1232 -0.0799
13339W        W28808  11.485   1.566  12.838 -0.0850  0.3721 -0.1351
13340W        W28809  16.649  16.300  13.927 -0.1044 -0.0933  0.0998
13341W        W28810   2.204  13.544  15.049 -0.0095  0.1182 -0.1383
13342W        W28811   6.390   2.895   5.538 -0.7066 -0.0350 -0.0880
13343W        W28812  13.470  10.281   0.287 -0.2635  0.0836  0.3061
13344W        W28813  16.168   5.232   1.156  0.4915  0.3014  0.1149
13345W        W28814   7.308   0.863   5.544 -0.3267 -0.0944 -0.0938
13346W        W28815  13.392  17.578  15.381 -0.1216 -0.0159  0.4121
13347W        W28816  18.699  10.252  12.995  0.2391 -0.2577 -0.0458
13348W        W28817  15.415   0.723   0.381 -0.0372 -0.0191 -0.1424
13349W        W28818  15.119  17.552  10.719  0.1515  0.2093 -0.1010
13350W        W28819   9.537   6.722  15.253 -0.5480 -0.3145  0.2044
13351W        W28820  16.383   3.621  12.340  0.4847  0.1598  0.0913
13352W        W28821  13.817   5.814   2.277  0.1165 -0.1000 -0.5093
13353W        W28822   6.048   6.073  10.725  0.1007 -0.5210  0.0810
13354W        W28823   2.269   7.619   2.921  0.0310 -0.0446  0.0849
13355W        W28824   9.402   2.517   1.477 -0.0959  0.1735 -0.0672
13356W        W28825   8.556  10.777   4.206  0.2935 -0.2668  0.0646
13357W        W28826  12.583  16.908   1.348 -0.1292  0.2316  0.2510
13358W        W28827   4.916   3.440  11.666  0.1831  0.0238 -0.0839
13359W        W28828  14.128   6.042  10.705 -0.0530  0.1492  0.0446
13360W        W28829  16.254   7.508   1.365  0.1786  0.1750  0.3521
13361W        W28830   6.495   3.933  12.027 -0.1997 -0.0997  0.2067
13362W        W28831   3.075  18.339   2.606  0.1034  0.1517 -0.0501
13363W        W28832  17.545  12.556   4.366  0.1779  0.1343 -0.1422
13364W        W28833   8.227   5.184   0.413  0.0596  0.0059 -0.6319
13365W        W28834  17.102  13.943   4.761 -0.2837  0.1011  0.3499
13366W        W28835  10.042   4.464   3.988 -0.0882  0.1606  0.1023
13367W        W28836  18.419  18.036  12.580  0.3285 -0.0186 -0.1218
13368W        W28837  12.521   7.442  11.479  0.2314 -0.0343 -0.0465
13369W        W28838  14.725  10.895   3.861 -0.2566 -0.1595 -0.2390
13370W        W28839  14.910   4.944  12.107  0.1762 -0.0031 -0.2437
13371W        W28840  14.555   8.465   2.259 -0.2860  0.2753  0.0097
13372W        W28841   7.824  10.671  13.770 -0.0024  0.2177  0.0271
13373W        W28842   4.786   3.400   9.415  0.2324  0.1316 -0.2713
13374W        W28843   2.623  17.370   3.548 -0.0287  0.2189  0.0137
13375W        W28844   3.583  16.819  12.038 -0.1821 -0.2928  0.0328
13376W        W28845   2.850  14.327   3.836  0.1398  0.0098  0.0479
13377W        W28846  14.697  13.500  13.265  0.1672  0.2208  0.2786
13378W        W28847   9.146  16.752  11.221 -0.1007  0.2145 -0.0563
13379W        W28848  10.534  15.008   4.943 -0.0055  0.0279  0.1492
13380W        W28849  17.743   1.658  13.882  0.0863 -0.0147  0.1579
13381W        W28850   2.827  14.345   5.968 -0.1200  0.0083 -0.0429
13382W        W28851   4.779   3.547  12.919  0.3790  0.2471 -0.0543
13383W        W28852  17.163  18.272  14.001  0.0927  0.2462  0.2430
13384W        W28853  10.227   1.531   2.241 -0.0904  0.3088 -0.2470
13385W        W28854   1.937  15.863  12.558  0.1233 -0.0702  0.1449
13386W        W28855   5.121  17.691   0.600  0.3658  0.0815 -0.0372
13387W        W28856   3.180   9.842  14.599 -0.0807 -0.1520  0.0882
13388W        W28857  15.943  15.472   3.376  0.1338 -0.1642  0.0643
13389W        W28858   8.892  17.229   2.357  0.0261 -0.4545 -0.0498
13390W        W28859   9.417  11.931  13.754  0.0736  0.1200  0.0030
13391W        W28860  10.088   3.116   1.717  0.4618 -0.3963 -0.2652
13392W        W28861  11.466   7.083   1.772 -0.1322  0.1030 -0.1022
13393W        W28862  11.631  13.377  12.354  0.2917  0.2863 -0.0574
13394W        W28863   0.744  16.520   4.542 -0.2527  0.0481 -0.0115
13395W        W28864   5.138  17.104  11.602 -0.3045  0.0058  0.0026
13396W        W28865   8.150   3.515  15.124  0.3257  0.3068  0.1199
13397W        W28866   8.007   0.870   5.016  0.3494  0.1000  0.2078
13398W        W28867   1.371  18.066   2.243 -0.0382 -0.2469  0.1263
13399W        W28868  12.664  13.520   1.333 -0.2374  0.1083 -0.2300
13400W        W28869   9.212  13.805  13.685 -0.4334  0.3930 -0.0920
13401W        W28870  13.501   7.647  13.921 -0.0415  0.2444 -0.0257
13402W        W28871  12.961  17.666   0.641  0.0062 -0.2341 -0.0873
13403W        W28872  16.273  13.573  14.443  0.0121 -0.3239  0.0292
13404W        W28873  15.952  14.847   2.141  0.2122 -0.0971 -0.2013
13405W        W28874   6.865   2.996   1.664  0.1573 -0.3669  0.0393
13406W        W28875   4.514  18.322  14.349  0.2703  0.3692 -0.0068
13407W        W28876  16.356  14.201  15.305  0.1291 -0.0799  0.2891
13408W        W28877  16.889  16.356   3.231 -0.2123  0.2847 -0.3513
13409W        W28878   4.374   2.262   0.435  0.0673 -0.1118  0.1157
13410W        W28879  10.050  13.036  14.227  0.1956 -0.3176 -0.3086
13411W        W28880   8.055   7.398   3.387  0.2169 -0.1094  0.3888
13412W        W28881   9.214  18.578  13.086  0.1344 -0.1871 -0.1604
13413W        W28882   0.628  10.405   2.785 -0.0026 -0.2708 -0.0232
13414W        W28883   2.551   1.546  12.692  0.0807  0.0788 -0.2560
13415W        W28884   1.591  15.302  14.429  0.1843  0.0932 -0.1860
13416W        W28885   6.824  14.239  14.401  0.1108  0.1047 -0.0224
13417W        W28886  16.740   6.477  11.054 -0.1211 -0.3927  0.0980
13418W        W28887  15.131   8.255  14.002  0.0317  0.2268 -0.0424
13419W        W28888   6.473   6.990  14.513 -0.2630 -0.4075 -0.2397
13420W        W28889  17.885   1.522  10.440 -0.2018 -0.1414  0.0140
13421W        W28890   5.194  12.779   1.699  0.0047  0.0321 -0.3095
13422W        W28891   3.224   6.733  10.771  0.1270 -0.2069 -0.1451
13423W        W28892   7.366   3.127  12.616  0.1783 -0.4236 -0.1084
13424W        W28893   2.982   0.093   5.152 -0.1322 -0.3335 -0.1710
13425W        W28894   9.494  13.011   0.538  0.1281 -0.2873  0.1428
13426W        W28895  17.864   7.361  10.584 -0.1469 -0.0370  0.2131
13427W        W28896   3.936   2.801  13.719 -0.1462 -0.0092 -0.0160
13428W        W28897   6.397  10.956   0.515 -0.0823  0.3511  0.0724
13429W        W28898   7.223   8.900  15.261  0.0702  0.1102 -0.4135
13430W        W28899   7.096   5.254   0.973  0.3011 -0.1718  0.2750
13431W        W28900   3.971  16.356   0.164 -0.1448  0.3182 -0.0874
13432W        W28901  14.675  18.418   1.162  0.2910 -0.3794  0.2189
13433W        W28902   0.253  11.679   2.180  0.0739  0.3687 -0.1331
13434W        W28903  14.074  17.416   1.012 -0.3002 -0.0620  0.1089
13435W        W28904  14.311   6.612  11.936  0.2798 -0.0332 -0.0338
13436W        W28905  14.256   8.655   2.917  0.1046 -0.0994  0.0985
13437W        W28906   4.441   7.508  12.472 -0.0303  0.1461 -0.1747
13438W        W28907  16.542  15.201  15.631 -0.5345 -0.1061  0.0085
13439W        W28908  16.337   5.964  12.868  0.0991 -0.0835  0.1887
13440W        W28909   1.866  12.931   1.532 -0.1149 -0.3954  0.0273
13441W        W28910   6.419   4.523  11.962 -0.0203 -0.0160 -0.0443
13442W        W28911  15.368  11.263   6.191 -0.1835 -0.3629  0.0469
13443W        W28912   2.575  15.206  12.888 -0.0189  0.2502 -0.1740
13444W        W28913   9.818   0.385   0.945  0.2100 -0.2607  0.0035
13445W        W28914  13.009   3.402   4.528 -0.2883  0.3832  0.2018
13446W        W28915  10.664  18.774   2.508  0.1130 -0.4014 -0.2004
13447W        W28916  16.755   7.154  13.543  0.2364 -0.0008  0.2537
13448W        W28917   8.783   8.892   3.910 -0.6066  0.0803  0.0918
13449W        W28918  13.607  16.429   4.477 -0.1372  0.1569 -0.0214
13450W        W28919  13.621   7.589   1.778 -0.2233  0.3100  0.2248
13451W        W28920   0.381  15.971  11.955 -0.1713  0.1734  0.0134
13452W        W28921   4.358  13.623  14.899 -0.0027  0.0200  0.3730
13453W        W28922   5.370   3.549  11.543 -0.4214 -0.4203 -0.3316
13454W        W28923   0.237   7.077   3.511  0.0104  0.1212  0.0146
13455W        W28924   7.378  12.902  11.495 -0.1650 -0.0258  0.3923
13456W        W28925  17.142  13.884   2.783  0.0289  0.0752 -0.2873
13457W        W28926   6.583  16.536  10.688  0.1458  0.1810  0.1873
13458W        W28927  12.134   6.082  10.049  0.0898 -0.0260  0.2000
13459W        W28928  10.311  12.368   0.896  0.3082  0.1817 -0.1710
13460W        W28929  12.944   3.133  11.395  0.3832  0.0593 -0.5644
13461W        W28930   3.168  17.266   0.674 -0.1392 -0.4246 -0.0682
13462W        W28931   3.957  18.688   3.315 -0.0093  0.3105  0.0524
13463W        W28932   1.461   8.158   1.090  0.5371 -0.3236 -0.2231
13464W        W28933   9.555  12.889  15.038  0.1000 -0.0598 -0.1509
13465W        W28934  16.654   1.713  15.228 -0.0931 -0.4841 -0.3249
13466W        W28935  12.591   6.272  14.579  0.0374 -0.0730  0.0248
13467W        W28936   5.619  11.738   1.293 -0.1630  0.0400 -0.2907
13468W        W28937   3.926  17.568   5.372 -0.0613 -0.0432  0.0378
13469W        W28938   1.771   2.348   0.042  0.0872 -0.0251 -0.2833
13470W        W28939  17.313   0.301   1.571  0.0160  0.1027 -0.0197
13471W        W28940  13.848   7.407   4.824  0.4981 -0.0025 -0.3725
13472W        W28941   6.556   0.848  14.690  0.2907  0.1186  0.2990
13473W        W28942  13.609  17.425  13.526 -0.0799 -0.2564 -0.0564
13474W        W28943   1.476  12.924  14.281  0.1036  0.2829  0.0774
13475W        W28944   1.668   3.671  15.217 -0.2063 -0.2214 -0.0088
13476W        W28945   8.641   7.887   2.476  0.0159 -0.1993 -0.2632
13477W        W28946   4.343  17.176   4.771  0.2917  0.1109  0.4325
13478W        W28947   1.607  15.677   1.594 -0.0824  0.1116  0.4800
13479W        W28948   5.086   0.981  14.529  0.0389 -0.2874 -0.1126
13480W        W28949  18.078   9.061  11.930 -0.2415 -0.0019  0.2091
13481W        W28950   2.307   8.934   0.539 -0.2006 -0.0671 -0.2155
13482W        W28951  18.363   6.677   4.018  0.0208  0.2837 -0.3516
13483W        W28952   3.723   0.935   9.557 -0.2354 -0.1208 -0.2094
13484W        W28953   0.595   8.910  13.125  0.1170 -0.0299 -0.1955
13485W        W28954   5.966  13.105  12.657 -0.2192  0.0995  0.0720
13486W        W28955   2.303  11.899   5.547  0.3608 -0.3281  0.2299
13487W        W28956   1.763   8.385  12.713 -0.0156  0.5232 -0.1526
13488W        W28957   3.031  15.491  11.758  0.1064  0.1958 -0.2117
13489W        W28958  17.040   9.450   1.875  0.1462  0.2311 -0.0865
13490W        W28959   0.513   1.630  14.645  0.1890  0.1228  0.2358
13491W        W28960   8.407   7.692   0.429 -0.3346 -0.1254 -0.3592
13492W        W28961   4.559   6.052   4.624 -0.5303 -0.1152 -0.2966
13493W        W28962   6.408  10.550  14.145 -0.1103 -0.4218  0.0728
13494W        W28963  10.494  12.062   0.549  0.0729  0.2613 -0.0402
13495W        W28964  15.845   3.294   3.810  0.2983 -0.0903 -0.0896
13496W        W28965  11.571   9.811  14.841 -0.0069  0.0865 -0.0214
13497W        W28966   1.566   5.682  13.483 -0.0231 -0.0312 -0.2004
13498W        W28967  17.688   8.551   4.105  0.3248  0.3918  0.1762
13499W        W28968  12.606  16.435   4.439  0.0808 -0.1888  0.1692
13500W        W28969   8.604   8.634   1.184 -0.0727  0.1282 -0.0716
13501W        W28970  17.329   8.380   4.343 -0.1417  0.1732  0.1483
13502W        W28971   6.587   5.120   0.938 -0.2030  0.1109 -0.0112
13503W        W28972   4.721  11.113  14.770 -0.2447 -0.3073  0.2329
13504W        W28973   1.270  10.433   4.144  0.0385  0.2046 -0.0407
13505W        W28974   3.510  12.914  13.694 -0.3562  0.1039  0.2910
13506W        W28975  12.933   2.060  13.538  0.1343 -0.2224  0.0303
13507W        W28976   6.500  14.300   5.372  0.4157  0.5017  0.0883
13508W        W28977  10.535   1.325   3.650 -0.1690  0.1527 -0.0413
13509W        W28978   0.123   1.252  13.476  0.0150 -0.2388 -0.1328
13510W        W28979  12.166   6.277   1.313  0.1130  0.2140 -0.1444
13511W        W28980  18.461  18.129  13.527  0.0363 -0.2097 -0.1310
13512W        W28981  17.708  10.383  13.955  0.2618  0.1467 -0.2763
13513W        W28982  10.042  16.386  14.972 -0.2723  0.2468  0.0725
13514W        W28983   7.070   1.047   2.520 -0.0431  0.0623 -0.1417
13515W        W28984   1.474  11.175   4.551  0.1197 -0.0284  0.0068
13516W        W28985  11.010   5.890  14.185 -0.1816 -0.2395 -0.1943
13517W        W28986   4.698   9.403  10.344  0.0800  0.0009  0.5266
13518W        W28987   3.261   2.618  10.486  0.2230 -0.0992 -0.2941
13519W        W28988  17.905   9.171  12.469 -0.1045  0.2681 -0.1669
13520W        W28989   3.727   0.182   2.969  0.1037 -0.0470 -0.1215
13521W        W28990  11.643   7.890  11.798 -0.0988 -0.1052 -0.2480
13522W        W28991  16.305  18.098  15.243 -0.6539 -0.1766 -0.1073
13523W        W28992   8.573  10.652  11.321  0.1623 -0.0946  0.0274
13524W        W28993   5.166   8.655  12.825 -0.0266  0.3693 -0.0489
13525W        W28994   2.621  16.245   5.438  0.1362  0.0903  0.1287
13526W        W28995   0.634   6.647   2.023  0.1181  0.1383 -0.3592
13527W        W28996   9.946  17.503   5.478  0.0976 -0.1545  0.0092
13528W        W28997   5.376   7.760   3.595  0.3378 -0.2620 -0.0338
13529W        W28998   9.331   4.950   2.100  0.1252 -0.0409  0.0090
13530W        W28999  13.733   2.942   1.619  0.2524  0.1105  0.1625
13531W        W29000   3.368   5.463  10.587 -0.0665  0.3083  0.4083
13532W        W29001   9.856  14.901  12.060 -0.1311  0.1709  0.0974
13533W        W29002  12.131  15.386  14.777 -0.2293  0.2485  0.2454
13534W        W29003   7.292   7.398  14.590  0.0938  0.3152 -0.2476
13535W        W29004   4.843  11.909   3.638 -0.0826 -0.0083  0.3024
13536W        W29005  14.529   5.811   3.808 -0.1273  0.4554 -0.1992
13537W        W29006   7.879  14.669  13.724  0.0839  0.2031 -0.0329
13538W        W29007   6.832  10.579  12.331  0.1619  0.1519 -0.1367
13539W        W29008  17.399   4.646  15.018 -0.1730  0.1837 -0.0561
13540W        W29009  15.330   6.235  12.513  0.2264 -0.1584  0.2227
13541W        W29010   8.868  14.143   3.413 -0.2922  0.2194  0.1886
13542W        W29011   4.374   9.791   3.512 -0.0785 -0.1288 -0.1083
13543W        W29012  16.580   5.469  15.091 -0.0442  0.3328  0.0905
13544W        W29013  17.087  17.893  11.727  0.0044 -0.2726  0.0051
13545W        W29014   4.209  12.963   2.619 -0.0170 -0.1475 -0.0444
13546W        W29015   0.076  18.335   4.968  0.3563  0.0258  0.0520
13547W        W29016   0.908   0.001   0.805  0.5047 -0.2518 -0.1400
13548W        W29017   5.009   5.210   1.229  0.0871  0.1369 -0.2997
13549W        W29018  16.214   2.763   1.099  0.3934  0.0024 -0.1693
13550W        W29019  11.392   9.624   1.863 -0.0789 -0.2708 -0.2509
13551W        W29020  17.054   8.729   1.168 -0.0422  0.1827 -0.1024
13552W        W29021  14.353   2.996  15.081  0.0072  0.1486  0.0012
13553W        W29022  15.487   6.174  11.619 -0.1425  0.0873  0.0050
13554W        W29023   6.780   7.451  15.461  0.3236  0.3847  0.1903
13555W        W29024  10.444   2.736  11.308 -0.1137  0.0385  0.0283
13556W        W29025   8.990   7.282  14.942  0.0733  0.2445 -0.1166
13557W        W29026   2.054   6.479   2.186  0.1292 -0.1968 -0.0501
13558W        W29027  16.568  13.420   3.625 -0.2595 -0.0208  0.3454
13559W        W29028  15.126  10.643   5.015  0.1382  0.5705  0.0784
13560W        W29029  11.708   3.787   2.416  0.0314 -0.0467  0.0813
13561W        W29030   2.067   5.286   0.889  0.3854 -0.0219  0.0185
13562W        W29031  12.813   4.792  10.702 -0.0967 -0.4874  0.3020
13563W        W29032  12.303   4.031  13.461 -0.0750  0.0446  0.0679
13564W        W29033  12.346   3.577   5.019 -0.0373  0.2486 -0.1458
13565W        W29034  17.156  16.047   1.688  0.2308 -0.2343  0.3319
13566W        W29035   2.739  18.697   0.047 -0.3673 -0.3199  0.1160
13567W        W29036  12.552   3.207   0.346 -0.0912 -0.0991  0.0611
13568W        W29037  14.195  11.036  15.149 -0.1294  0.1861 -0.1208
13569W        W29038   3.022  14.519  15.395 -0.2552 -0.2175  0.1293
13570W        W29039  12.633  16.708  13.016 -0.0607 -0.1131 -0.1550
13571W        W29040   8.353  13.772  14.656 -0.1513  0.0296 -0.0056
13572W        W29041   4.162  13.662   3.095 -0.3225 -0.0833  0.0257
13573W        W29042   4.706  12.976  13.180 -0.2040  0.1036 -0.1098
13574W        W29043  15.247  11.472  13.087 -0.1463  0.3031 -0.1038
13575W        W29044   2.231   3.515   1.924 -0.0006  0.1646  0.0005
13576W        W29045   0.236   6.354  12.073 -0.0990 -0.0512  0.0852
13577W        W29046   0.613   8.196   0.244 -0.4113  0.1015  0.1018
13578W        W29047  10.539  18.232  11.706 -0.1522 -0.0615 -0.1607
13579W        W29048   7.774   8.090  15.270  0.0867  0.1081  0.1550
13580W        W29049  18.192   8.650   5.794  0.1437  0.2892 -0.0658
13581W        W29050  18.694  15.832  13.706  0.2078 -0.0812 -0.4089
13582W        W29051  10.055  16.653  12.025 -0.0816  0.0757  0.0260
13583W        W29052  10.781  11.577   1.240  0.1841  0.0615 -0.1541
13584W        W29053  17.428  18.114   5.277 -0.1196  0.0325 -0.1962
13585W        W29054   3.879   9.834  11.121 -0.1605  0.3061 -0.0861
13586W        W29055   9.695  13.635  12.696 -0.0513  0.0489  0.1534
13587W        W29056  17.979  18.023  14.166 -0.0272 -0.0657  0.2807
13588W        W29057   9.979   1.884   1.961  0.0380  0.0469  0.1799
13589W        W29058  14.424   9.523   2.247 -0.1663  0.1559  0.0285
13590W        W29059  17.137  11.596   2.081  0.3993  0.1300 -0.0808
13591W        W29060   9.501   8.345  13.931 -0.1193 -0.1753 -0.2877
13592W        W29061   3.015   4.086   1.977  0.1147  0.0709 -0.4518
13593W        W29062  15.878  10.471  11.614  0.1647 -0.0950  0.0810
13594W        W29063  15.526  11.262  15.589  0.1502 -0.4079 -0.2264
13595W        W29064  18.568   3.930  13.501  0.2353  0.1642  0.3606
13596W        W29065   7.915  14.067  14.460 -0.1278  0.0484  0.0154
13597W        W29066  10.893   6.174  12.372 -0.0158 -0.2014 -0.0501
13598W        W29067   7.510   8.289  13.726 -0.0956 -0.7169 -0.2773
13599W        W29068  11.468   5.054  11.238  0.1053  0.2559  0.1200
13600W        W29069   8.485   1.307  15.165 -0.1140 -0.1001 -0.1651
13601W        W29070  14.707  15.160  12.746  0.0392  0.0876  0.3066
13602W        W29071   7.503  15.758  12.220 -0.0781 -0.0805  0.2963
13603W        W29072  15.810  12.282   3.597 -0.2549  0.0025  0.2431
13604W        W29073  12.901  17.253  12.623 -0.2540 -0.1522  0.0960
13605W        W29074   8.360   5.017  14.203 -0.0598  0.0081  0.0169
13606W        W29075   0.013   0.301  14.946  0.1937  0.0189  0.1845
13607W        W29076   0.431  11.018   1.579  0.0659  0.0674 -0.2031
13608W        W29077   9.178   7.144  11.913 -0.2106 -0.0684  0.0328
13609W        W29078  14.225   8.990   0.962  0.0797  0.0807 -0.1148
13610W        W29079  10.296   9.946  12.199 -0.0471 -0.0886  0.2194
13611W        W29080   7.486   9.760  10.536 -0.3344  0.1156 -0.0219
13612W        W29081  18.138   9.700  12.764  0.0949  0.0336 -0.0021
13613W        W29082  12.854  18.737  15.050  0.0179 -0.1854 -0.0436
13614W        W29083  16.479  17.490  10.641 -0.1697 -0.1457 -0.0375
13615W        W29084   3.350   7.089   0.345 -0.4168  0.1144  0.1431
13616W        W29085   5.809  12.383   4.782  0.0422  0.6573  0.2606
13617W        W29086  14.108   7.063  15.618 -0.3220  0.0199 -0.2296
13618W        W29087   6.225  13.139   3.830 -0.1440  0.0547  0.2013
13619W        W29088  14.018   3.344   1.084  0.4447 -0.1011  0.2294
13620W        W29089   0.550   0.609  12.317 -0.0839 -0.1542 -0.0435
13621W        W29090  17.937   8.158  13.864  0.3233  0.2906  0.0177
13622W        W29091   9.932  15.872  14.065 -0.1102  0.1534  0.0264
13623W        W29092  17.259   6.180  12.330 -0.1632 -0.0085 -0.2353
13624W        W29093   8.698   6.576   5.564 -0.2597 -0.0228  0.0795
13625W        W29094   2.956  17.130   1.880  0.1213  0.0137  0.0451
13626W        W29095   6.949   8.766   0.020  0.1193 -0.2629  0.1151
13627W        W29096  14.582  15.323   4.043  0.2935  0.3420 -0.1635
13628W        W29097  18.738  17.528  13.691  0.0429 -0.1178 -0.2789
13629W        W29098   7.137   9.410  15.418  0.3005  0.3230  0.1093
13630W        W29099   2.983  18.524   5.580 -0.2272  0.0081 -0.0247
13631W        W29100  12.291  11.869   1.674  0.0768 -0.0664  0.0724
13632W        W29101  12.008  11.583  14.856  0.1961  0.1513 -0.4734
13633W        W29102   6.386  14.937  13.921 -0.1098 -0.2262  0.0399
13634W        W29103   6.043  15.886  11.752 -0.3635 -0.4778 -0.1508
13635W        W29104   2.847   4.248  15.605 -0.2629  0.2116 -0.0203
13636W        W29105   2.171   2.654  11.528 -0.0528  0.4604 -0.3825
13637W        W29106   5.894  14.940  11.310 -0.1094 -0.0017  0.1680
13638W        W29107  13.946   6.777  12.210  0.2456 -0.2387  0.0668
13639W        W29108  14.501  10.182  11.569 -0.1556 -0.1587  0.0633
13640W        W29109  16.424   0.787   1.294  0.0664  0.1763  0.1429
13641W        W29110   7.787  16.544  11.136  0.0549 -0.2947  0.1845
13642W        W29111   2.747   8.409  13.319 -0.3827  0.0530  0.2186
13643W        W29112   8.380  17.854  14.047  0.1836 -0.0970  0.0732
13644W        W29113  17.920  10.196  11.740 -0.3118 -0.0679  0.1880
13645W        W29114   6.472   6.532   0.853  0.2751 -0.3869 -0.0394
13646W        W29115   4.867  14.698  15.204  0.0060 -0.1002 -0.0912
13647W        W29116  11.151  13.860  12.116 -0.1132 -0.0153 -0.2183
13648W        W29117   9.131  16.059   5.105 -0.0747 -0.1950 -0.0551
13649W        W29118  16.598  11.407   5.189 -0.1359 -0.0749  0.3155
13650W        W29119   0.983   1.679   0.152 -0.3935  0.0285  0.0163
13651W        W29120   6.252  11.037  15.459  0.0123  0.3028  0.0920
13652W        W29121   1.175  16.522   5.731  0.2029  0.0303  0.0627
13653W        W29122   1.360  12.139   4.703 -0.1553  0.0970 -0.0559
13654W        W29123  11.516  12.725   5.401  0.0175  0.3212 -0.0070
13655W        W29124   1.974   4.827  11.713  0.0496 -0.3067  0.0041
13656W        W29125   7.265   6.492   1.954  0.0639 -0.0507 -0.0718
13657W        W29126  13.236  16.799  14.180 -0.4144 -0.0418  0.0608
13658W        W29127  18.341   1.743  12.757 -0.0340 -0.0349 -0.1021
13659W        W29128   5.842  15.045   1.080  0.0443 -0.0584  0.0792
13660W        W29129  16.329   8.588  14.295 -0.1544  0.0099 -0.0421
13661W        W29130  17.906  11.282  12.184 -0.1078 -0.1076 -0.0918
13662W        W29131  13.709   0.357  12.016  0.0687  0.1573  0.1868
13663W        W29132   2.467  12.265  11.047 -0.0039 -0.1626  0.3080
13664W        W29133   9.337  13.237   0.985 -0.0890 -0.0007 -0.1650
13665W        W29134   3.735   1.646   3.032  0.1207  0.3272 -0.0719
13666W        W29135   5.295   0.117   1.933  0.4363  0.0210 -0.0734
13667W        W29136  11.950   5.953  13.864 -0.2823  0.1730  0.0730
13668W        W29137   9.857  12.986   1.851  0.2173 -0.4497  0.0040
13669W        W29138  15.912  12.281   5.491  0.0404  0.1846 -0.2031
13670W        W29139   5.679   6.612  15.037 -0.1275  0.0734  0.1224
13671W        W29140  17.238   4.444   2.148 -0.3858 -0.0532  0.2063
13672W        W29141  17.495  11.066   1.631  0.1170  0.2173 -0.0319
13673W        W29142  16.715  10.223   0.994  0.2723  0.1890 -0.2287
13674W        W29143   3.546   5.591   2.472 -0.0180  0.1467  0.0636
13675W        W29144   1.074   1.039  13.113 -0.4442  0.1295 -0.3717
13676W        W29145  13.686   5.917  12.373 -0.4456  0.0377 -0.4472
13677W        W29146  14.284  17.043  12.748  0.1230 -0.1127  0.0167
13678W        W29147  11.335  13.469  11.434  0.0676 -0.2406 -0.1285
13679W        W29148   6.054  18.398   5.404  0.2491  0.1146 -0.1671
13680W        W29149   4.212   0.485   0.128 -0.5726 -0.0027  0.1303
13681W        W29150   1.250  11.553   1.767  0.0093  0.3324 -0.2493
13682W        W29151  15.445   7.321   2.915  0.1572  0.1489  0.0090
13683W        W29152  12.760   0.583  15.215  0.0750  0.1993  0.3743
13684W        W29153  17.208  10.727   0.125 -0.4648 -0.0374 -0.0895
13685W        W29154   5.534  15.185   1.922 -0.1357  0.1373 -0.2254
13686W        W29155  16.730   7.167   5.530 -0.2115  0.2716 -0.0849
13687W        W29156   9.553   3.559   2.250  0.1735 -0.0871 -0.1961
13688W        W29157   0.744  11.770  14.728 -0.1330  0.2535  0.0385
13689W        W29158  11.216  16.835  15.469  0.2219  0.1226  0.1293
13690W        W29159   6.282   9.522  12.950  0.0365 -0.0465 -0.2118
13691W        W29160  11.354   4.554   3.534 -0.1654  0.0484 -0.1342
13692W        W29161  16.115   9.311  11.756  0.0015 -0.5291 -0.1716
13693W        W29162   2.256  18.318  13.850 -0.0071  0.0574 -0.1343
13694W        W29163   6.083  17.887   1.992 -0.1987 -0.0758 -0.0661
13695W        W29164  10.941  10.396   3.805  0.2235 -0.0038 -0.0851
13696W        W29165  11.352  18.285   2.233  0.0999  0.0961 -0.1845
13697W        W29166   6.882  18.689   3.608  0.2000  0.0171  0.1573
13698W        W29167  14.052   3.426  14.837 -0.2887  0.1173  0.1598
13699W        W29168   9.274  13.394   2.443  0.2786  0.0782  0.3421
13700W        W29169  17.863  13.767  14.986  0.1987 -0.1278 -0.2572
13701W        W29170   0.170  16.923  10.594  0.2742  0.0605 -0.4225
13702W        W29171  16.011  16.464   5.792  0.0256  0.0894 -0.1671
13703W        W29172   9.299   6.249   4.487 -0.2792  0.1741 -0.0016
13704W        W29173   9.572  15.090  11.585 -0.0078 -0.1237 -0.0958
13705W        W29174  13.354  15.472  14.209  0.0910  0.4697 -0.1548
13706W        W29175   2.320  13.114  11.335  0.0502 -0.0297  0.1610
13707W        W29176   0.785  12.649   4.222  0.2736 -0.1419 -0.0291
13708W        W29177   7.725  11.279  10.527  0.0526 -0.1380  0.0824
13709W        W29178   2.685   3.464  12.226  0.1459 -0.2054 -0.3191
13710W        W29179   4.776   4.725   3.301 -0.1457 -0.1339 -0.1955
13711W        W29180   6.135   6.555  12.308  0.0561  0.0206  0.1039
13712W        W29181   9.396  15.751  14.195 -0.4282 -0.0613 -0.1038
13713W        W29182  15.755   2.279   2.874  0.0572  0.0243 -0.2052
13714W        W29183  13.324   2.717  11.400 -0.1716 -0.0416 -0.3630
13715W        W29184  17.358   8.020   0.012  0.2631 -0.3387 -0.1701
13716W        W29185  17.860   8.774   1.726 -0.0715  0.1633  0.1465
13717W        W29186   8.934   0.582   0.910  0.2335 -0.0901 -0.3981
13718W        W29187  13.966   0.888  11.125  0.0703 -0.0673 -0.0724
13719W        W29188  16.511   6.857  13.280 -0.0189 -0.2425 -0.0932
13720W        W29189   3.758   1.495  12.614 -0.0945  0.2204 -0.3556
13721W        W29190   5.342   0.811   2.594 -0.0827 -0.0699 -0.4441
13722W        W29191   4.785   6.968  14.818 -0.0003 -0.2235  0.1279
13723W        W29192   3.595  12.992  12.140 -0.1401  0.2955 -0.1846
13724W        W29193  12.653   7.799  14.580  0.0917 -0.3739  0.1038
13725W        W29194   5.321  16.438   4.575  0.3727  0.1914  0.2901
13726W        W29195  12.169  17.745  12.128  0.0298  0.0943  0.0099
13727W        W29196  12.863   0.216  13.868 -0.0291 -0.1279  0.1973
13728W        W29197   3.287  12.174  10.883  0.1029  0.2777 -0.2939
13729W        W29198  18.309  13.904  13.519 -0.4486 -0.1839 -0.0938
13730W        W29199  12.264   0.244   3.514 -0.0715 -0.0627 -0.3668
13731W        W29200  13.224   9.680   2.347 -0.2149 -0.0486 -0.0265
13732W        W29201  16.836  16.925  13.357  0.0703  0.2277  0.0642
13733W        W29202  15.782   9.803   2.441  0.0147  0.1847 -0.2193
13734W        W29203   0.540   4.886   3.972 -0.0172  0.3506  0.0017
13735W        W29204  13.035   0.375  11.744 -0.1137 -0.0926  0.0249
13736W        W29205   3.673   5.925  14.106  0.0800  0.1423 -0.0793
13737W        W29206  15.946   4.017   0.095 -0.0541 -0.1906  0.0765
13738W        W29207   7.548  16.351   2.212 -0.3362 -0.1004 -0.0576
13739W        W29208   2.877  18.195  12.905 -0.0055  0.1060 -0.1203
13740W        W29209  10.593  17.512   2.996 -0.0236 -0.4100  0.0928
13741W        W29210   7.388  17.189   5.628  0.0459 -0.3475  0.1939
13742W        W29211   5.619  10.830   3.259  0.0701  0.1341 -0.2410
13743W        W29212  15.193  10.830   4.155 -0.0181 -0.0355  0.1453
13744W        W29213  14.212  18.396   1.463  0.1334 -0.1125  0.0025
13745W        W29214   8.578   4.491  10.600  0.1813  0.0637 -0.0846
13746W        W29215  13.235   9.722   4.350  0.2228 -0.3123  0.3176
13747W        W29216  17.477  13.384  15.109  0.2418  0.1940  0.0698
13748W        W29217   2.102  15.084  13.090  0.0010  0.3199  0.1545
13749W        W29218   8.640   9.898  12.659 -0.1921 -0.1914 -0.1478
13750W        W29219   0.319  10.252   5.721  0.0740  0.4326  0.1007
13751W        W29220   4.179  15.951   4.366 -0.2008 -0.1520 -0.2309
13752W        W29221   7.384  12.844   4.428 -0.0588 -0.0990  0.1617
13753W        W29222  17.880   6.871  11.228  0.1386  0.1265 -0.1014
13754W        W29223   1.474  18.229   2.751 -0.4167 -0.1818 -0.0250
13755W        W29224  13.797  13.253  12.085 -0.2211 -0.2515  0.2918
13756W        W29225   7.304   3.719   2.792 -0.0545  0.1995  0.0006
13757W        W29226   1.688  14.731   0.314  0.1183 -0.0144 -0.1005
13758W        W29227  13.818   1.181  12.539  0.2047  0.0852 -0.0602
13759W        W29228   8.022   5.210   6.112  0.1354  0.0055 -0.1801
13760W        W29229   9.076   3.493   1.911 -0.0938  0.2935 -0.0814
13761W        W29230   6.028   2.612   2.319  0.0191 -0.1715 -0.0885
13762W        W29231   2.462  10.297   4.356  0.1388 -0.3735  0.2478
13763W        W29232   0.169   0.222  13.947 -0.0729  0.0865 -0.1911
13764W        W29233   0.043   1.280  11.335 -0.0068 -0.0887  0.2412
13765W        W29234  15.606   4.996  14.160  0.0573 -0.1772 -0.1892
13766W        W29235   1.227  14.581  12.074  0.1447 -0.0976  0.1293
13767W        W29236  13.626  14.103   2.646  0.0606 -0.1001 -0.0129
13768W        W29237  15.649  13.904  13.034  0.0708 -0.0097 -0.0318
13769W        W29238   5.123   2.567  14.340  0.0480  0.4360  0.0131
13770W        W29239   8.430   3.571   1.953 -0.2794 -0.0564  0.0928
13771W        W29240   8.220   4.396  13.524  0.2683  0.0362 -0.4187
13772W        W29241  16.358  18.445   5.051 -0.3062 -0.0257 -0.1251
13773W        W29242   4.708  16.212   0.589 -0.1162 -0.1428  0.0859
13774W        W29243  15.217   3.215  13.699 -0.1302 -0.3393  0.0770
13775W        W29244  12.202   9.169  12.242  0.0062 -0.1003  0.3040
13776W        W29245  18.079  16.900   4.288  0.2086  0.0213  0.1284
13777W        W29246   9.274   9.118  13.482 -0.0792  0.2486  0.0942
13778W        W29247   5.375   4.914  13.653  0.1490  0.1744  0.2338
13779W        W29248  16.015   3.832   3.652 -0.2690  0.2560 -0.1757
13780W        W29249  13.501  11.764   4.073 -0.1427  0.1424 -0.3711
13781W        W29250  14.988  10.893   5.445 -0.1554 -0.3581  0.0982
13782W        W29251  12.159  17.926  14.923 -0.2517 -0.1435  0.0389
13783W        W29252  14.303  12.065   3.657 -0.0124  0.3320 -0.1810
13784W        W29253   9.731  12.173   2.328 -0.6260 -0.2003  0.2273
13785W        W29254   5.718  16.595   3.750 -0.2125 -0.1674  0.0706
13786W        W29255   1.298  11.851   3.822 -0.2769  0.1349 -0.4432
13787W        W29256   1.718   2.963   2.434 -0.4273 -0.2180  0.3353
13788W        W29257  16.658   8.074   3.078  0.0094  0.3177 -0.1669
13789W        W29258  14.697   3.136   4.864 -0.2293  0.2737  0.0173
13790W        W29259  13.754   6.464   4.221 -0.2762 -0.0628 -0.0302
13791W        W29260  13.588   9.685  15.250  0.1352 -0.0220 -0.1244
13792W        W29261   4.699   2.551  13.546  0.1608  0.2105  0.0456
13793W        W29262  16.034   7.252  14.781 -0.1297  0.2649  0.0757
13794W        W29263  15.046   6.023   0.371  0.2410  0.2992  0.0621
13795W        W29264  12.833  11.903  10.337 -0.0351  0.2375 -0.1485
13796W        W29265  16.713  14.497  14.736 -0.0617 -0.0794 -0.0214
13797W        W29266   6.062  11.781  11.021  0.2576 -0.1566  0.0590
13798W        W29267   9.221  10.112   1.669 -0.1452 -0.2190  0.1501
13799W        W29268   1.668   5.851   0.180 -0.0992 -0.2999 -0.0969
13800W        W29269   2.325  17.733  14.755  0.1507 -0.1240 -0.1124
13801W        W29270   1.128   6.007  14.503  0.1519 -0.0646 -0.0234
13802W        W29271   4.152  16.696  12.875  0.1618 -0.2260 -0.4127
13803W        W29272   9.699  13.171   2.623 -0.2337  0.3761 -0.2500
13804W        W29273   7.612   9.602  14.010 -0.0748  0.0855  0.4556
13805W        W29274  11.049   5.340   3.995  0.2240 -0.1077 -0.0679
13806W        W29275  14.033  14.529   0.251 -0.0185  0.1559  0.1272
13807W        W29276  10.472   1.022  14.207 -0.0183  0.0524 -0.1093
13808W        W29277   1.936   4.786   3.844  0.0935  0.2968  0.1053
13809W        W29278  10.135   3.074   1.142 -0.0510 -0.0510 -0.2135
13810W        W29279  18.361   2.046   4.631  0.2157  0.2851 -0.2467
13811W        W29280  15.983  11.494  12.571 -0.4416  0.1073  0.0752
13812W        W29281  14.600   5.909   0.611 -0.0053  0.2014  0.2167
13813W        W29282   4.561  11.844   2.269 -0.2637 -0.0011  0.0985
13814W        W29283  13.957   8.555   4.177  0.0366  0.2188  0.0205
13815W        W29284  11.801   4.827   3.727  0.0625  0.4477  0.3402
13816W        W29285  15.035  15.969  13.032 -0.3064  0.0251 -0.3184
13817W        W29286  14.532   0.321  12.928 -0.0032  0.1227  0.3068
13818W        W29287   6.688   1.893  12.562  0.0477 -0.2797  0.0876
13819W        W29288   7.968   6.151   2.183 -0.2705 -0.0090 -0.1387
13820W        W29289  14.732   1.963   0.517  0.1160  0.3752 -0.0227
13821W        W29290   3.755   6.836   4.124 -0.0859  0.2117  0.2492
13822W        W29291  18.062   8.873   4.569  0.1247  0.0629  0.1594
13823W        W29292  18.016  13.271   6.237 -0.1297  0.0961 -0.2003
13824W        W29293  16.927  16.915  11.786  0.0812  0.0665 -0.2499
13825W        W29294  17.580   1.805  12.790  0.4693  0.2511  0.0037
13826W        W29295   3.532   4.845   1.057  0.1303  0.0208 -0.0033
13827W        W29296   6.132  18.159   0.455  0.1620 -0.3012 -0.0925
13828W        W29297  10.787  13.621   5.591 -0.2512  0.0701  0.4322
13829W        W29298   9.681  10.879   0.499 -0.1029 -0.0042 -0.0129
13830W        W29299   5.241   9.878  11.954  0.0150 -0.2087  0.2451
13831W        W29300  15.039  11.870   5.021 -0.0520  0.0870  0.2843
13832W        W29301   5.249   5.912   3.716  0.1148 -0.0216 -0.2316
13833W        W29302   7.724  17.049  11.224 -0.2498  0.0606 -0.0106
13834W        W29303   0.922  17.584  15.671 -0.1028  0.0173 -0.0975
13835W        W29304   1.216  14.547  13.393 -0.2741 -0.2547  0.1466
13836W        W29305  14.492   8.214   1.796 -0.1114 -0.0346 -0.2195
13837W        W29306  16.792   0.496   0.995  0.0076  0.1162  0.0290
13838W        W29307   5.481   3.448   2.933 -0.0835 -0.3074  0.1622
13839W        W29308   1.469  17.101  11.267  0.1669  0.1103  0.0171
13840W        W29309   9.593  16.816   2.309 -0.1485 -0.0262 -0.3735
13841W        W29310  11.968   1.570   5.150 -0.3496  0.0947  0.1896
13842W        W29311   2.368   8.774   2.328  0.0215 -0.0619  0.2698
13843W        W29312   7.460   9.940   1.629  0.0909 -0.2508 -0.0732
13844W        W29313  10.785   9.501  12.797  0.4952 -0.1974  0.0665
13845W        W29314   4.506   0.017  14.460 -0.4513  0.2086  0.3861
13846W        W29315  11.673  16.334  12.471 -0.3562  0.2769  0.3395
13847W        W29316   6.525   5.685   2.716 -0.1039 -0.1066 -0.1086
13848W        W29317  13.771   7.005  12.934  0.4134  0.0052  0.2435
13849W        W29318   9.927   6.731  12.326 -0.0424  0.1754 -0.1661
13850W        W29319   2.658  16.349  15.347  0.1448  0.1364 -0.1459
13851W        W29320  14.155  15.407   2.159 -0.1347  0.1834 -0.3544
13852W        W29321  10.700  16.004   0.188  0.0838 -0.1286  0.2074
13853W        W29322  11.374   0.378   0.244  0.1388  0.4011 -0.2555
13854W        W29323  14.989   7.132  13.283 -0.0125  0.0109 -0.2909
13855W        W29324   1.436  15.509   4.337 -0.1651  0.0531  0.0222
13856W        W29325  15.814  15.884   0.035  0.2498 -0.0666  0.3021
13857W        W29326   2.243  17.145  12.383 -0.0406 -0.3668  0.2614
13858W        W29327   7.094   6.651   0.092  0.0965  0.0240 -0.1128
13859W        W29328  16.063   7.425   2.474 -0.0150 -0.0082 -0.3127
13860W        W29329   9.068  11.790  11.508 -0.1858  0.3106  0.3806
13861W        W29330   6.111  18.418   3.256 -0.0040 -0.0064  0.0121
13862W        W29331  10.563  16.584  12.580  0.1385  0.1154  0.1417
13863W        W29332   0.700  16.696  11.728 -0.0711  0.0772  0.2789
13864W        W29333  16.730  18.275   9.987 -0.0658 -0.0950 -0.0957
13865W        W29334  10.707  13.701  15.002  0.0879 -0.1968  0.0838
13866W        W29335   0.767   1.900   3.892 -0.0955  0.0724  0.2310
13867W        W29336  13.973  18.128   1.825 -0.0018  0.3112  0.3168
13868W        W29337  11.621  16.649   3.654 -0.0075 -0.0960 -0.1130
13869W        W29338   2.042  15.576  14.909 -0.3468  0.0820 -0.0682
13870W        W29339  11.310   7.909   2.007 -0.2227  0.0990  0.1438
13871W        W29340   1.035  14.109   6.403  0.1902 -0.2395 -0.2568
13872W        W29341  12.323  12.337  10.957 -0.2909 -0.0107  0.0403
13873W        W29342  13.496   2.533   2.552 -0.0904 -0.1841  0.1251
13874W        W29343   3.354  18.376   5.287  0.0241 -0.2614 -0.0410
13875W        W29344  11.699  14.128  13.403  0.5775 -0.0102  0.0598
13876W        W29345  17.155   2.008   1.425 -0.0831  0.1042 -0.2118
13877W        W29346   8.668  13.496  10.773 -0.2165  0.1029  0.2661
13878W        W29347   2.938   3.164   1.684 -0.2129  0.1374 -0.2948
13879W        W29348   0.575  12.717  12.797 -0.3072 -0.0553 -0.1883
13880W        W29349   9.516  13.386  10.571 -0.0866 -0.1707 -0.0030
13881W        W29350  10.830  17.486   5.372 -0.0516  0.1781 -0.2069
13882W        W29351  17.156   4.504   0.599 -0.3336 -0.0083  0.1727
13883W        W29352  14.616  12.279   4.360 -0.0198  0.0042 -0.0046
13884W        W29353  18.525  11.876   5.357  0.1425 -0.2199 -0.1347
13885W        W29354   4.499   2.452  14.733  0.0831 -0.0191  0.2577
13886W        W29355  18.101   7.299  11.026  0.1186  0.2914  0.1256
13887W        W29356   7.066   1.983   0.791 -0.1820 -0.0641 -0.1988
13888W        W29357   0.730   2.022  12.336 -0.1923  0.0191  0.1889
13889W        W29358  14.333  14.513  14.324  0.1103 -0.1282  0.1676
13890W        W29359   4.130   1.732   1.713  0.0136 -0.1820 -0.0327
13891W        W29360   3.124   1.516  10.367  0.0842  0.0564 -0.2235
13892W        W29361  18.461   2.230  14.460  0.1431 -0.0959 -0.1081
13893W        W29362  10.866  15.470   1.062  0.0746 -0.1158 -0.1085
13894W        W29363  13.200   0.411   4.670  0.3004 -0.0123  0.1006
13895W        W29364  16.831   1.869  13.239  0.5038  0.3095 -0.2501
13896W        W29365  15.628   0.037  10.800 -0.4075 -0.1569  0.2451
13897W        W29366  11.349  16.484   0.192  0.0563 -0.0267 -0.1185
13898W        W29367   3.328   8.199   1.770 -0.2787  0.0434 -0.3907
13899W        W29368  15.202  10.642  15.074 -0.1001  0.2541 -0.1043
13900W        W29369   3.055   4.014  10.667 -0.0913  0.2343 -0.2984
13901W        W29370  16.296   0.526   2.666  0.0560 -0.0164 -0.1562
13902W        W29371   4.644   7.852   0.982 -0.1248 -0.0384 -0.2032
13903W        W29372  15.714  14.731  10.013  0.3325 -0.0694 -0.0311
13904W        W29373  17.308   6.227   4.123  0.0257 -0.0788  0.0269
13905W        W29374   5.093  17.595  14.657  0.0107  0.2489  0.0556
13906W        W29375   3.153  11.446  13.606 -0.1421 -0.1645 -0.4091
13907W        W29376  11.672   0.682   4.462  0.1376 -0.1730  0.1708
13908W        W29377  12.045   8.849  13.162  0.0048  0.0717  0.2618
13909W        W29378  11.959   5.659   4.025 -0.2742  0.1381  0.0744
13910W        W29379  10.069  13.554   2.676 -0.0874 -0.0171  0.1303
13911W        W29380   6.505   1.305  11.066 -0.3180 -0.1540 -0.2800
13912W        W29381   0.265  16.303   4.474 -0.2336 -0.2531  0.0521
13913W        W29382  18.682   0.279   1.400  0.1641 -0.1797  0.6528
13914W        W29383  13.893   8.509  11.124  0.1584 -0.0877 -0.0821
13915W        W29384  13.413   7.683  11.967  0.0921  0.3751 -0.1986
13916W        W29385  10.673  15.126  13.689 -0.2373  0.3863 -0.1150
13917W        W29386  14.709  15.727   3.670  0.1286  0.1425  0.3650
13918W        W29387   0.059  16.783  12.101 -0.0501 -0.0570 -0.2944
13919W        W29388   6.545  17.458   4.385  0.1429  0.0792 -0.0365
13920W        W29389  17.356  16.777  11.914 -0.3100 -0.0645  0.2236
13921W        W29390   4.685   7.757  13.395 -0.1733  0.1338  0.2288
13922W        W29391   4.623   5.305   3.487 -0.1623  0.0530 -0.0219
13923W        W29392   8.523   5.394  13.901 -0.2938 -0.0601  0.0676
13924W        W29393  15.524   4.184   3.864 -0.0643 -0.2701  0.1995
13925W        W29394  11.237  13.487  12.946  0.0040 -0.0465 -0.0401
13926W        W29395  12.289  16.919  11.146  0.1186 -0.1664 -0.2445
13927W        W29396  13.943  14.439   2.307 -0.0095 -0.2870 -0.0741
13928W        W29397  11.176   9.698  12.660  0.1598 -0.1064  0.1461
13929W        W29398   6.614   7.135   2.549  0.1700 -0.3238 -0.1173
13930W        W29399   5.379  10.578   0.790  0.2538 -0.1934 -0.0346
13931W        W29400  14.097  17.237   2.734  0.0979  0.3006 -0.0137
13932W        W29401  12.996   9.174   1.541 -0.0841 -0.2706  0.2741
13933W        W29402  18.155   9.982   1.058  0.0114  0.1187 -0.0876
13934W        W29403  11.030   0.396   2.324 -0.1300 -0.2633  0.3472
13935W        W29404   8.727  16.536   2.403 -0.3900  0.0597  0.2984
13936W        W29405  15.940   7.526  13.556 -0.0186 -0.1612 -0.0117
13937W        W29406  16.665   7.551   5.165  0.1132  0.1675 -0.0715
13938W        W29407  11.016  12.303  11.755  0.2188  0.1133  0.0976
13939W        W29408   0.776   0.449   0.869 -0.3489  0.0145  0.0439
13940W        W29409   1.567  14.746  15.299 -0.0261  0.1924 -0.0112
13941W        W29410  12.733  17.148   5.027 -0.2651 -0.0008  0.2947
13942W        W29411   0.788   3.577   1.370 -0.2066 -0.1986  0.4148
13943W        W29412  17.517   0.411   0.471  0.1321 -0.0648  0.3144
13944W        W29413  12.538  17.472  11.183 -0.1212 -0.1662  0.0421
13945W        W29414  15.788   7.021   3.904 -0.1803 -0.2466 -0.2968
13946W        W29415  11.246  11.486  14.233 -0.0584 -0.2526  0.0522
13947W        W29416   0.630   7.118   3.213 -0.1547  0.3165 -0.2521
13948W        W29417   2.030  12.058  11.349 -0.1452 -0.2273 -0.0259
13949W        W29418  14.466   3.838  12.412  0.0680 -0.0538  0.0567
13950W        W29419   1.017   4.324   0.178  0.1023 -0.3927  0.1504
13951W        W29420  13.281   4.102   1.583 -0.0607 -0.0934 -0.1425
13952W        W29421   6.943  17.440  13.745 -0.0846 -0.1700  0.2407
13953W        W29422  11.456  15.444  13.973 -0.0755  0.5914 -0.0812
13954W        W29423   0.071  13.709  11.646 -0.1154 -0.0104 -0.0024
13955W        W29424  18.029   5.208   0.262  0.1224  0.2140 -0.1612
13956W        W29425  18.374  11.545  13.204  0.1255 -0.0458 -0.0246
13957W        W29426  15.479   2.261  12.748 -0.0967 -0.0531 -0.0245
13958W        W29427  18.653   2.558   4.600  0.1752  0.0175  0.2900
13959W        W29428  17.017  10.594   2.213  0.3079 -0.0180 -0.0943
13960W        W29429  14.874  16.606   1.810 -0.3158  0.0814 -0.1482
13961W        W29430   5.086   5.699   0.116  0.3842 -0.0597 -0.2875
13962W        W29431  12.243  11.300   1.314 -0.2982  0.2240 -0.3502
13963W        W29432   8.696   4.454  12.710 -0.2128  0.0311  0.3115
13964W        W29433   3.336  11.633   5.011  0.1940  0.2128 -0.0576
13965W        W29434  10.155   2.479   9.662  0.0222 -0.0094 -0.1199
13966W        W29435   4.875   8.582  12.410  0.1311  0.1186 -0.0654
13967W        W29436   9.447  17.785   3.029 -0.0812  0.3240  0.0786
13968W        W29437  17.801  18.230  11.869  0.2152 -0.3154  0.0857
13969W        W29438   4.494  13.840   2.203  0.1823 -0.1358  0.3191
13970W        W29439  15.042   0.983  13.368 -0.0124  0.0349 -0.4813
13971W        W29440  14.235   2.136  11.144  0.1691 -0.0345  0.2277
13972W        W29441  11.551   4.394  12.010 -0.0009  0.0530  0.2230
13973W        W29442  14.896   7.219  12.257 -0.0268  0.1151  0.0637
13974W        W29443  13.256   1.458   1.114  0.2574  0.0981 -0.3603
13975W        W29444   1.777   8.247   1.468  0.1101  0.1942 -0.0368
13976W        W29445   6.498   9.157  12.717  0.0376  0.0792  0.1221
13977W        W29446  10.431   9.222  15.006  0.1369 -0.0681  0.3475
13978W        W29447   6.023   8.251   2.087 -0.1434  0.3532  0.0286
13979W        W29448  11.985  12.162  15.027  0.0488 -0.3042 -0.2198
13980W        W29449  14.536  15.906   0.528 -0.0455 -0.2251  0.1135
13981W        W29450  12.920   3.672  14.060  0.2934 -0.0265  0.0984
13982W        W29451   0.344  16.942   4.663 -0.1942 -0.1518  0.1956
13983W        W29452   2.116   6.305  13.694 -0.0855  0.0403 -0.1351
13984W        W29453  17.925  14.892   5.652  0.2095 -0.1163  0.0317
13985W        W29454   0.196  14.715   1.422  0.0121  0.0199  0.0755
13986W        W29455  18.650  16.779  15.024  0.1326  0.1875 -0.2024
13987W        W29456   4.875  11.686   1.915 -0.0118  0.0017  0.0180
13988W        W29457   8.083   6.476  13.006 -0.1160  0.0962 -0.0214
13989W        W29458  16.911   2.598  15.379 -0.2444 -0.0913  0.0045
13990W        W29459   6.200   5.918  12.252  0.0478 -0.2186 -0.0099
13991W        W29460  18.295   4.447   1.288  0.3886 -0.0992 -0.2776
13992W        W29461   4.279   3.496   1.286 -0.1989  0.1370  0.2471
13993W        W29462   7.892   2.967  11.459 -0.0174 -0.0360  0.2554
13994W        W29463  13.410  13.402   4.285 -0.0733 -0.0812  0.0934
13995W        W29464   3.775   9.276  11.970 -0.0094 -0.1916 -0.0477
13996W        W29465   5.465   1.430  10.784  0.4788 -0.1380  0.0335
13997W        W29466  14.910   1.679   1.288  0.1204  0.1960 -0.0700
13998W        W29467  15.035  11.198  14.702 -0.2514  0.4194  0.0112
13999W        W29468  11.380   3.576   0.268 -0.0745  0.1064  0.4381
14000W        W29469  15.097   4.607  12.472 -0.0611 -0.0693 -0.1208
14001W        W29470  13.066   7.257  12.034  0.4138  0.1491 -0.1680
14002W        W29471  16.339  11.972   0.318 -0.1424  0.0575  0.0334
14003W        W29472  11.887  11.934   3.404  0.0676  0.0899 -0.0708
14004W        W29473   0.372   6.122   5.330 -0.1423 -0.0548  0.1087
14005W        W29474  11.819   2.543   3.607  0.0640  0.0345  0.2943
14006W        W29475  13.728  18.319  15.108  0.3050 -0.1168 -0.0249
14007W        W29476   4.285   9.476  11.933  0.0764 -0.0169  0.3232
14008W        W29477   6.932  13.128   1.080 -0.0103 -0.1761 -0.2738
14009W        W29478  10.922  11.081  14.258  0.0344  0.2801 -0.3647
14010W        W29479   3.445  12.203   3.653  0.3664 -0.2831 -0.0386
14011W        W29480  16.633  13.164   2.142  0.0295  0.1077  0.0093
14012W        W29481   3.468  16.831   4.857  0.0447  0.0040 -0.0618
14013W        W29482  13.953  13.881   4.097 -0.0275  0.1805  0.1210
14014W        W29483  10.132  14.054  10.632  0.0197 -0.1331  0.2136
14015W        W29484   7.785   9.677  14.435 -0.1561  0.1420 -0.3661
14016W        W29485  16.252  10.435   0.665  0.5404  0.1566  0.2012
14017W        W29486   0.793   4.781   0.254  0.0677 -0.0163 -0.1057
14018W        W29487  11.792   8.893   0.090  0.2624 -0.1052  0.3715
14019W        W29488  17.364  12.237   2.738  0.0489  0.2188  0.0682
14020W        W29489  10.722   8.965   3.950 -0.1869 -0.1746 -0.3381
14021W        W29490  15.748   7.457   1.369  0.0756  0.4123  0.0991
14022W        W29491  13.508   3.944  11.821 -0.0779 -0.2005  0.1540
14023W        W29492   7.025  16.697   2.982  0.0658 -0.2424  0.1248
14024W        W29493  11.918  14.224  11.336  0.2258 -0.3245 -0.1332
14025W        W29494   4.306  15.223  14.029 -0.2679  0.1460 -0.0735
14026W        W29495   4.269  14.281  12.203  0.0085 -0.1431  0.0295
14027W        W29496  17.467  18.369  13.585  0.0099 -0.0629 -0.1032
14028W        W29497  17.495   6.161  11.294 -0.0516  0.1491 -0.2997
14029W        W29498  10.427   3.935  14.558  0.4071  0.1109 -0.1740
14030W        W29499   5.164  16.831   4.993  0.0811 -0.0303 -0.0296
14031W        W29500  15.966  10.884  12.232 -0.0003 -0.0288 -0.0398
14032W        W29501  18.585   6.107  12.263  0.0782 -0.0538 -0.2131
14033W        W29502  17.696   5.924  13.341  0.0417  0.3265 -0.2008
14034W        W29503   2.177   5.185  11.280 -0.2524  0.2034 -0.0570
14035W        W29504   6.387   9.763   4.476  0.3818 -0.2793  0.2282
14036W        W29505  11.354   4.653  15.236  0.1048 -0.1479 -0.1626
14037W        W29506   1.260   9.718  13.240 -0.3626 -0.1074 -0.1783
14038W        W29507   3.591  18.425   0.298 -0.1112  0.1676 -0.0146
14039W        W29508   2.646   2.528  14.141  0.1575  0.1476  0.1677
14040W        W29509  15.983   9.643  10.943 -0.1056  0.1869 -0.0041
14041W        W29510   8.898  10.806   0.988 -0.2242  0.0182 -0.2475
14042W        W29511  14.282  10.203  14.178 -0.3135 -0.2153  0.0769
14043W        W29512   5.255  10.672  10.884  0.0855  0.0194  0.2779
14044W        W29513   5.273  10.331  11.717  0.1968  0.0988 -0.0859
14045W        W29514   9.312  11.081  12.313  0.2749  0.1433 -0.1339
14046W        W29515  10.151  13.911   3.508 -0.0429  0.1403  0.1011
14047W        W29516   8.293  10.306   1.399 -0.2054  0.2046 -0.1171
14048W        W29517   8.651   4.618  10.090  0.0465  0.0459  0.0664
14049W        W29518  15.953  18.701   1.505 -0.0270 -0.3196  0.4292
14050W        W29519  17.512  12.714  14.023  0.1473 -0.1467 -0.2214
14051W        W29520   2.330  14.533   5.913  0.1104  0.1869 -0.4251
14052W        W29521  17.154  10.270   4.938  0.3301 -0.3709  0.2421
14053W        W29522  13.114  17.194  11.626 -0.0797  0.4398  0.0006
14054W        W29523  12.378  17.163  14.030 -0.2136  0.2247 -0.1338
14055W        W29524   9.026   0.395   4.845  0.0942 -0.2167 -0.0316
14056W        W29525   4.876  11.741  13.372 -0.0085 -0.0571 -0.2611
14057W        W29526  10.085  14.561  13.390  0.0720  0.1609 -0.3072
14058W        W29527  15.853  16.434   2.067  0.0872  0.2822  0.1221
14059W        W29528   2.075  15.433   2.782  0.1391  0.1917 -0.2428
14060W        W29529   6.011  14.801  14.212  0.0392 -0.2632 -0.2617
14061W        W29530  17.546  10.621   4.201 -0.0878  0.0270 -0.1583
14062W        W29531   3.789   3.452  10.183 -0.1282 -0.3088 -0.4065
14063W        W29532  11.858  16.921   5.058  0.1761  0.0626  0.1111
14064W        W29533   1.185   1.711  11.099 -0.0364  0.0489  0.0159
14065W        W29534  13.775  15.099  14.002 -0.0657 -0.0855 -0.1874
14066W        W29535  14.526  12.433   5.141 -0.1163 -0.0334  0.2552
14067W        W29536   5.438  14.929   3.253  0.0659 -0.1646  0.1484
14068W        W29537   5.936   4.365   0.483 -0.1205  0.2528 -0.1561
14069W        W29538  13.923   1.783  10.933 -0.2876 -0.3976 -0.2517
14070W        W29539   5.186  18.770  14.570  0.2442 -0.2301  0.1007
14071W        W29540  13.549   4.113  13.340  0.4084  0.0218  0.1825
14072W        W29541  17.736   4.245   1.453  0.0906 -0.1919  0.1379
14073W        W29542  14.019   3.170  13.608  0.2344  0.0860  0.0819
14074W        W29543   2.594   9.559  11.966 -0.0566 -0.0562 -0.1856
14075W        W29544   3.164   1.328   4.172 -0.0286 -0.0255  0.1278
14076W        W29545  13.852  15.754   1.951  0.3906 -0.0432 -0.0060
14077W        W29546   8.368   7.569   4.880  0.1191  0.0786  0.1054
14078W        W29547  13.823  10.389   6.103 -0.0817 -0.2093 -0.1477
14079W        W29548   4.390   0.088  15.008  0.0523 -0.0234 -0.1702
14080W        W29549   3.197  15.144   0.516  0.0277  0.2740 -0.1154
14081W        W29550  18.448  11.903   9.952  0.0127 -0.0693 -0.2301
14082W        W29551   9.380   3.762   5.964  0.2421  0.1326  0.2575
14083W        W29552   6.279   7.979  14.770 -0.0113 -0.3608 -0.0080
14084W        W29553   1.375  12.265   1.131  0.3579 -0.4195  0.1242
14085W        W29554   4.870  16.645  11.687  0.2133  0.2603 -0.2291
14086W        W29555  13.151  15.658   0.861 -0.3090  0.2242  0.0380
14087W        W29556   9.673  15.010  14.660  0.0976 -0.0017 -0.1620
14088W        W29557   1.508  14.857  11.524  0.0890 -0.2464  0.2389
14089W        W29558   7.005   4.678  13.211  0.0059 -0.1081 -0.2590
14090W        W29559  18.410   1.743  13.877  0.0946  0.0551  0.0805
14091W        W29560  14.231  15.206  12.417  0.0134 -0.2158  0.1569
14092W        W29561   8.280  17.871  10.980 -0.1345  0.0898  0.1532
14093W        W29562   4.156   7.814   1.399  0.1001  0.2197 -0.0460
14094W        W29563  14.934  16.054   4.330 -0.0725 -0.3066 -0.4999
14095W        W29564  15.200   6.472  10.789 -0.0144  0.1647 -0.0457
14096W        W29565   7.634  10.821   2.112 -0.3297  0.0963 -0.2928
14097W        W29566   6.991   3.744  13.315  0.3590  0.2761  0.3474
14098W        W29567   8.797   0.308  10.942 -0.3307 -0.0859  0.1276
14099W        W29568  16.368  11.724  11.167 -0.1613 -0.0174 -0.0467
14100W        W29569  18.461  15.910   3.550 -0.2583  0.1944 -0.0965
14101W        W29570  14.471   4.508  11.305  0.0647 -0.0072 -0.0263
14102W        W29571   8.134  18.458  14.338  0.4319 -0.1162 -0.3923
14103W        W29572   6.334  13.668   2.190  0.0783 -0.0666 -0.2078
14104W        W29573  17.013  10.984  14.453 -0.0997 -0.0846  0.0325
14105W        W29574   9.223  14.680  15.040 -0.0100  0.3124 -0.2436
14106W        W29575   1.528   9.598   1.091 -0.1468 -0.3512 -0.0421
14107W        W29576  10.742  14.653  14.013  0.2738 -0.4703  0.2375
14108W        W29577   8.099   0.878  12.853  0.0888 -0.0915 -0.2708
14109W        W29578   2.273   0.821  11.998 -0.3640  0.3022  0.2621
14110W        W29579   1.454   0.783  13.412 -0.1222  0.1081  0.4144
14111W        W29580   5.951  14.904  15.466  0.2020 -0.1255  0.0927
14112W        W29581  17.991   8.176   2.942 -0.2172 -0.3605 -0.0685
14113W        W29582   3.658  11.389   0.662 -0.0324  0.2583 -0.2721
14114W        W29583   1.506   8.033   5.367  0.1906 -0.4073  0.0029
14115W        W29584   3.915   3.075   9.901  0.1365  0.0503  0.0192
14116W        W29585   5.853   1.748   0.055  0.1687  0.1587  0.1260
14117W        W29586   0.605  17.664  11.270  0.1527  0.0615  0.1525
14118W        W29587  15.567  13.271   3.361 -0.0614 -0.3686  0.0810
14119W        W29588   1.911   6.907  10.707  0.0954 -0.0121  0.2339
14120W        W29589  18.102   0.378   3.699  0.3171  0.0628 -0.2583
14121W        W29590  13.057   6.847   2.592 -0.0091 -0.0679  0.1861
14122W        W29591   9.531  11.972   4.214 -0.3581  0.0966  0.2506
14123W        W29592   3.555  12.319   2.015  0.0980 -0.0986 -0.1769
14124W        W29593  17.147   9.292  13.044 -0.4216 -0.0801  0.0476
14125W        W29594  14.748  12.666  14.332 -0.0416  0.1262  0.0834
14126W        W29595   0.925   2.757   3.018 -0.1337  0.0269 -0.2279
14127W        W29596  11.499   9.513   4.663  0.3746  0.1581  0.0535
14128W        W29597   1.903  13.204   5.713  0.0626 -0.1068 -0.2355
14129W        W29598   9.945   6.293  14.584  0.0405 -0.1666 -0.3050
14130W        W29599   1.232   3.533  12.487 -0.1100 -0.1083 -0.0650
14131W        W29600   4.838   1.423   3.050  0.0145  0.0583 -0.2115
14132W        W29601   3.609   9.295   4.153 -0.1247 -0.0658 -0.1519
14133W        W29602  18.396   9.779  14.158 -0.0833  0.1565 -0.0466
14134W        W29603   6.841  17.807   0.267 -0.0925  0.2371  0.0071
14135W        W29604  14.653  11.861  15.023 -0.0811  0.5625 -0.1057
14136W        W29605   9.738   0.988  14.706 -0.3428 -0.1909 -0.0268
14137W        W29606   2.458   2.429   0.863 -0.0299 -0.1195 -0.2316
14138W        W29607   3.916  17.018   2.271 -0.0437  0.1136  0.0192
14139W        W29608   0.949  10.070   2.953  0.0124 -0.0152  0.0767
14140W        W29609   3.266   5.284   2.844 -0.0756  0.0034  0.0354
14141W        W29610   7.253   8.765   4.807  0.0320  0.2251  0.0760
14142W        W29611   1.584   6.619   4.060 -0.0060  0.1399 -0.3364
14143W        W29612   8.930   7.836  13.020 -0.2310 -0.1459 -0.1865
14144W        W29613   5.477   6.245  11.119  0.1239 -0.0512 -0.1815
14145W        W29614  18.744  11.094  12.150  0.1369  0.1028  0.1358
14146W        W29615  17.225   4.675   2.698 -0.0744 -0.1453  0.1946
14147W        W29616  10.826   2.980  11.073 -0.0913  0.1978  0.3848
14148W        W29617   7.880  17.654   0.660  0.2706  0.3711  0.1812
14149W        W29618  12.305   7.169  15.672 -0.1409 -0.0190  0.0510
14150W        W29619  17.379  16.522  15.347  0.2047 -0.2067 -0.0437
14151W        W29620  15.302  14.130  12.217 -0.0915 -0.3446 -0.2377
14152W        W29621   5.642   2.561  14.177 -0.1571 -0.0072 -0.1705
14153W        W29622  11.240  10.372   4.936 -0.0178  0.1340  0.1034
14154W        W29623   1.219  11.804   2.354 -0.2933 -0.1684  0.1988
14155W        W29624  15.435   0.884   1.866  0.1323  0.1063  0.1208
14156W        W29625   5.162  12.453  12.214 -0.0368  0.0874  0.3689
14157W        W29626   8.407  14.653  13.657  0.1676 -0.1805 -0.2247
14158W        W29627   7.932   0.262   1.804 -0.0916 -0.2216 -0.2240
14159W        W29628   7.447  10.385   3.287 -0.1256 -0.1453  0.0090
14160W        W29629  16.550   0.404  11.462  0.2873 -0.3642 -0.1265
14161W        W29630  10.932   9.178   5.446 -0.3325 -0.1308  0.1773
14162W        W29631  15.332  16.447  15.228 -0.0500  0.2163 -0.1870
14163W        W29632  10.996   7.973  13.635  0.1633  0.1225  0.0231
14164W        W29633  15.522  11.706  15.214  0.0411  0.0749  0.2249
14165W        W29634  12.026   5.767   0.519 -0.2144 -0.3259  0.2063
14166W        W29635   4.641   6.231  11.461 -0.1350 -0.0450  0.1845
14167W        W29636   0.231  13.077  12.800  0.4525 -0.3233 -0.1830
14168W        W29637   1.666   5.186   3.122  0.0344  0.2596  0.0022
14169W        W29638   0.361   4.034   4.364  0.0421  0.0702  0.3305
14170W        W29639  16.869   6.687   2.976 -0.0083  0.1040  0.0404
14171W        W29640   3.364   7.170   3.396  0.0641  0.0842 -0.1046
14172W        W29641  18.521  13.348   1.876 -0.2532 -0.3051  0.1232
14173W        W29642   9.236   1.615  12.645  0.0910 -0.0003  0.4189
14174W        W29643  17.220   9.773   4.781 -0.3466  0.2899 -0.0002
14175W        W29644  14.863   5.597   4.162 -0.3391  0.2112 -0.2068
14176W        W29645   2.687   7.802  13.160 -0.0384 -0.3482  0.1580
14177W        W29646  11.099  15.031   2.364  0.0156  0.1556 -0.0429
14178W        W29647   2.432   8.655   1.017  0.4773  0.0687 -0.0684
14179W        W29648  13.976   4.274  10.690 -0.0167  0.0209 -0.2099
14180W        W29649   1.331  12.156  13.163  0.0131 -0.0538  0.2746
14181W        W29650  14.747  12.040   2.208  0.1162 -0.1604  0.0796
14182W        W29651   3.623   3.768   0.536  0.0421 -0.2163  0.1198
14183W        W29652   7.551   6.382  13.264  0.0194  0.2632  0.0084
14184W        W29653  15.642  15.463  14.075 -0.1274  0.2867 -0.1105
14185W        W29654  12.463   8.225   4.117  0.0433 -0.1696  0.1109
14186W        W29655  15.772  16.215  12.443  0.0005  0.0903 -0.0783
14187W        W29656   8.438   0.187  10.605 -0.4006 -0.2371  0.1675
14188W        W29657   6.312  10.216  11.285 -0.2317  0.1215 -0.2195
14189W        W29658  16.418   5.193  15.523 -0.3878  0.0594  0.1062
14190W        W29659   0.314  14.065   0.082  0.1847  0.2151 -0.0952
14191W        W29660   5.336   2.680  15.334 -0.0307  0.0981  0.0303
14192W        W29661   4.207   8.664  10.668 -0.0703  0.1874 -0.2523
14193W        W29662   0.435   7.617  10.246  0.2331 -0.1526  0.1431
14194W        W29663   1.157   9.049  14.562  0.0016 -0.0864  0.0044
14195W        W29664   6.854   5.233  14.261 -0.1601 -0.0475  0.0177
14196W        W29665   1.768  10.373  10.421  0.1385  0.2878  0.1362
14197W        W29666  11.096   5.222   0.572  0.1939  0.0867 -0.0201
14198W        W29667   7.327  12.040   3.697  0.1584  0.2040  0.0110
14199W        W29668  10.998   5.476  11.935  0.0297  0.1359 -0.1362
14200W        W29669   2.858  18.072  13.839  0.2511 -0.3288 -0.1792
14201W        W29670   5.650   0.128   0.479 -0.3051  0.1117 -0.0761
14202W        W29671  10.363  16.748   5.168  0.0501 -0.0791  0.0070
14203W        W29672   6.029   5.164   4.344 -0.1693 -0.0756 -0.2721
14204W        W29673   3.024  15.558   0.389 -0.0705 -0.0334 -0.1809
14205W        W29674  12.514  15.027   3.347  0.2053 -0.2406  0.0123
14206W        W29675   5.161  11.965  13.928 -0.0167  0.1026  0.3759
14207W        W29676   0.082  16.248   1.285 -0.0149 -0.0802 -0.0091
14208W        W29677   2.815  17.668  13.291  0.0485  0.0667 -0.1885
14209W        W29678  14.017   4.578  12.484  0.0340  0.2066  0.1181
14210W        W29679  15.652  11.216   2.483  0.1358 -0.1337  0.1433
14211W        W29680  11.195   6.753   1.477  0.4389  0.1160 -0.1887
14212W        W29681   8.578   6.567   9.990  0.2472  0.2438  0.0721
14213W        W29682   2.744   6.967  11.012 -0.2761  0.0008  0.1645
14214W        W29683   2.618  18.463  14.844  0.3161  0.1605  0.3333
14215W        W29684  13.407  13.399  10.391 -0.3006 -0.3036 -0.0399
14216W        W29685  13.624   9.309   1.794  0.2333  0.4254 -0.0392
14217W        W29686   1.173  11.327   2.220 -0.2265 -0.0982 -0.0081
14218W        W29687  11.827   3.253  11.426 -0.0500  0.2779 -0.1190
14219W        W29688  13.400  16.702   4.834 -0.1801 -0.1267  0.0400
14220W        W29689   4.701  18.458   0.792  0.5191  0.0364  0.0800
14221W        W29690  17.182   1.575   4.880 -0.0837  0.1776 -0.2173
14222W        W29691  14.433  13.223  10.887  0.1801 -0.0817 -0.2315
14223W        W29692  13.502   3.392  10.131 -0.0154  0.0506 -0.1809
14224W        W29693   7.463   3.275   3.130  0.0867  0.2496 -0.1991
14225W        W29694  11.603   2.441  15.635  0.2598  0.0560  0.0827
14226W        W29695  13.295  10.669   3.772 -0.0726 -0.0644  0.1215
14227W        W29696   6.106  14.368   2.164  0.1277 -0.0261  0.1262
14228W        W29697  17.204  18.779   4.183  0.0526  0.0715 -0.2026
14229W        W29698   3.307  15.253   3.316  0.2820 -0.0664  0.3642
14230W        W29699  11.040   1.199   3.410 -0.2211  0.8343  0.1843
14231W        W29700   4.008   2.298  14.304  0.1745  0.0878 -0.1650
14232W        W29701   5.795  13.182  10.764  0.0277  0.5060  0.1326
14233W        W29702   6.299  13.809   3.266  0.0621 -0.3364 -0.2261
14234W        W29703  17.514   0.736   2.531  0.1392 -0.1238 -0.1291
14235W        W29704   3.318   4.028  13.271 -0.4038 -0.0678 -0.1831
14236W        W29705  13.410  13.840   3.957  0.1286  0.0336 -0.1240
14237W        W29706  12.012   2.594  14.405 -0.3788 -0.1672  0.2350
14238W        W29707  13.768  11.256   0.573 -0.1240 -0.2958 -0.0623
14239W        W29708  11.333   6.500  11.191  0.1112 -0.1479 -0.2099
14240W        W29709   5.339  12.383   1.417 -0.0842 -0.0270  0.0278
14241W        W29710   2.598  14.854  11.499  0.1291 -0.2792  0.3269
14242W        W29711   1.957   8.424   5.802  0.0403 -0.0453  0.1823
14243W        W29712  11.136   7.989   3.696  0.1835 -0.1783 -0.1248
14244W        W29713   1.922  16.911   0.332  0.2514 -0.1517  0.2199
14245W        W29714  10.977  17.872   2.827  0.0816  0.1501 -0.1259
14246W        W29715  18.639  10.601  11.988  0.0899  0.1900 -0.2592
14247W        W29716  12.182   6.376   4.548  0.3343  0.2559  0.1635
14248W        W29717   3.980  13.121   4.795 -0.0971 -0.1513 -0.1008
14249W        W29718   6.316  10.536   4.825 -0.2741  0.0108  0.2214
14250W        W29719  10.905   9.312  15.152  0.3939 -0.2682  0.0245
14251W        W29720   6.303   8.677   4.818 -0.2723 -0.0087  0.1677
14252W        W29721   2.134  12.860  12.758 -0.2132  0.1848 -0.0826
14253W        W29722   5.199  11.360   2.174 -0.1886  0.0485  0.1322
14254W        W29723   5.111  10.839   3.102  0.0098  0.0080 -0.1317
14255W        W29724   1.496  17.470   2.580  0.1194 -0.1650  0.1178
14256W        W29725  12.598  12.597  14.462  0.2123  0.2359  0.3259
14257W        W29726  10.991  16.901   1.117  0.2869  0.3358  0.1450
14258W        W29727   0.863   6.041  11.976 -0.5325 -0.0180  0.3659
14259W        W29728  12.807  16.848  13.837 -0.0194 -0.1014 -0.1318
14260W        W29729   9.095  17.981   1.332  0.3327 -0.3582 -0.1551
14261W        W29730  12.447   1.334   3.475 -0.2042 -0.0604  0.0680
14262W        W29731   8.303   1.310  11.866 -0.0025  0.4844 -0.0139
14263W        W29732   2.969   7.257   0.642 -0.1930 -0.0229  0.2179
14264W        W29733   1.943  16.750  15.343 -0.0974  0.1827  0.1112
14265W        W29734  16.070   8.968   3.769  0.3643 -0.3698 -0.0028
14266W        W29735  13.834  16.682  11.189 -0.0680  0.1545  0.0593
14267W        W29736  12.123   5.456   1.954 -0.0196  0.2477  0.0804
14268W        W29737  12.454   3.949   3.493  0.0690  0.0520 -0.0282
14269W        W29738   8.427  16.312   1.484  0.0981 -0.2384 -0.3961
14270W        W29739   0.548   0.078   0.245  0.2028  0.1518  0.1382
14271W        W29740   5.504   2.281  11.942 -0.1681  0.2003 -0.2331
14272W        W29741   7.931   6.523  11.798 -0.0584  0.2428 -0.2872
14273W        W29742  10.186  15.588   5.448  0.1186  0.0779  0.0901
14274W        W29743   0.753  15.666  12.669  0.0976 -0.2910 -0.0433
14275W        W29744  11.229   7.312   0.075 -0.2544  0.1353  0.2659
14276W        W29745  14.892   4.169  12.351 -0.4618  0.1183 -0.0846
14277W        W29746   0.938  14.614   0.347 -0.0917 -0.1155 -0.0897
14278W        W29747  14.891   1.095  11.485  0.2590  0.0738 -0.1834
14279W        W29748   9.326   3.719   3.835  0.0615  0.3425  0.5721
14280W        W29749  18.032   6.917  10.764 -0.0775  0.0693 -0.1967
14281W        W29750  17.742  18.631   2.775 -0.2563  0.2243 -0.3583
14282W        W29751   2.625   2.006   4.939  0.0128 -0.1628 -0.0327
14283W        W29752   3.131   5.405   3.403  0.2079  0.1545 -0.1466
14284W        W29753  16.226  10.491  12.535 -0.2588  0.2900 -0.0720
14285W        W29754  16.634   8.581  13.462  0.3484  0.1545 -0.0427
14286W        W29755   1.757  18.668   4.739  0.3056  0.1381 -0.3613
14287W        W29756  13.222  10.431   4.847 -0.1281 -0.0626  0.1425
14288W        W29757  12.970  17.687   5.890 -0.2958  0.0014 -0.0490
14289W        W29758   8.599  13.549   0.210 -0.2983  0.1964 -0.0987
14290W        W29759   9.276  16.265   0.366 -0.2385  0.1920  0.0644
14291W        W29760   6.033   3.503   4.702 -0.0010 -0.0012 -0.1860
14292W        W29761  17.024  17.518   0.846 -0.3633  0.0759  0.1850
14293W        W29762   7.738   7.402   1.133  0.1817  0.0543  0.1725
14294W        W29763   0.492  11.470   4.181 -0.0918  0.2764 -0.2364
14295W        W29764   9.874  18.266   3.699 -0.4661 -0.4035 -0.0355
14296W        W29765  12.391   4.677  12.320  0.2005 -0.0704  0.0739
14297W        W29766   0.913   2.668   9.689 -0.0778  0.0422  0.0719
14298W        W29767   4.776   9.119   2.665 -0.1985 -0.2691 -0.0140
14299W        W29768   8.884  12.075   4.467 -0.0139  0.1182 -0.0643
14300W        W29769  14.775  14.687   2.929 -0.1968  0.0959 -0.0453
14301W        W29770  10.307   5.717   1.426 -0.0076  0.0098  0.2993
14302W        W29771   4.807  17.576   1.062 -0.0794 -0.1755 -0.2695
14303W        W29772   7.866  14.314   1.540  0.1844  0.0615 -0.1029
14304W        W29773   2.174  15.465   4.428 -0.0549 -0.1951  0.2283
14305W        W29774  17.000  12.708   0.968 -0.0234  0.2322 -0.0083
14306W        W29775   8.461   4.625  11.350  0.0106 -0.2909 -0.2036
14307W        W29776  18.176  16.711  12.129 -0.1209  0.0056  0.1344
14308W        W29777  17.123   9.980   5.319  0.4136 -0.2674 -0.0211
14309W        W29778  17.576  15.331   2.020 -0.1705 -0.0814  0.4007
14310W        W29779   6.479  13.150  12.288  0.1476 -0.0225  0.1629
14311W        W29780  11.861   3.375   3.388  0.0497 -0.4866 -0.0036
14312W        W29781   7.873   9.059   0.199 -0.1446 -0.0042  0.0690
14313W        W29782   1.345   7.491   9.675  0.3375  0.1708  0.2599
14314W        W29783   4.723  17.372  11.855 -0.2162 -0.0590 -0.0284
14315W        W29784   5.108  10.323  12.792 -0.0046  0.1736 -0.1429
14316W        W29785   0.290   6.876  14.516  0.2425  0.1468  0.2072
14317W        W29786  17.104  16.323   0.320 -0.1843  0.1357  0.0702
14318W        W29787   5.943   6.063   3.892 -0.0986  0.0133  0.2714
14319W        W29788   6.636  10.694   3.316 -0.0666 -0.2834 -0.3242
14320W        W29789   1.332   4.064  13.154 -0.0079 -0.1079  0.0203
14321W        W29790   8.085   8.081   4.031 -0.0659  0.3199 -0.2075
14322W        W29791   8.820  13.382  14.801 -0.0690 -0.0270 -0.3967
14323W        W29792  18.757   6.055   0.821  0.2539 -0.0427 -0.0723
14324W        W29793  12.192   5.238   3.723 -0.0446  0.2748 -0.1105
14325W        W29794   0.089  11.599   3.829  0.1614  0.0102 -0.0066
14326W        W29795   7.678   8.581   3.553  0.3334  0.0357 -0.1964
14327W        W29796   9.706   1.495   2.324  0.0586 -0.2460  0.0713
14328W        W29797   7.183  18.600   3.175 -0.2498 -0.0006 -0.1074
14329W        W29798  16.981   7.066   4.260  0.0408 -0.1111  0.2415
14330W        W29799  18.050  15.542   0.418 -0.2462  0.0396 -0.1386
14331W        W29800   0.628   2.774   1.845  0.1670 -0.1563  0.1109
14332W        W29801   7.462   1.784  12.930  0.0435  0.3269  0.1605
14333W        W29802  14.091  14.439   5.373  0.0201  0.3690 -0.1091
14334W        W29803  17.652  10.318  12.217  0.1143  0.3007  0.1285
14335W        W29804   2.842   5.678  11.050  0.1293  0.1895  0.0380
14336W        W29805  14.782  14.556  13.299  0.0844 -0.0590 -0.0479
14337W        W29806   8.020   1.644  12.248  0.1367  0.1756 -0.0674
14338W        W29807  12.330  17.342  10.685 -0.0233  0.1075 -0.0317
14339W        W29808  15.848   0.553  15.275 -0.1967  0.1163 -0.3650
14340W        W29809  14.171  11.816  15.211 -0.0251  0.1995 -0.3976
14341W        W29810  11.905   2.834  10.972  0.1822 -0.0355  0.3918
14342W        W29811   6.444   3.723   4.442 -0.3581  0.0314  0.1328
14343W        W29812  15.921  14.951  13.023  0.3911 -0.0818 -0.0264
14344W        W29813   5.590  14.986  11.995 -0.3065  0.3460  0.3258
14345W        W29814   9.062  15.686   2.450  0.1805 -0.3674  0.1732
14346W        W29815   4.285   7.344   3.746 -0.1613  0.2601  0.0593
14347W        W29816   9.360  15.774   0.648 -0.0231  0.0978  0.0640
14348W        W29817   5.126   7.070   4.409  0.1359 -0.2661  0.1830
14349W        W29818  18.178   6.014  13.117  0.0596  0.0606 -0.2515
14350W        W29819  16.485   7.497  14.678  0.1495  0.0706  0.3573
14351W        W29820  12.367   1.828   4.452  0.0580 -0.5617 -0.1040
14352W        W29821  18.049   7.685   4.185  0.1581  0.0676  0.0330
14353W        W29822  17.908  11.898   1.436  0.1405 -0.2969 -0.1333
14354W        W29823  15.093   6.982  14.651 -0.2785  0.0524  0.1622
14355W        W29824   6.146   5.489   3.051 -0.2442  0.0673  0.0389
14356W        W29825  12.480  11.651  14.560  0.2137  0.0796 -0.0733
14357W        W29826   5.073  16.872  11.029  0.2135  0.2688  0.0955
14358W        W29827  11.019   1.617  12.615 -0.1750 -0.0766 -0.3553
14359W        W29828   7.371  15.444   1.682  0.1218  0.4814  0.2300
14360W        W29829   5.459   7.368  12.498 -0.2299 -0.0712 -0.1150
14361W        W29830   0.737   2.799   4.250 -0.1880 -0.0060 -0.1518
14362W        W29831  16.949   8.008  13.764 -0.1493 -0.3515  0.1443
14363W        W29832  18.775  13.073  10.848 -0.0597  0.4524  0.2748
14364W        W29833   0.494   0.190   3.274 -0.2603 -0.1373 -0.0125
14365W        W29834  12.198  16.264  13.031  0.0861  0.2642  0.0106
14366W        W29835   3.364   4.921   3.296  0.2206 -0.0441  0.1214
14367W        W29836   1.276  17.171   1.377  0.1381  0.0923  0.2468
14368W        W29837   7.882  15.859  10.923 -0.1299 -0.0883  0.1610
14369W        W29838   0.999  10.773  11.377  0.2084  0.2318 -0.0549
14370W        W29839   7.129   0.010  10.850  0.2704  0.0140  0.0006
14371W        W29840   6.686  18.383  14.014  0.0463  0.3584  0.2408
14372W        W29841  12.473  17.405   1.495 -0.1657  0.3388 -0.1509
14373W        W29842   1.594   1.971   4.901 -0.2200 -0.0030  0.1675
14374W        W29843  13.390   9.509   1.388  0.3964  0.1830  0.1085
14375W        W29844   8.177  14.535  14.538 -0.1050 -0.1288 -0.2550
14376W        W29845   2.861   2.690   1.627 -0.1090  0.1573  0.0199
14377W        W29846  15.465  16.133  11.505 -0.0311 -0.0615  0.3136
14378W        W29847  18.027  15.855   4.779 -0.3749  0.1149  0.2562
14379W        W29848  10.083   4.308   0.158  0.0280 -0.2791 -0.0675
14380W        W29849   6.908   7.267   4.829 -0.1150  0.0263 -0.0265
14381W        W29850   1.427   5.393   0.009  0.1034 -0.1505  0.2586
14382W        W29851  13.738   3.789   2.463  0.0280  0.1360 -0.3787
14383W        W29852  13.356   8.342   1.915 -0.1961 -0.2656 -0.2254
14384W        W29853   3.423  14.048   5.738  0.0300 -0.0438  0.1441
14385W        W29854   4.445  14.721  12.487  0.2657  0.1346  0.3463
14386W        W29855   2.104   0.708   2.843  0.0442  0.3401 -0.1476
14387W        W29856   1.179   2.095   1.845  0.0892 -0.0707  0.3021
14388W        W29857  16.815  12.014   2.026 -0.1568  0.1971 -0.3824
14389W        W29858  17.098  14.311   5.243 -0.0473  0.4546  0.1205
14390W        W29859  17.501  17.266   2.333  0.1936  0.1863 -0.1884
14391W        W29860  17.904   1.080   1.477 -0.2344 -0.1885  0.0543
14392W        W29861  17.858   2.713   0.818  0.0661  0.1209 -0.1516
14393W        W29862  11.915  15.266  13.868  0.0089 -0.1041  0.1277
14394W        W29863  14.450   8.461   9.920  0.4947 -0.1037 -0.0243
14395W        W29864  10.638  13.118   4.331  0.3936  0.1056  0.2063
14396W        W29865  15.276  16.647  13.589  0.1836  0.0665 -0.3186
14397W        W29866   5.353  12.868   5.522 -0.2936  0.4285 -0.2290
14398W        W29867   5.712   0.276   3.728 -0.1352  0.2927  0.1655
14399W        W29868   9.805   3.829  12.190 -0.3776  0.0831 -0.2803
14400W        W29869  10.694   9.330   0.818 -0.2745  0.0501  0.0521
14401W        W29870  14.410  14.008   3.149 -0.1455  0.0386  0.2715
14402W        W29871  11.583   7.560  12.201  0.1920  0.3531  0.1181
14403W        W29872   8.436   0.102  14.556  0.2503  0.3757  0.2641
14404W        W29873   0.805   4.186   3.035  0.2083 -0.1729  0.1466
14405W        W29874  13.885   3.880   0.470 -0.0071 -0.1124 -0.1338
14406W        W29875   3.532   0.555  14.398  0.3104  0.2862 -0.0331
14407W        W29876  10.298   0.558   1.394  0.3434  0.2513  0.0412
14408W        W29877  17.151   9.512  12.278 -0.0763  0.0764  0.0095
14409W        W29878  18.109   1.459   2.739  0.1680  0.1410  0.0780
14410W        W29879   0.648   5.277   1.152 -0.1283  0.2162 -0.1344
14411W        W29880   4.490   0.879   2.624  0.1138  0.1752  0.2338
14412W        W29881   3.620   3.085  13.111 -0.0681 -0.4243  0.0500
14413W        W29882   5.416  12.309   0.306 -0.0922  0.0321  0.0608
14414W        W29883  18.630  15.232  13.582 -0.0743  0.0105  0.2888
14415W        W29884  10.530  17.476  10.644 -0.1766  0.3774 -0.0368
14416W        W29885  11.094  15.711  14.075 -0.2046 -0.0811 -0.1534
14417W        W29886  10.768   1.734  14.505  0.4878 -0.0569  0.0813
14418W        W29887  17.172   0.519   3.413 -0.2556  0.0001 -0.1154
14419W        W29888   2.441  13.352  12.535  0.0869  0.3689 -0.0631
14420W        W29889   4.433  14.103  11.804 -0.1286 -0.1451  0.1223
14421W        W29890  10.813   8.927   4.525 -0.0130 -0.0573  0.0503
14422W        W29891  14.586   6.306   5.577 -0.1056  0.0610 -0.0374
14423W        W29892  16.970   5.969  15.187 -0.0581 -0.1105 -0.0685
14424W        W29893  18.586  17.404   2.048 -0.0065 -0.1691 -0.1502
14425W        W29894  14.450  12.088  11.242  0.2903 -0.1540 -0.2112
14426W        W29895   9.528  18.436   4.629  0.0795 -0.2330  0.0261
14427W        W29896  16.982   6.218   0.637 -0.2391  0.0923  0.3221
14428W        W29897  15.366  17.457  15.500  0.0294 -0.0564  0.0341
14429W        W29898  16.055   6.828  10.614  0.0486 -0.1872  0.0969
14430W        W29899   5.044   2.814   0.348  0.4266 -0.0423 -0.0238
14431W        W29900   2.006  15.401  12.140  0.0539  0.2301  0.1488
14432W        W29901  11.863  10.735   5.432  0.2266  0.1485 -0.0819
14433W        W29902   8.295  18.654   3.661 -0.1223 -0.0054  0.0926
14434W        W29903   1.989   5.468   2.354  0.1946 -0.1775  0.0161
14435W        W29904   3.656   1.113  14.337  0.0452 -0.1147 -0.0287
14436W        W29905  18.575  13.983   4.067  0.0848  0.0364 -0.0557
14437W        W29906   5.607   1.321   1.415  0.1633  0.0562  0.1089
14438W        W29907  17.068  15.374   5.656  0.1406  0.1720 -0.2426
14439W        W29908   3.358  13.339   1.775  0.0361  0.4012 -0.1807
14440W        W29909   8.357   9.013  13.313  0.2495 -0.2795  0.2482
14441W        W29910   2.902   9.505  13.870 -0.1006 -0.1390 -0.0110
14442W        W29911  11.840   1.438  11.039 -0.2882  0.1729  0.2478
14443W        W29912   6.716   7.376  12.324 -0.1142 -0.2076  0.1179
14444W        W29913   7.652  11.012  11.626 -0.1225 -0.0279  0.1968
14445W        W29914   4.073  16.623  13.409 -0.0135 -0.3696 -0.2281
14446W        W29915   1.087   2.029  11.625  0.0976 -0.0841 -0.0459
14447W        W29916   5.047   3.061  11.366  0.5457  0.2920 -0.0376
14448W        W29917  11.457   6.838   4.063 -0.3186  0.1101  0.3993
14449W        W29918   0.241   5.511  10.217  0.5744  0.4130 -0.0793
14450W        W29919  15.316   7.794  13.779 -0.1074 -0.0248  0.1953
14451W        W29920   6.391  12.453  13.315 -0.3748 -0.2771  0.2004
14452W        W29921  11.456  14.688   0.991  0.3516  0.2087  0.2667
14453W        W29922   9.036  13.703  10.590 -0.1669  0.1695  0.0951
14454W        W29923  17.735   2.561   4.405 -0.1205  0.3928  0.0457
14455W        W29924   5.255  15.312   0.977 -0.1491  0.2050 -0.2490
14456W        W29925  16.040  16.980   2.300 -0.3500  0.1816 -0.0263
14457W        W29926  12.209   1.426  11.355 -0.2620 -0.2695  0.0613
14458W        W29927   7.092   1.695   1.228 -0.0299 -0.1016  0.3084
14459W        W29928  16.938   1.658  14.779  0.0124 -0.2294 -0.2314
14460W        W29929  14.237   7.830  13.229  0.2040 -0.3981 -0.2476
14461W        W29930  15.098  14.336  11.440 -0.3609 -0.1733 -0.0510
14462W        W29931   4.429   1.927  14.801 -0.1495  0.2146  0.0485
14463W        W29932  18.370  11.216  12.821 -0.0572 -0.0038 -0.1456
14464W        W29933  10.790   5.955   1.397  0.0036 -0.1121 -0.1382
14465W        W29934   3.844   3.276  14.518  0.2955  0.3333 -0.2407
14466W        W29935   8.755   9.944   3.858 -0.2024 -0.3161  0.1850
14467W        W29936  18.685  14.310   2.539 -0.0710  0.1172 -0.2067
14468W        W29937  12.363  17.061  11.946  0.0241 -0.0042  0.0578
14469W        W29938   3.794  16.144   4.131 -0.3440  0.3014  0.0856
14470W        W29939   4.160   8.141  10.810 -0.0052 -0.1300  0.0614
14471W        W29940  12.009   3.653  13.518  0.0923  0.0752 -0.3363
14472W        W29941   3.485  11.200  13.328 -0.0156 -0.3168 -0.1558
14473W        W29942  18.313   3.638   1.839 -0.2430  0.3232  0.0366
14474W        W29943   6.788   9.747   4.806 -0.1107 -0.1903 -0.0292
14475W        W29944   7.122   6.562  14.510 -0.1362  0.3791  0.2582
14476W        W29945   8.823  12.279  12.184  0.0361 -0.1338 -0.3920
14477W        W29946   8.352  11.286   2.302 -0.3891 -0.3008 -0.3364
14478W        W29947  10.521   3.304  10.786  0.1411  0.0115  0.1365
14479W        W29948   2.980   9.347  14.388  0.1165 -0.0472 -0.1137
14480W        W29949   2.711   0.013   4.505  0.0653  0.4754  0.0606
14481W        W29950   8.074   8.623  14.111  0.1120  0.0486 -0.2098
14482W        W29951  17.150  14.079   3.637  0.0271 -0.0162 -0.0729
14483W        W29952  10.330   3.715  12.924  0.0766  0.1749  0.4537
14484W        W29953  12.411  16.194   0.827 -0.0477 -0.0192 -0.0991
14485W        W29954  12.862  12.416   1.722  0.0153 -0.3201  0.2270
14486W        W29955   8.240   4.474   0.828 -0.1341  0.2897 -0.1463
14487W        W29956   3.866  13.505  11.289  0.0891 -0.0526  0.0338
14488W        W29957   3.073   5.765  11.905 -0.0565 -0.0789 -0.0527
14489W        W29958   9.650  16.972  10.189 -0.0003  0.0485  0.0304
14490W        W29959   4.275   6.970  14.970 -0.2581 -0.3739  0.4170
14491W        W29960  16.385   2.821  14.123  0.0229  0.1101 -0.1637
14492W        W29961  14.788   3.680  10.913  0.0392 -0.0601  0.0436
14493W        W29962  12.691   2.549   3.640 -0.2210  0.0190 -0.0805
14494W        W29963   0.988   1.675   2.631  0.0761  0.0901 -0.1098
14495W        W29964  12.099   8.073   1.246 -0.0741 -0.2583 -0.0517
14496W        W29965  13.042   4.250  12.775  0.0362  0.2000 -0.0848
14497W        W29966  16.928   5.427   4.332 -0.3673 -0.0314  0.0325
14498W        W29967  11.355  12.746  14.573 -0.0675  0.1009  0.1809
14499W        W29968   5.153   5.608   2.138 -0.1226 -0.0249 -0.1326
14500W        W29969   8.985   9.824  10.910  0.0538  0.3143 -0.1043
14501W        W29970  10.420   9.952  14.511  0.1330 -0.2438  0.1383
14502W        W29971   9.321  14.175   5.255  0.5339 -0.2109 -0.0062
14503W        W29972   2.480  11.384  11.239 -0.1233  0.0685 -0.0421
14504W        W29973  12.025  17.917   0.104 -0.2226 -0.3439  0.0907
14505W        W29974   8.669   2.229  12.661 -0.1083 -0.0040  0.0505
14506W        W29975  13.360   4.902  10.733  0.2352  0.2120 -0.1209
14507W        W29976   7.470  16.977   3.407 -0.5624  0.1038 -0.1358
14508W        W29977   3.396   6.616  14.626  0.0463  0.0766 -0.1059
14509W        W29978   9.600   0.459  10.951 -0.3776  0.2998  0.3157
14510W        W29979   3.519   9.750  13.218 -0.1738  0.1927 -0.1417
14511W        W29980   7.365  14.320  12.609  0.2686 -0.0512  0.3578
14512W        W29981  18.675  11.188   2.898  0.1904  0.0728 -0.0865
14513W        W29982  15.386   2.664   1.370  0.1314 -0.0730 -0.1609
14514W        W29983  17.066   2.144  11.155 -0.3196 -0.0081 -0.1656
14515W        W29984   2.321  16.637   5.173  0.2640  0.4098  0.0628
14516W        W29985   1.591   4.293   3.744 -0.1599  0.3203 -0.2262
14517W        W29986  13.051   7.186  15.114  0.0943  0.1239  0.2074
14518W        W29987  16.159   1.480  12.801  0.1640  0.0102 -0.0355
14519W        W29988   2.979   8.624  14.494 -0.0153 -0.0059  0.0267
14520W        W29989  10.439   3.056   0.228  0.0020 -0.2638  0.2804
14521W        W29990  18.602  12.149   2.651  0.3791  0.0940  0.2318
14522W        W29991   4.797  14.945   3.319 -0.1917  0.0710  0.3367
14523W        W29992  10.689   7.896   4.476 -0.4879  0.1995 -0.1254
14524W        W29993  11.644  16.335   1.877 -0.0501 -0.0469 -0.1799
14525W        W29994  15.514   2.208  11.656 -0.1998  0.1914 -0.1252
14526W        W29995   8.437  15.740   0.142 -0.2766  0.3405 -0.2913
14527W        W29996  15.234  18.638  10.543 -0.2346  0.3827 -0.1839
14528W        W29997   0.587  11.205   1.135 -0.0888  0.1046 -0.1788
14529W        W29998  16.239   8.635   0.589 -0.4571  0.1431  0.2064
14530W        W29999  10.420   0.311  11.354 -0.0718  0.1180 -0.0863
14531W        W30000  11.167  12.667  13.575  0.0826  0.3517 -0.2813
14532W        W30001  15.122   0.785  10.838  0.1251  0.0975 -0.2018
14533W        W30002  10.501   0.504   2.302 -0.1203 -0.3884 -0.4655
14534W        W30003  17.186   7.971  13.232 -0.3321 -0.2653 -0.2396
14535W        W30004   0.763   7.130  15.262 -0.1518 -0.0264 -0.2935
14536W        W30005   6.235   6.504   5.033 -0.1197  0.0803  0.0098
14537W        W30006  10.402   8.826   3.220  0.4182 -0.2874 -0.2347
14538W        W30007   8.679   7.218  11.419  0.4088 -0.0572 -0.2783
14539W        W30008   7.689   8.503   4.544  0.2566 -0.1061 -0.3017
14540W        W30009  15.865  13.490   1.837  0.0298 -0.0105 -0.0961
14541W        W30010   2.365  12.767  10.091 -0.1302  0.1455  0.2557
14542W        W30011   5.731   0.871   0.300 -0.1918  0.0237  0.0455
14543W        W30012  10.307   8.340  13.917  0.0174 -0.1461 -0.3748
14544W        W30013  14.520  10.828   5.818  0.0755  0.1185 -0.3120
14545W        W30014   2.704   1.727   1.971  0.2254 -0.0512  0.0581
14546W        W30015  17.637   5.491   0.154  0.0552 -0.1915  0.0773
14547W        W30016   3.073   8.416   2.707 -0.1082 -0.1198 -0.2577
14548W        W30017   5.101  11.997   1.183 -0.3062 -0.2196 -0.1998
14549W        W30018   6.308   6.723  13.359 -0.2464 -0.1371  0.1885
14550W        W30019   6.755  13.813  10.744  0.1596 -0.1150  0.1358
14551W        W30020  10.743   1.493   2.620  0.0768 -0.1615 -0.1262
14552W        W30021  18.092   1.410  14.091 -0.1448 -0.1470  0.1454
14553W        W30022   3.622  11.617  14.537  0.0694  0.2275  0.0288
14554W        W30023  17.593   5.976   0.014  0.1248  0.2143 -0.2950
14555W        W30024  17.464  16.962   4.376  0.1212 -0.0896 -0.0778
14556W        W30025   3.600  10.246   3.011  0.2187  0.0341 -0.1054
14557W        W30026   4.958   0.039   1.502  0.1110 -0.2204 -0.1182
14558W        W30027   6.410  10.013   0.741  0.2885 -0.1796  0.0413
14559W        W30028  17.278   6.209   1.357  0.0485  0.1077 -0.1347
14560W        W30029   5.007   5.269   1.770 -0.2423  0.1504  0.0302
14561W        W30030   2.427  12.875  15.402  0.3363 -0.0324  0.1225
14562W        W30031   3.909   8.860  10.303 -0.0939 -0.3095 -0.0872
14563W        W30032   0.414   6.999   1.750  0.0482  0.2067  0.1784
14564W        W30033   5.234  14.253   4.653  0.1475  0.1384  0.0306
14565W        W30034  13.996   1.345  12.954  0.2970 -0.0968 -0.2806
14566W        W30035   4.293  15.152  12.112  0.0953  0.3709 -0.0510
14567W        W30036   6.033   7.886  15.659 -0.0875  0.1147 -0.0990
14568W        W30037  16.058  10.005   0.247  0.0576  0.1538 -0.2966
14569W        W30038   0.157  14.936  15.021  0.2839  0.1904  0.3384
14570W        W30039  13.517  11.067  12.714  0.1173  0.1776  0.0547
14571W        W30040   2.064   5.547  14.475  0.0032  0.2058  0.3127
14572W        W30041  14.009   8.294   3.205 -0.2851 -0.0354 -0.2565
14573W        W30042  14.196   6.042  13.293  0.2462 -0.1582 -0.0511
14574W        W30043  12.438  10.848   3.952  0.1919  0.3967  0.1398
14575W        W30044   8.537   9.474  12.933  0.3514  0.0312  0.1354
14576W        W30045   4.817   4.724  12.857 -0.2060  0.0173 -0.0749
14577W        W30046  17.721  18.067  13.105  0.3110 -0.1096 -0.1077
14578W        W30047   4.313  16.567  11.476 -0.0064 -0.0586  0.1149
14579W        W30048   5.959  18.772  15.206  0.1435  0.0054  0.1015
14580W        W30049   4.022   9.361   1.721 -0.3215 -0.1011 -0.0068
14581W        W30050   4.611   4.364  13.526 -0.2232 -0.2866  0.0298
14582W        W30051  14.872   6.807  14.209  0.0776 -0.2321 -0.1032
14583W        W30052  15.840  14.784   4.870  0.0606 -0.2623 -0.0748
14584W        W30053   8.142  17.072   0.616  0.2709 -0.2177  0.1031
14585W        W30054   4.879   1.053   3.490 -0.3212  0.1768 -0.1517
14586W        W30055  12.010  13.576  12.548 -0.0375  0.0401  0.0234
14587W        W30056   9.009  16.434  10.500 -0.1466 -0.0419 -0.4626
14588W        W30057  16.576  17.140   3.323  0.1420 -0.0018  0.0130
14589W        W30058  11.546   7.799   3.926 -0.2750 -0.3384 -0.0375
14590W        W30059   7.596  11.177   4.701 -0.1104 -0.4009  0.0456
14591W        W30060   8.323   4.180   0.189 -0.1285  0.1018  0.2568
14592W        W30061  18.446  18.699   5.997 -0.1366  0.3397  0.0682
14593W        W30062   6.085   3.348   0.539 -0.1836  0.0932 -0.3137
14594W        W30063   1.199  16.492   3.884  0.2141 -0.2246  0.2204
14595W        W30064  17.243   3.515   0.622  0.0360 -0.2162 -0.0665
14596W        W30065  15.071   5.162  11.550  0.0335  0.1923 -0.2158
14597W        W30066  11.950  18.764   1.025 -0.0284  0.1892 -0.0571
14598W        W30067  14.384   0.615  14.092 -0.2312 -0.2567  0.0026
14599W        W30068   8.128   2.865   1.131  0.1572 -0.0475  0.1311
14600W        W30069   5.132  14.669   2.430 -0.1186 -0.1532  0.0927
14601W        W30070   7.022   5.688  14.997 -0.1095 -0.0991 -0.1751
14602W        W30071  17.448  12.498   0.911  0.0951  0.0683 -0.0641
14603W        W30072   4.304   9.713   1.410  0.0645 -0.2118 -0.3127
14604W        W30073  12.540   9.537   3.158 -0.2869 -0.1357 -0.0031
14605W        W30074  14.253   0.457   5.695 -0.2613  0.0014  0.0566
14606W        W30075   5.102   5.998  11.400  0.3872 -0.1045 -0.0116
14607W        W30076   9.675  16.534   4.786  0.0882  0.3785  0.0589
14608W        W30077  12.702  15.081  14.051  0.0719  0.1071  0.0234
14609W        W30078   7.010  14.011   9.669  0.3425  0.0227 -0.1911
14610W        W30079   9.545   5.276  13.341 -0.1336  0.1841 -0.1294
14611W        W30080  18.301   0.215  13.922  0.0870  0.0428 -0.1623
14612W        W30081  10.316  17.751  10.233  0.0273  0.0179  0.1207
14613W        W30082   7.568  17.824   5.241 -0.1802 -0.0819 -0.1526
14614W        W30083   3.532  15.433   1.679 -0.3348  0.1203  0.1662
14615W        W30084   3.972   6.111   4.803  0.0311  0.3521 -0.2225
14616W        W30085   6.976   8.539  13.402 -0.0548  0.0277 -0.5460
14617W        W30086  13.392  18.390   4.455  0.4792  0.0491 -0.1747
14618W        W30087   8.750   5.335   0.595 -0.2115 -0.1875  0.1626
14619W        W30088  15.591  16.872  13.932  0.1723 -0.0822 -0.0372
14620W        W30089   1.849  11.380   3.763 -0.0961 -0.3006  0.1661
14621W        W30090   3.845  16.338   3.638  0.0511  0.3851  0.0650
14622W        W30091  18.216  16.159  11.386  0.0555 -0.0759 -0.0598
14623W        W30092  10.614   5.870   2.861 -0.1535  0.0112  0.1442
14624W        W30093   8.892  12.964  12.914  0.0860  0.0833  0.1166
14625W        W30094   7.295   8.012  15.124 -0.0791 -0.3206 -0.1343
14626W        W30095   3.792   2.291  11.961 -0.0694  0.0842 -0.2133
14627W        W30096  11.553   2.882   0.107  0.4660  0.3140 -0.1427
14628W        W30097   4.318  16.837  14.744  0.0041  0.1586 -0.2212
14629W        W30098  12.122  18.435   2.713  0.1247 -0.0533  0.4840
14630W        W30099  15.559   3.681  11.600  0.1351 -0.1088 -0.0097
14631W        W30100  17.514   5.800  14.987 -0.0024 -0.1527  0.1209
14632W        W30101   2.400  10.306   3.849 -0.1368 -0.1012  0.2355
14633W        W30102   6.539   0.131   0.520  0.0860  0.0461 -0.1226
14634W        W30103  13.633  18.126   3.119  0.0562  0.3195 -0.2666
14635W        W30104  18.067   8.377  11.846  0.0133 -0.2033  0.0679
14636W        W30105  13.290  11.818   0.614 -0.0307 -0.2536  0.1423
14637W        W30106   5.799  12.131   1.614  0.0713 -0.1752  0.0229
14638W        W30107  14.346   7.292   4.621 -0.1227  0.4035  0.1716
14639W        W30108  10.074   6.556   4.469  0.1177  0.1685  0.1451
14640W        W30109   4.063  11.708  14.293 -0.2357  0.0100  0.0127
14641W        W30110   6.950   9.010   2.475  0.4756  0.2756  0.1868
14642W        W30111   3.489  12.968   2.996 -0.1156  0.0545  0.3248
14643W        W30112  13.923   0.169  12.717  0.0060  0.1004 -0.3794
14644W        W30113   3.978   2.279   1.755  0.2175 -0.2891  0.1406
14645W        W30114  17.191  15.703  11.075 -0.0151  0.2842  0.1043
14646W        W30115   2.657   4.085   2.670  0.0188 -0.3859 -0.1053
14647W        W30116  13.788  10.265  14.038  0.2606  0.0896 -0.3462
14648W        W30117  15.544  18.644   1.085  0.0418  0.1991 -0.0378
14649W        W30118   2.835  15.650   4.115  0.0004 -0.1046 -0.0127
14650W        W30119   7.952  14.163  11.841  0.2099 -0.1433  0.3239
14651W        W30120   4.878  10.983  11.160 -0.2963 -0.4549  0.1177
14652W        W30121   8.400  14.851   0.665 -0.1644 -0.0692 -0.0739
14653W        W30122  18.130  10.444  12.253  0.0570  0.1146  0.0186
14654W        W30123  13.572  15.119   1.650  0.0017 -0.2506 -0.0536
14655W        W30124   1.727   9.470   3.590 -0.0450  0.1328 -0.3222
14656W        W30125   9.470  12.623   5.577  0.1977 -0.2300 -0.0863
14657W        W30126   1.887  12.105  15.319  0.0414  0.0279  0.0017
14658W        W30127  15.575  11.471  14.822  0.0855  0.1723 -0.0310
14659W        W30128  16.818   0.503   1.477  0.1722 -0.1483  0.1831
14660W        W30129   5.085   8.797   3.986  0.2814  0.1809  0.1242
14661W        W30130   7.172   7.529  14.109  0.0385 -0.0500  0.3565
14662W        W30131   1.874   2.011   1.095 -0.1466  0.2637  0.0813
14663W        W30132   0.213   3.707  12.177 -0.0371 -0.0321 -0.1464
14664W        W30133  16.092  12.427   2.565  0.0187  0.1249 -0.3774
14665W        W30134   3.160   8.124  11.253  0.3126  0.1670 -0.0018
14666W        W30135   3.178  16.352   3.698 -0.0096  0.1090 -0.0555
14667W        W30136  10.564  15.713   5.824  0.0880  0.0793 -0.0832
14668W        W30137  11.355   9.321  14.635 -0.2516 -0.2449 -0.2495
14669W        W30138  11.059  16.844   3.019 -0.3647 -0.1777 -0.1811
14670W        W30139   4.510   4.960   1.408 -0.0934 -0.1553 -0.2382
14671W        W30140   0.273   2.738   2.302  0.0508 -0.2183  0.0737
14672W        W30141  17.037  14.195   2.374 -0.1004 -0.2334 -0.1123
14673W        W30142   9.699  17.644   1.963  0.0555  0.3243 -0.2902
14674W        W30143  11.179  10.649  12.403 -0.0326  0.2461  0.0383
14675W        W30144  12.601   9.101   0.263 -0.1548 -0.3370  0.0483
14676W        W30145   3.947   1.048  10.349  0.3288  0.2981  0.0356
14677W        W30146  13.820   9.506   0.040  0.0473  0.3194 -0.1787
14678W        W30147   5.707  13.927  14.572  0.2326 -0.0948 -0.0005
14679W        W30148   0.743   0.929   3.409 -0.2588  0.1567 -0.0123
14680W        W30149   4.873   1.299  14.202 -0.1089  0.2301 -0.2028
14681W        W30150   7.460  14.557   1.390  0.0180  0.2530 -0.0269
14682W        W30151  13.020   9.912   4.842  0.0247  0.1035 -0.0213
14683W        W30152  10.289  11.652  10.254  0.0820  0.0145 -0.0821
14684W        W30153   0.722   8.271   2.157 -0.1072 -0.3527  0.0085
14685W        W30154   1.776  17.911   2.594 -0.2410  0.1505 -0.2782
14686W        W30155   1.536  12.701  12.464  0.2177 -0.2484  0.3983
14687W        W30156  12.238  13.108   1.296 -0.1504 -0.2477 -0.0876
14688W        W30157   8.043  12.355  13.020 -0.4132 -0.0052  0.1191
14689W        W30158   3.809   3.859  15.195  0.0241 -0.4205  0.1100
14690W        W30159  11.418  14.891   1.609 -0.0577 -0.0816  0.2929
14691W        W30160  11.100   7.480  13.701  0.0561 -0.0784  0.1186
14692W        W30161  12.051   8.500  10.396 -0.1315 -0.0482  0.1182
14693W        W30162  17.862   6.311   3.279 -0.0830 -0.0838 -0.0052
14694W        W30163  13.972   3.033  11.062 -0.0003  0.1277  0.0739
14695W        W30164   2.519   6.663   4.744  0.0327 -0.0214  0.0486
14696W        W30165  17.042   1.894   5.237  0.2505 -0.0660 -0.0329
14697W        W30166  13.733   4.671  10.944  0.1246 -0.0291  0.1283
14698W        W30167  12.038   5.354   0.844  0.1335 -0.0594 -0.0010
14699W        W30168   0.914   0.906   4.610 -0.2868  0.1981  0.1788
14700W        W30169   7.585  18.616   0.102  0.2867  0.1254 -0.0114
14701W        W30170   7.850  14.991   0.087  0.1462  0.3149  0.0110
14702W        W30171  10.912   0.848  11.119 -0.0195  0.0970 -0.0180
14703W        W30172   5.925   6.846   3.442 -0.1069  0.3531 -0.2184
14704W        W30173  14.129   8.249  14.005 -0.0322 -0.1406  0.1500
14705W        W30174   0.757  15.855   2.600  0.1254 -0.2712 -0.0534
14706W        W30175   9.175   6.408  14.000  0.1193 -0.0278 -0.0117
14707W        W30176  18.496   7.958   3.468 -0.3019 -0.0440  0.3184
14708W        W30177  11.941   2.758   1.564 -0.2369 -0.0727 -0.0073
14709W        W30178  16.130  18.554   2.528  0.1882  0.3231 -0.0421
14710W        W30179  10.053   3.312   0.175  0.0305  0.0891  0.0833
14711W        W30180   5.727   6.197  12.307  0.1772  0.1980 -0.1573
14712W        W30181   7.941  15.991  12.432 -0.0192 -0.3270  0.0546
14713W        W30182  12.082  12.452  13.738 -0.1615  0.1156  0.0095
14714W        W30183  12.397   9.703  10.212 -0.1830  0.1302  0.0697
14715W        W30184   3.042   1.876   2.686  0.2096 -0.1073  0.0886
14716W        W30185  12.331   9.795   1.890 -0.2209 -0.0417  0.0831
14717W        W30186   8.129  10.286   0.474 -0.0208 -0.3965 -0.3500
14718W        W30187  11.912  16.441  10.965  0.1672  0.1572 -0.2553
14719W        W30188  14.150  11.728  11.380 -0.0738 -0.1117  0.0468
14720W        W30189   5.847   9.380   2.359  0.1818 -0.1456 -0.1958
14721W        W30190   4.147  17.932  15.301 -0.1277 -0.0306  0.0629
14722W        W30191   0.297  11.470   2.866  0.1734  0.3867 -0.0340
14723W        W30192  15.544   9.055  13.213  0.3194 -0.0834 -0.0770
14724W        W30193   6.793  10.428   2.675 -0.0951  0.1405 -0.2211
14725W        W30194   9.389  15.164  10.717  0.0758 -0.2876  0.3222
14726W        W30195   9.621  17.348   2.873 -0.0990  0.1629  0.3219
14727W        W30196  10.457   1.896  15.275  0.3733  0.3085  0.0898
14728W        W30197  13.249   5.655   2.158  0.2540  0.1281 -0.2466
14729W        W30198  18.690   6.033  12.864 -0.2043  0.0248  0.2013
14730W        W30199  11.844  15.986  14.032 -0.3323 -0.0564 -0.1057
14731W        W30200   1.634  16.821   3.804 -0.1009 -0.2821 -0.4642
14732W        W30201   3.750   1.258  11.921  0.0471  0.2651  0.1507
14733W        W30202   4.866   7.406   0.510 -0.1774 -0.1353  0.0914
14734W        W30203  11.521  11.158  15.579  0.2115  0.1153 -0.2156
14735W        W30204   0.269   6.116  13.413 -0.0595 -0.1274 -0.1002
14736W        W30205  16.132  10.175  15.049  0.0628  0.0054 -0.2350
14737W        W30206   1.181  14.218   1.177  0.0086 -0.1032  0.1713
14738W        W30207   6.141   1.094   5.428  0.1827 -0.0834 -0.0768
14739W        W30208   4.048  14.208   0.653  0.1957 -0.1663  0.3173
14740W        W30209  15.594   3.602   3.002  0.1441  0.2056  0.0925
14741W        W30210   0.905   7.422  13.069  0.1644 -0.0791 -0.0771
14742W        W30211   0.712   6.613   2.951 -0.0829 -0.2474  0.1474
14743W        W30212  17.189  13.477  13.090 -0.0728  0.0078 -0.1761
14744W        W30213  14.098  16.899  15.136 -0.1263  0.0007 -0.2380
14745W        W30214  10.399   2.197  11.220  0.1759 -0.0816 -0.3875
14746W        W30215  10.134  18.031  12.626 -0.1548 -0.3369  0.0419
14747W        W30216  12.725   1.917  12.467  0.0446 -0.1936  0.0042
14748W        W30217   0.798   6.384  10.482  0.0792  0.3897 -0.0297
14749W        W30218   3.479   8.631  13.174 -0.2577  0.2383 -0.1944
14750W        W30219   0.356   1.074  12.469  0.0671 -0.0181 -0.1135
14751W        W30220  14.049  13.929   1.028  0.0567 -0.3729 -0.2873
14752W        W30221   7.417  18.044  10.548  0.0947 -0.0084 -0.0551
14753W        W30222   8.651   9.972   1.674 -0.2418 -0.0755 -0.0137
14754W        W30223  16.300   6.627   3.950  0.0896 -0.2448 -0.2630
14755W        W30224  15.999   7.548   3.842 -0.2145  0.2027 -0.1172
14756W        W30225  11.933   5.029   2.806 -0.2708 -0.2680  0.2230
14757W        W30226  13.457  15.372   2.058  0.1046 -0.2712 -0.2860
14758W        W30227  12.361  15.112   3.785 -0.1078  0.1723  0.0604
14759W        W30228   9.202  10.594   3.306  0.1290  0.2044  0.2935
14760W        W30229  13.184  16.285  11.245 -0.1414  0.1451  0.2951
14761W        W30230  11.656  12.418  14.232  0.1744 -0.1335  0.0118
14762W        W30231   3.128  17.469  12.009 -0.0527  0.1671 -0.0253
14763W        W30232  13.124   9.051   1.111 -0.1113  0.0108 -0.1746
14764W        W30233   4.697   9.019  12.141  0.2488  0.3943 -0.2583
14765W        W30234   7.949  16.146  15.397 -0.1995 -0.4027  0.0059
14766W        W30235   3.476  12.570  14.833 -0.0047 -0.1024 -0.1708
14767W        W30236  17.050   1.006  11.311  0.0406  0.2075  0.1785
14768W        W30237  16.968  16.974   1.183 -0.3531  0.2545  0.1204
14769W        W30238   3.881   9.320   2.822  0.1860 -0.0735  0.0639
14770W        W30239   0.680   7.711  14.277 -0.0343  0.3526 -0.0680
14771W        W30240   7.775  13.941   2.000  0.1903 -0.3831  0.1820
14772W        W30241   9.034  11.109  13.865 -0.1003  0.0466  0.0948
14773W        W30242   1.240   0.909  11.348 -0.0934 -0.0736 -0.1327
14774W        W30243   7.369   3.772   4.808  0.1532 -0.0048  0.3400
14775W        W30244   0.956  10.339  14.881  0.0543  0.0603 -0.1006
14776W        W30245   2.497   2.054   0.414 -0.0977  0.0691 -0.0386
14777W        W30246   4.639  17.936   4.239  0.3218  0.1991 -0.1369
14778W        W30247  12.424  14.033   3.890  0.1770 -0.2054 -0.0656
14779W        W30248   0.528  11.528  10.187  0.4266 -0.0705 -0.2627
14780W        W30249   8.702  18.447   3.871  0.0005  0.0515  0.1324
14781W        W30250  17.481   6.529   0.414  0.3759  0.1202  0.0785
14782W        W30251   1.415  11.557   5.402  0.0571  0.1277  0.1356
14783W        W30252   2.724   0.426   0.044  0.3746 -0.3118 -0.1964
14784W        W30253   9.079   8.761   1.116  0.1678 -0.1450  0.0934
14785W        W30254   4.089   3.317  13.380 -0.0803  0.0312 -0.1407
14786W        W30255  12.632  17.711   2.440  0.0599  0.1352  0.0713
14787W        W30256  15.107   2.368   0.434 -0.0352  0.0876  0.0095
14788W        W30257  17.379  12.275   5.508 -0.0367 -0.2797  0.0110
14789W        W30258  10.727  18.660  11.219 -0.1102 -0.1194  0.0997
14790W        W30259   2.020   8.629  11.685  0.0418  0.1639 -0.1754
14791W        W30260   0.647  17.903  12.569 -0.2627  0.0019  0.0091
14792W        W30261  16.024   0.079   1.003 -0.0102  0.0609 -0.2025
14793W        W30262   0.407   9.608   4.731  0.0716  0.1180  0.1645
14794W        W30263  13.599   8.355  11.686  0.1265  0.0518  0.3646
14795W        W30264   0.723  14.335   3.330  0.1061  0.0633 -0.1411
14796W        W30265   2.258   8.481  12.564 -0.1987  0.4172  0.2306
14797W        W30266   2.865   5.958  11.431  0.1264  0.1584 -0.2073
14798W        W30267  10.902   0.334  11.032  0.1297  0.1487  0.2601
14799W        W30268   6.465  11.503  12.333  0.0231  0.1153  0.1018
14800W        W30269  10.725  16.657  14.486 -0.4176 -0.1915  0.2496
14801W        W30270  15.561   6.020   4.143 -0.2949 -0.1637  0.0893
14802W        W30271  10.444  13.062  11.589 -0.2237 -0.0372  0.0708
14803W        W30272  14.555  11.549  10.281  0.0333  0.0237 -0.2507
14804W        W30273  12.390  18.046   2.827 -0.1489  0.0603  0.1725
14805W        W30274   6.201   9.942  12.656 -0.0620 -0.0091  0.0979
14806W        W30275   0.252   8.872   2.876 -0.0219 -0.0580  0.0677
14807W        W30276  13.146   1.934  12.176 -0.1357  0.2890  0.2714
14808W        W30277   9.140  13.826  14.777 -0.0900  0.0181  0.0062
14809W        W30278   9.341  17.569   1.561 -0.1768  0.2612 -0.0941
14810W        W30279   4.935   8.087  10.889  0.2471  0.1899 -0.0508
14811W        W30280   9.416  16.191   1.270 -0.1210 -0.1866  0.2687
14812W        W30281  15.018   3.882  10.093 -0.1966  0.0082  0.3050
14813W        W30282   1.677   3.704  13.391  0.1087  0.0117  0.2451
14814W        W30283  18.224   8.024   2.198  0.1259 -0.1984 -0.0351
14815W        W30284   0.405   3.344   1.605 -0.3493  0.3079  0.1023
14816W        W30285  17.497  16.369   4.157  0.0851 -0.4140 -0.3944
14817W        W30286  16.450   0.160  10.965 -0.2344 -0.1023 -0.0209
14818W        W30287   1.862   8.337  13.262  0.0971 -0.0906  0.2465
14819W        W30288  11.987   4.235  14.738  0.1249 -0.0549 -0.2859
14820W        W30289   5.440  12.304   3.029 -0.4534 -0.0417  0.4746
14821W        W30290   9.428  12.773   1.051 -0.1453  0.1348 -0.0681
14822W        W30291  18.104  10.114   2.097  0.2308 -0.4241  0.2637
14823W        W30292   1.576   8.017  14.483 -0.0298 -0.3578 -0.0018
14824W        W30293   5.338  13.240  14.348  0.4269  0.4158 -0.0819
14825W        W30294   8.951   7.307   0.712 -0.0218  0.3895  0.0426
14826W        W30295  18.092   3.360   4.841 -0.2170 -0.0304  0.1455
14827W        W30296   4.155  15.060  13.050 -0.0557  0.2660 -0.1956
14828W        W30297  18.408  15.579   0.042  0.0938 -0.0242 -0.1466
14829W        W30298  14.457   0.754  15.587  0.0962  0.1260  0.2112
14830W        W30299  11.988   6.639   2.690  0.4608  0.1861  0.0576
14831W        W30300   3.477  17.930   0.140 -0.1443 -0.2793  0.0409
14832W        W30301  16.747  11.401  11.406  0.1921 -0.2575  0.1870
14833W        W30302  16.392   6.060   4.748  0.0359 -0.0954  0.0962
14834W        W30303   3.254  11.372   0.977  0.0935 -0.0007  0.1799
14835W        W30304  16.684  16.324   1.590  0.0539  0.5623  0.1402
14836W        W30305  15.805  13.405  14.334 -0.2085  0.1687  0.3760
14837W        W30306   9.694   5.093  14.784 -0.2539 -0.1364  0.0653
14838W        W30307   4.292   3.368  14.834 -0.0241  0.0212 -0.1251
14839W        W30308   2.432   6.901  15.373 -0.0646  0.2745 -0.0987
14840W        W30309  17.962  10.201  13.532  0.2268  0.2460 -0.1365
14841W        W30310   9.226   2.716   0.217  0.2699  0.1839  0.1074
14842W        W30311   5.646  10.530  10.648 -0.2608 -0.1048 -0.0470
14843W        W30312  15.935   3.036  15.282  0.2226  0.3081  0.0784
14844W        W30313  16.523  15.918   1.442  0.0421 -0.0269 -0.1042
14845W        W30314  11.592   8.935  13.408  0.1088  0.0186 -0.1935
14846W        W30315   6.635  10.168   3.477  0.2793 -0.0539 -0.2181
14847W        W30316  16.189   4.707  15.428 -0.0632  0.0102 -0.0814
14848W        W30317  16.132   0.981  15.454 -0.0247  0.3324  0.2821
14849W        W30318  17.259  17.352  11.856 -0.3432  0.1543  0.1557
14850W        W30319   5.506  15.806   3.777  0.1264  0.1760  0.2031
14851W        W30320  18.234   2.483  14.804  0.0210  0.2037 -0.0821
14852W        W30321   1.046   9.311  11.876  0.2810  0.5400  0.2331
14853W        W30322   3.720  16.959   3.825 -0.1171  0.1920 -0.0830
14854W        W30323  18.123  18.645   2.075 -0.0949  0.1221  0.1814
14855W        W30324   7.871  12.792   4.226  0.1596  0.5023 -0.0703
14856W        W30325  15.424  15.201  13.141 -0.0707 -0.2109 -0.0114
14857W        W30326  13.044   4.678  12.395 -0.2038 -0.2296 -0.3265
14858W        W30327   1.333  11.242  12.201 -0.1390  0.1781 -0.0621
14859W        W30328  17.067  12.497  13.212  0.2324  0.1396 -0.3714
14860W        W30329   2.128   2.794   0.496 -0.3912 -0.0255  0.0599
14861W        W30330   9.313   9.202   1.224 -0.1356  0.0261  0.0543
14862W        W30331   1.497  11.316  14.856 -0.2098 -0.2200  0.1814
14863W        W30332   4.188  17.243  14.974  0.3074  0.1869 -0.2910
14864W        W30333   9.466   3.691   4.387 -0.0265  0.0585 -0.0656
14865W        W30334   5.884  12.913   0.476  0.1089  0.2168 -0.1950
14866W        W30335   6.716  14.421   3.561  0.4412 -0.0966  0.3043
14867W        W30336  10.202   8.755   0.151 -0.2396 -0.0300 -0.0523
14868W        W30337   3.639   0.838  10.744  0.1664  0.3055  0.0757
14869W        W30338   4.409   6.345   1.702 -0.1607  0.1157  0.5216
14870W        W30339  14.183  11.227   1.700  0.3817  0.0387  0.0087
14871W        W30340   9.262  14.774   4.164 -0.1565 -0.3923  0.1716
14872W        W30341  17.736   5.116   2.276  0.1685 -0.0891  0.0328
14873W        W30342   1.695  15.056   5.896  0.0300  0.0423 -0.1836
14874W        W30343  18.578  14.365   3.723  0.0088  0.0852 -0.1178
14875W        W30344   0.773   3.038   1.447  0.1136  0.2992 -0.0581
14876W        W30345   3.722   4.296  13.531  0.2954  0.2072 -0.3306
14877W        W30346   0.321   4.160  12.081  0.0650 -0.0415  0.0091
14878W        W30347  17.375   9.173  10.868 -0.3187  0.1020  0.0566
14879W        W30348  13.650   0.432   2.710 -0.0709  0.0507 -0.0470
14880W        W30349  12.669  14.738   3.700  0.2542  0.2574 -0.0085
14881W        W30350  14.076   6.127  12.679 -0.3052 -0.3983 -0.1845
14882W        W30351  14.950   7.274  15.455  0.4143 -0.1514 -0.2076
14883W        W30352  18.011  16.392  14.048  0.1689  0.0142 -0.0587
14884W        W30353   1.564   7.429   4.097 -0.1259  0.1907  0.4222
14885W        W30354  14.687  17.618  11.383  0.0915  0.1852  0.2088
14886W        W30355   0.964   1.851   3.339  0.0495 -0.1114  0.1527
14887W        W30356   8.015  14.270   2.922  0.1308  0.0814 -0.2908
14888W        W30357  15.908   9.817   5.657 -0.1550  0.0320  0.5006
14889W        W30358   3.220  17.189  11.237 -0.2302  0.3141 -0.1075
14890W        W30359  12.538   2.676  11.768  0.0686 -0.1396 -0.0145
14891W        W30360   4.167   3.582   3.588 -0.3224  0.0729  0.0244
14892W        W30361   2.650  10.820  14.317  0.0884  0.4649  0.1151
14893W        W30362   3.251  13.116  11.274  0.0424  0.1612  0.2188
14894W        W30363   7.672   2.505   1.073  0.1045 -0.2205  0.0258
14895W        W30364   8.990  11.332   0.209 -0.3486 -0.1003  0.0150
14896W        W30365   4.924  13.903  13.297  0.2297 -0.3256  0.4589
14897W        W30366   5.393   8.579   1.571 -0.0659 -0.1972  0.1017
14898W        W30367  13.517   8.982   1.464  0.0874  0.2102  0.1283
14899W        W30368  15.250   5.605   0.061  0.0182  0.1519  0.1245
14900W        W30369   0.350   9.613  12.096 -0.0737  0.0289 -0.0831
14901W        W30370  11.571  13.614  14.854  0.0299  0.2257  0.0515
14902W        W30371  15.507   0.021  12.069 -0.3720 -0.1763 -0.1639
14903W        W30372  17.673   5.320  14.119  0.0778  0.0750 -0.1324
14904W        W30373   3.228   3.704  12.428 -0.0957  0.1719 -0.2406
14905W        W30374  13.191   2.539  13.364  0.1989 -0.3480  0.1633
14906W        W30375   4.931  10.781   2.214  0.0299  0.0418  0.1832
14907W        W30376   0.873   8.539   4.764 -0.2577 -0.0231  0.1011
14908W        W30377  12.081  13.114   2.614  0.0313 -0.0833  0.3677
14909W        W30378  14.124  11.488  12.432 -0.3314 -0.1036 -0.3436
14910W        W30379   2.800  13.473   2.471 -0.1369 -0.0221  0.0649
14911W        W30380   7.838  15.694   3.920  0.0756 -0.1759 -0.1109
14912W        W30381   5.328   9.090  12.709 -0.0389  0.3340  0.2853
14913W        W30382   2.385  10.959   1.928 -0.1426  0.1358 -0.1023
14914W        W30383  13.606  17.777   1.953 -0.0281  0.3487 -0.0083
14915W        W30384  11.365  16.442   4.586 -0.0643  0.1467 -0.1975
14916W        W30385   6.370  12.891   4.813 -0.0250 -0.0482 -0.2264
14917W        W30386  15.842  13.542  12.470  0.2540  0.0002  0.0598
14918W        W30387   9.919   4.572   4.820 -0.0823  0.0630 -0.0738
14919W        W30388  10.332   3.280  13.059 -0.0668  0.2733  0.0361
14920W        W30389  14.465  11.422  15.474 -0.1012 -0.0688  0.0750
14921W        W30390   3.254   1.482   0.851 -0.0351  0.2219  0.1549
14922W        W30391  10.500   7.438   5.645  0.0589  0.0153  0.1623
14923W        W30392   8.400  14.312   0.649 -0.0421 -0.3913 -0.2539
14924W        W30393  11.726   8.421  12.679 -0.1072  0.0844  0.0218
14925W        W30394  16.616  14.847   1.337 -0.2478  0.2570  0.0162
14926W        W30395  14.134  10.085  11.114 -0.0480 -0.0223  0.2757
14927W        W30396   4.082  16.413   1.588  0.0317  0.1574 -0.1273
14928W        W30397  17.180  16.487  12.449 -0.2678  0.3436  0.0204
14929W        W30398   0.722  11.769   0.532  0.2699  0.0474  0.0215
14930W        W30399   5.293   6.974  13.418  0.2574  0.0351  0.0269
14931W        W30400   3.891  14.619   2.769 -0.1669 -0.0823 -0.2057
14932W        W30401   2.341   9.192  14.713  0.3682 -0.1315 -0.0807
14933W        W30402   1.867   3.204  14.194 -0.2206  0.2018  0.3160
14934W        W30403  17.319   5.357   0.943 -0.2121 -0.0630  0.0694
14935W        W30404   2.727  11.069  15.040  0.1287  0.0674  0.1695
14936W        W30405   9.634  12.174   1.825  0.4633 -0.1103 -0.0547
14937W        W30406  14.608  17.715  10.894  0.0371  0.3137 -0.1437
14938W        W30407   9.678   3.805   1.627  0.0740  0.3090 -0.1099
14939W        W30408   9.714   4.627   2.000 -0.2315 -0.3042 -0.0583
14940W        W30409  15.935   3.638  14.200 -0.0080  0.2578 -0.0603
14941W        W30410   2.203  18.018   6.076  0.0640 -0.0058  0.3197
14942W        W30411   3.412  12.157  13.741 -0.5040  0.1117 -0.1159
14943W        W30412   3.671  17.610  13.406  0.3505 -0.2507 -0.0213
14944W        W30413  11.118  12.163  11.282  0.1210  0.0151 -0.0594
14945W        W30414   3.690  16.351   6.194 -0.0733  0.0327  0.2275
14946W        W30415  10.689   7.598   4.061  0.2237 -0.2819 -0.2157
14947W        W30416  18.149  14.940   4.785 -0.2075 -0.1605 -0.1555
14948W        W30417   0.750  11.083  10.545  0.1603 -0.2258 -0.2179
14949W        W30418  14.519  10.139   0.731 -0.1792 -0.0081  0.2313
14950W        W30419  12.821   1.953   4.548 -0.2210  0.0863  0.4569
14951W        W30420  17.665   1.449  14.385  0.2028 -0.3609 -0.0943
14952W        W30421  14.344   8.292  12.385  0.1386 -0.1093 -0.0707
14953W        W30422   3.681   4.429  14.082  0.2915  0.2906 -0.3806
14954W        W30423   6.025   0.431  12.017  0.2672  0.0180 -0.0644
14955W        W30424  11.060   6.657   3.827  0.1066  0.4020 -0.0139
14956W        W30425   8.540   6.980  14.128  0.2390  0.0403  0.2648
14957W        W30426   6.667  14.049   0.907 -0.0881 -0.3349 -0.1601
14958W        W30427  15.397   4.247  14.492 -0.0592 -0.0347  0.0340
14959W        W30428   9.902   7.608   0.770 -0.2996 -0.2284  0.0705
14960W        W30429   8.444  12.179  11.822  0.0390  0.1457 -0.2098
14961W        W30430  12.516  15.671   2.434  0.2224  0.0951  0.2223
14962W        W30431   4.322  17.581   3.914 -0.2032 -0.0902  0.0075
14963W        W30432   0.028  17.856   3.499  0.1302  0.1049 -0.3958
14964W        W30433  10.908   7.510   2.067 -0.2295 -0.1140  0.4106
14965W        W30434  10.506  17.939   4.268  0.2416  0.0298  0.1066
14966W        W30435  11.595   3.421  14.414 -0.2784 -0.1948 -0.0087
14967W        W30436   7.364   3.095   0.355  0.1623 -0.1002  0.0732
14968W        W30437  11.051  15.160  14.139 -0.0064 -0.1545 -0.0984
14969W        W30438   2.066  10.607   4.226 -0.2382 -0.1607 -0.0882
14970W        W30439   1.263   4.512   0.592  0.0513  0.2898  0.0615
14971W        W30440  12.209  14.625  12.323 -0.2168  0.0081  0.0415
14972W        W30441  13.328  12.335   4.587  0.0612 -0.0189  0.0282
14973W        W30442   6.597   9.223  12.221 -0.1565  0.0097 -0.0337
14974W        W30443   3.487   7.481   0.094 -0.0433 -0.0319  0.2624
14975W        W30444   8.942   5.579  14.330 -0.0905 -0.0254 -0.1572
14976W        W30445  11.872   9.170   3.916  0.1445  0.1493 -0.3811
14977W        W30446   6.610  13.923  14.037 -0.0533  0.3450 -0.0463
14978W        W30447   6.289   0.153   4.779  0.0818  0.3757 -0.3266
14979W        W30448   5.315   0.494  14.760  0.0740 -0.0758 -0.1190
14980W        W30449   0.894  13.473   2.851  0.0220  0.0549 -0.1091
14981W        W30450  16.413  13.618   0.152  0.0287  0.0992  0.4009
14982W        W30451  15.512  17.242   0.671 -0.0744 -0.1022  0.2093
14983W        W30452  16.770  18.593  14.007  0.1307  0.1077 -0.1331
14984W        W30453  11.716   5.149   1.997  0.0888  0.0972  0.2583
14985W        W30454  18.307  17.318   0.583 -0.0435  0.1189 -0.1221
14986W        W30455  14.112   0.642   4.745 -0.1684 -0.1190  0.0395
14987W        W30456  13.448  12.879  12.257 -0.0604  0.2427 -0.3346
14988W        W30457   6.757  17.766   3.989  0.1043  0.1725  0.0140
14989W        W30458   5.967  12.371  13.640  0.3052  0.0394  0.2190
14990W        W30459  16.039  10.201   1.621 -0.1983  0.4340  0.0745
14991W        W30460   6.229   5.084  13.936  0.0724 -0.1759  0.0706
14992W        W30461   5.809   8.494   2.521  0.0245 -0.0071  0.0272
14993W        W30462   8.751  11.970   0.913  0.0621 -0.0535  0.1399
14994W        W30463   6.988   8.075  10.777 -0.1469 -0.1206 -0.1783
14995W        W30464   7.468  15.359   4.765 -0.2358 -0.2281 -0.2222
14996W        W30465   0.594   9.766   4.120 -0.0788 -0.0805  0.5007
14997W        W30466  16.391  17.884   0.374 -0.1918 -0.2620  0.0111
14998W        W30467   8.271   0.694  14.329  0.0195  0.1370 -0.0056
14999W        W30468   0.250   4.449  15.467 -0.0104  0.0560 -0.2727
15000W        W30469  15.511   0.798   1.380 -0.3100  0.0582 -0.0706
15001W        W30470  17.757   5.303  14.700  0.0433 -0.1449 -0.0397
15002W        W30471   9.752  12.678  15.457 -0.0358  0.1792 -0.2243
15003W        W30472   3.128   9.557   1.898 -0.1928  0.1206  0.0986
15004W        W30473   6.841  13.977   3.339  0.0975  0.3850 -0.0706
15005W        W30474  11.277   6.572   0.005  0.0862  0.0729 -0.3468
15006W        W30475   3.193   1.807  15.396 -0.1763 -0.0942 -0.0789
15007W        W30476   3.060   3.378  15.663  0.2338  0.1198  0.0230
15008W        W30477  17.448  11.109   4.059  0.1367  0.0888  0.0438
15009W        W30478   8.958   4.318   4.859  0.0413 -0.1210 -0.0539
15010W        W30479   7.468   8.615   2.681  0.2878 -0.1746  0.0175
15011W        W30480   7.588   0.626  14.577 -0.0273  0.2572  0.1312
15012W        W30481   5.226  14.078   5.577  0.0005  0.0105 -0.0220
15013W        W30482   4.147  15.324   2.433  0.1428 -0.2862 -0.2162
15014W        W30483  12.772   7.235   4.483  0.1526  0.0906 -0.1026
15015W        W30484   1.032  11.557  12.069  0.1873 -0.0844 -0.0005
15016W        W30485   8.994   6.129   2.046 -0.2472  0.1065  0.0810
15017W        W30486   7.098   9.049   0.565 -0.1474  0.1631  0.2974
15018W        W30487   8.309  11.501  11.306  0.1650  0.0331  0.0748
15019W        W30488   7.744   5.201   2.423 -0.1938 -0.0141 -0.1135
15020W        W30489   9.757  16.385   2.483 -0.2029 -0.0511 -0.4079
15021W        W30490  13.410  14.897  14.967 -0.0569  0.3263 -0.2329
15022W        W30491  15.227  10.999   1.510  0.0897 -0.1618 -0.1341
15023W        W30492   3.680   8.607   4.231  0.2694  0.2167 -0.0459
15024W        W30493  13.364   9.255   0.440  0.0890  0.1726  0.1053
15025W        W30494   4.841   1.997  15.617  0.1344 -0.2748  0.2998
15026W        W30495  18.217  17.888   0.375  0.1529  0.1881  0.1917
15027W        W30496   4.442   3.442  14.350  0.1875 -0.0452 -0.0397
15028W        W30497   4.342   8.263   2.689  0.4829 -0.2532 -0.2694
15029W        W30498   0.158   5.744  12.422  0.1130 -0.1654  0.0651
15030W        W30499  14.179   8.898  14.661 -0.0686 -0.0060 -0.1350
15031W        W30500   8.730  17.554  13.731 -0.0822 -0.2166  0.1037
15032W        W30501  11.825  13.437  14.450  0.0311  0.1070 -0.1139
15033W        W30502   3.394   1.940  12.682  0.0525  0.0457  0.2106
15034W        W30503   5.457   5.780  15.437 -0.2042 -0.0582 -0.1066
15035W        W30504   4.915   6.892  15.273 -0.0429  0.1596  0.1648
15036W        W30505  13.471   2.871  12.673  0.1525 -0.2570  0.1560
15037W        W30506  11.010   3.698  10.398  0.0910  0.1743  0.0896
15038W        W30507   0.871   9.557   4.924  0.0928  0.2017  0.0061
15039W        W30508  11.376   6.316  13.189 -0.0871 -0.1092  0.0165
15040W        W30509  12.844  13.301   2.178  0.2841  0.3537  0.1295
15041W        W30510  10.379  18.103   2.847  0.3527 -0.2336  0.1571
15042W        W30511  12.924  14.887   0.399 -0.1694 -0.1398 -0.0004
15043W        W30512   3.480   5.508   4.173  0.1983  0.0995  0.0493
15044W        W30513   0.240  17.724  14.955  0.4859  0.0163 -0.2757
15045W        W30514   2.078   0.778  10.812  0.1388 -0.2817 -0.0116
15046W        W30515   6.616   0.971   2.882  0.2567 -0.2245 -0.1745
15047W        W30516   0.626   1.415   1.053  0.0242 -0.2478 -0.2922
15048W        W30517  11.247   2.220   5.739 -0.1620  0.0240  0.0551
15049W        W30518   7.993  17.928   4.186  0.3288  0.1677  0.0338
15050W        W30519  11.427  10.069   4.110 -0.0912  0.2006  0.1699
15051W        W30520   2.975   6.993  15.593  0.0447  0.1476 -0.0894
15052W        W30521  11.205  13.940  13.381  0.1686  0.1652 -0.1149
15053W        W30522  12.078   0.906   0.074 -0.1363 -0.0350 -0.1849
15054W        W30523   7.056  18.392  11.742 -0.4662 -0.2955  0.3852
15055W        W30524  13.479   6.541  12.865  0.0339  0.1195 -0.1407
15056W        W30525  14.874  13.136  14.111  0.2642 -0.1167 -0.1654
15057W        W30526   3.820   9.456   0.767  0.0498  0.0127 -0.1401
15058W        W30527  12.855  10.075  12.612  0.0770 -0.1336  0.0226
15059W        W30528   2.240  18.776   0.167  0.2875 -0.4638  0.1482
15060W        W30529   2.968  12.303   2.722 -0.3589 -0.1243  0.1428
15061W        W30530   2.355   7.295  14.028 -0.2094 -0.1811 -0.1203
15062W        W30531  12.395  15.214  13.652 -0.0321  0.0038  0.2681
15063W        W30532  10.599   1.805  11.984 -0.0186 -0.1621 -0.0635
15064W        W30533  12.297   9.968  15.115  0.3785 -0.1551  0.2552
15065W        W30534   3.428   5.115  15.669 -0.1972  0.1028 -0.1804
15066W        W30535   7.637   7.902   0.787  0.1990 -0.1834 -0.0028
15067W        W30536  16.161  12.667  15.516 -0.5281  0.4532  0.0691
15068W        W30537  15.001   0.612  14.142  0.2219  0.0676  0.0728
15069W        W30538  18.611   9.614   1.926 -0.2259  0.1489 -0.1235
15070W        W30539   9.576  12.832   3.176 -0.0205  0.1394  0.1100
15071W        W30540  16.834   6.606  14.794 -0.0208  0.0574  0.3188
15072W        W30541   8.005   5.500  14.054  0.2126  0.0140 -0.0754
15073W        W30542   9.747   3.222   3.735 -0.1002 -0.1512 -0.0297
15074W        W30543   7.766   5.616  13.038 -0.3059 -0.1110 -0.1740
15075W        W30544  17.760   7.735  15.181  0.3639  0.2066  0.2135
15076W        W30545   3.941   8.158   1.867  0.1591  0.0182  0.3594
15077W        W30546  13.971  11.697   2.869  0.3109  0.1553  0.0393
15078W        W30547   7.713   6.744   0.967  0.0095 -0.3467  0.1220
15079W        W30548  13.094   7.759   0.355 -0.2672 -0.2276 -0.2670
15080W        W30549   8.288  14.432  11.536  0.2299  0.0350  0.3007
15081W        W30550  16.261  14.945  14.641  0.1367 -0.2856  0.4069
15082W        W30551  17.021  14.900  14.375  0.0960 -0.1740  0.1016
15083W        W30552   6.770  13.729  15.602  0.2341  0.4612 -0.0775
15084W        W30553  10.099  14.766   4.190  0.2796 -0.4146  0.0908
15085W        W30554   4.156  15.817   2.318  0.0322 -0.2753  0.0485
15086W        W30555   6.610  17.350  12.254 -0.4005  0.1372 -0.0533
15087W        W30556  17.997   9.974  12.226 -0.0278 -0.1580  0.0541
15088W        W30557   4.849  17.528   3.840 -0.1263 -0.2719  0.2464
15089W        W30558  18.614   7.322  11.001  0.3593 -0.1199 -0.1475
15090W        W30559  14.518  14.102   0.890 -0.2967 -0.2227  0.3410
15091W        W30560  11.627  17.725  11.845  0.0948 -0.1929 -0.1504
15092W        W30561  12.313  15.467   0.910 -0.1002 -0.0499 -0.1287
15093W        W30562   7.099  12.654   0.377  0.2698  0.4193 -0.0020
15094W        W30563  11.854  13.829  14.095  0.3038  0.1064  0.0104
15095W        W30564  16.886   1.179  13.881  0.3440 -0.0585  0.0755
15096W        W30565  13.038  10.379  14.710 -0.3505  0.0402  0.0547
15097W        W30566  16.952   8.624   2.380  0.3086 -0.0640 -0.1942
15098W        W30567  10.619  13.711   3.483  0.0309  0.0105 -0.3546
15099W        W30568  17.640  14.114  11.099 -0.2155  0.1940  0.3957
15100W        W30569  15.770  16.071  14.386 -0.1114  0.1870 -0.0572
15101W        W30570   4.389   1.586   3.747  0.0207  0.1635  0.0655
15102W        W30571  18.492   8.094   2.998  0.2057  0.3625 -0.1956
15103W        W30572   8.671  13.234   9.535 -0.0588 -0.2195  0.1770
15104W        W30573   0.731  10.218  13.723 -0.1562 -0.3593 -0.2097
15105W        W30574   6.716   7.562  11.322 -0.0488  0.5028 -0.0947
15106W        W30575  11.665  16.350  12.997  0.2235 -0.3914  0.1605
15107W        W30576   1.125   7.438   3.850  0.2113 -0.2929 -0.0412
15108W        W30577   3.857  15.044  14.349  0.1229 -0.0393  0.0308
15109W        W30578  11.717  10.643  15.299  0.0486 -0.0660 -0.1301
15110W        W30579  18.583   4.139   0.924 -0.2723  0.3371 -0.1432
15111W        W30580  16.444  15.497   0.492  0.0841 -0.2100  0.2683
15112W        W30581   5.869   6.096   5.059 -0.0083  0.0419  0.1442
15113W        W30582  14.728   7.718   1.808 -0.2069  0.0788 -0.1193
15114W        W30583   5.457  15.728  14.552  0.0241 -0.4133  0.0830
15115W        W30584   4.495   8.023   9.905 -0.4463 -0.0839 -0.1269
15116W        W30585   8.664  15.597   9.874  0.0101 -0.1662  0.1130
15117W        W30586  11.650   6.509   4.655 -0.0004 -0.2040  0.3060
15118W        W30587   7.427   2.835  11.419 -0.2488 -0.3187 -0.1389
15119W        W30588  15.289  12.302  13.675  0.2659 -0.0285  0.2330
15120W        W30589   5.688   3.589  13.814  0.0534  0.0449 -0.3522
15121W        W30590   8.504  11.420  11.970 -0.0066 -0.0883  0.3093
15122W        W30591  10.201  16.252  12.842 -0.1078  0.0118 -0.0762
15123W        W30592   3.589   1.181   3.018 -0.0785  0.2251  0.0356
15124W        W30593   6.842   1.205  13.688 -0.1464  0.0437 -0.1801
15125W        W30594   2.422  16.731  15.037  0.2690  0.0253 -0.1548
15126W        W30595  16.899  13.858  13.313  0.0707 -0.2960 -0.2334
15127W        W30596   3.643   2.097  14.706 -0.2323  0.2407 -0.1185
15128W        W30597  17.933   8.946   0.812  0.0422 -0.0467  0.1117
15129W        W30598   5.816  15.932  15.230  0.2275 -0.0439 -0.3927
15130W        W30599  13.842   7.526  11.745 -0.0461 -0.0437  0.0145
15131W        W30600  10.889   4.885   2.781 -0.1851 -0.1526 -0.1982
15132W        W30601   8.418   8.040  11.625  0.2766  0.1531  0.2378
15133W        W30602   0.486   1.930  12.725 -0.1029  0.1388  0.0055
15134W        W30603   7.802   6.535   0.047 -0.0663  0.2463 -0.1555
15135W        W30604   4.934  10.629  14.504 -0.2141 -0.1368 -0.2060
15136W        W30605  13.911   1.163   0.729 -0.0684 -0.1199 -0.0293
15137W        W30606   9.621  14.869   0.505 -0.2633 -0.1537  0.1127
15138W        W30607   4.006   4.902   1.747 -0.0990  0.1575 -0.0912
15139W        W30608   8.582  13.313  13.343  0.2362 -0.0920 -0.0022
15140W        W30609   9.284   8.460  13.525  0.0308  0.3720  0.4224
15141W        W30610  13.612  17.847   0.110 -0.0154 -0.1810 -0.2111
15142W        W30611  18.257  10.467  12.772 -0.0696  0.0299 -0.0864
15143W        W30612  16.722  10.883  14.888  0.3049 -0.0316 -0.1751
15144W        W30613  12.666  12.112   1.342  0.3262 -0.0128  0.3811
15145W        W30614   6.323  17.015  10.952  0.0619  0.3862  0.0328
15146W        W30615   7.771   0.534   6.213  0.0317 -0.0577  0.1838
15147W        W30616   3.574   8.111   2.222  0.3167  0.0642  0.1782
15148W        W30617  15.979   7.693  15.586 -0.2338 -0.1972 -0.0210
15149W        W30618  12.886   2.845  14.503  0.3390  0.2940  0.1740
15150W        W30619  11.617  14.291  14.169  0.2246  0.1371 -0.2584
15151W        W30620  12.235   9.700  14.099  0.4496 -0.0055  0.4046
15152W        W30621   7.257   6.861   0.545  0.0165  0.0186  0.0668
15153W        W30622  11.423  10.729  12.849 -0.0665 -0.1511 -0.1027
15154W        W30623   0.205   4.537   4.168 -0.0494 -0.1603 -0.3890
15155W        W30624   6.822   0.684  15.389 -0.0548 -0.0991 -0.1613
15156W        W30625  15.632   1.250  10.684 -0.6242  0.0060 -0.3275
15157W        W30626   8.922  16.500   1.308 -0.3109 -0.1233  0.0458
15158W        W30627   9.873   7.945  12.354  0.1013 -0.0121 -0.2499
15159W        W30628  14.736   8.749  15.463  0.1670  0.3009 -0.0732
15160W        W30629  11.965  14.604   3.226  0.1066  0.0461 -0.1011
15161W        W30630  17.056   8.898  14.476 -0.1518  0.0103  0.2067
15162W        W30631  18.184   2.753   0.458 -0.0124  0.0798  0.0223
15163W        W30632  10.683   0.467   1.043  0.0532 -0.0893 -0.2909
15164W        W30633  17.661   7.740   3.649  0.1006  0.0396 -0.0179
15165W        W30634   2.817  10.534  10.480 -0.0935 -0.1378  0.0390
15166W        W30635   6.388  12.538   2.896 -0.2248  0.4353  0.0873
15167W        W30636  16.134   9.502   4.626 -0.0471  0.1126  0.3189
15168W        W30637  14.609  12.396   5.744 -0.1322 -0.1605 -0.2027
15169W        W30638  14.871  12.929   0.454 -0.1138 -0.0539 -0.5778
15170W        W30639   9.453   2.789   3.562 -0.0979  0.1532 -0.3252
15171W        W30640  14.525  14.326   0.243  0.0150 -0.2775  0.2004
15172W        W30641  15.370   8.450  12.323 -0.3892  0.1687  0.1528
15173W        W30642   3.899   0.184  11.319  0.1860  0.1051  0.1649
15174W        W30643  14.542  16.923  13.501 -0.0790  0.2991 -0.2717
15175W        W30644  12.439   8.492   2.072  0.1360  0.2087  0.1116
15176W        W30645  12.125   2.014   5.277 -0.1326  0.0560 -0.2299
15177W        W30646  16.640   1.082   0.358  0.0115 -0.0749  0.0940
15178W        W30647  16.974  14.567   3.710 -0.2167 -0.1220 -0.1327
15179W        W30648   3.628   4.026   5.146  0.0574 -0.2270 -0.0691
15180W        W30649  17.280   0.788   0.736  0.1971  0.3092 -0.0715
15181W        W30650   7.770   0.516  11.006 -0.1195  0.1956  0.0618
15182W        W30651  18.516   4.345  11.683 -0.0614 -0.0240  0.2551
15183W        W30652  10.167  17.607  12.228 -0.2978  0.1638  0.0373
15184W        W30653   8.396  12.740   4.112 -0.0223 -0.4638 -0.1670
15185W        W30654   2.028  16.269   5.353  0.1497 -0.2315 -0.0934
15186W        W30655   4.005   5.077   0.216  0.0819 -0.1026  0.0564
15187W        W30656  11.858  17.716   1.746  0.1909 -0.1251  0.0829
15188W        W30657   2.887  12.206   2.066  0.0598  0.1012  0.2224
15189W        W30658  14.824   4.129   0.551 -0.1817 -0.1746 -0.4050
15190W        W30659   2.042  11.988  13.107  0.2417 -0.0556 -0.3689
15191W        W30660   3.225  14.789   0.122  0.1291 -0.0138 -0.0861
15192W        W30661  11.947   9.224   4.799  0.3107  0.2269 -0.1973
15193W        W30662   9.155   3.364   4.620  0.1645 -0.0671  0.2118
15194W        W30663  15.841  11.782   3.726  0.1269 -0.3401 -0.1668
15195W        W30664  12.880  12.937   3.459 -0.0587 -0.0586  0.3833
15196W        W30665  18.115   7.060   4.939  0.2847  0.0516 -0.3022
15197W        W30666   4.090  17.934   2.805 -0.0189  0.3791  0.2138
15198W        W30667  17.229   7.527  10.838 -0.0134  0.1966  0.2835
15199W        W30668   6.827   4.986  12.773 -0.0157 -0.0482  0.1794
15200W        W30669  11.502  15.092  11.764 -0.2151 -0.1673  0.1199
15201W        W30670   9.258   1.356   2.559 -0.0528  0.0020 -0.2198
15202W        W30671   1.069  16.595   0.027  0.1719  0.0347 -0.2061
15203W        W30672   9.683  14.934   4.472  0.0110  0.4598  0.2933
15204W        W30673  15.452   1.301  14.770  0.1482  0.1422  0.0590
15205W        W30674  15.237   3.967   1.519 -0.0269  0.0320 -0.2439
15206W        W30675   9.674  10.642  14.274 -0.0953 -0.5791 -0.0231
15207W        W30676   8.129  14.510  13.208  0.0892  0.0147  0.3232
15208W        W30677   2.228  17.480  10.897  0.2689  0.0565 -0.6495
15209W        W30678   7.344   6.705  11.354 -0.1932 -0.1438  0.1448
15210W        W30679   8.200  12.889   0.169  0.1168  0.0636 -0.1013
15211W        W30680  12.686   8.448   4.705  0.1680 -0.0566  0.0438
15212W        W30681  10.179  17.723  11.723  0.3570  0.0759 -0.1083
15213W        W30682  10.219   2.280  10.650 -0.0603 -0.2564  0.0604
15214W        W30683  10.485   0.945   1.947  0.3274  0.2532  0.0249
15215W        W30684   5.276  14.518   1.449  0.0165 -0.1076 -0.1256
15216W        W30685   4.209   0.597   3.887 -0.0046  0.1858 -0.3634
15217W        W30686   8.716   3.875   2.251  0.0066 -0.0221  0.1074
15218W        W30687   2.950  13.963   3.438  0.3146  0.3200 -0.3177
15219W        W30688  12.401   6.339  11.671 -0.0525 -0.0989  0.0650
15220W        W30689   6.937  16.414  11.020 -0.1062  0.2650  0.1195
15221W        W30690  14.815  11.274   3.507 -0.0430  0.1139 -0.1930
15222W        W30691   4.024  10.055  12.415 -0.0207 -0.0115 -0.0492
15223W        W30692   9.455   2.020   1.854  0.0622 -0.0606  0.2456
15224W        W30693  17.615  14.648  14.899  0.1638  0.4306  0.0221
15225W        W30694  12.896  12.147   6.042  0.2380 -0.4828 -0.0433
15226W        W30695   3.111   9.807   2.403 -0.5212  0.2706  0.0061
15227W        W30696   5.602   9.945  10.820  0.1049 -0.0153 -0.1024
15228W        W30697  12.681   3.811  11.529  0.0678  0.1695 -0.0517
15229W        W30698   4.401  17.576   0.588 -0.0062 -0.0202  0.0892
15230W        W30699   1.880   6.002  15.226  0.0166  0.0177 -0.3469
15231W        W30700   1.239   1.965   3.916  0.4355 -0.0962 -0.1714
15232W        W30701   5.246   5.752  14.935  0.2219  0.1255  0.1397
15233W        W30702   1.827   1.989  14.776 -0.0021 -0.2782  0.0837
15234W        W30703   8.025  12.464   3.886 -0.0219 -0.1320 -0.2861
15235W        W30704   1.097  16.218   2.297 -0.0098 -0.0397  0.1730
15236W        W30705   0.227  17.838  12.155 -0.0920 -0.0790 -0.4039
15237W        W30706   7.625  12.733  15.503  0.0346 -0.2221  0.1504
15238W        W30707   8.006   9.884   4.448  0.1880 -0.2118 -0.2464
15239W        W30708  17.640   3.854   4.726  0.0561  0.1870  0.4076
15240W        W30709  13.142  14.528  12.559  0.1278 -0.1339  0.1661
15241W        W30710   4.220   8.847   4.562  0.3005  0.2450 -0.4282
15242W        W30711  18.205   2.436   4.910  0.0730  0.0224 -0.2248
15243W        W30712   0.540  13.416   0.416 -0.2828 -0.2143  0.0844
15244W        W30713  16.938  17.203   2.468 -0.0943 -0.1352 -0.0277
15245W        W30714   2.027   7.251   3.246  0.1913 -0.2128  0.0917
15246W        W30715   3.956   9.136   0.418 -0.1681  0.0720 -0.0304
15247W        W30716  11.402  16.586   5.103 -0.2717  0.1582 -0.0838
15248W        W30717  17.887  14.685  11.916 -0.1687  0.3707 -0.0604
15249W        W30718  14.003  13.640  11.684  0.2555  0.0598 -0.3023
15250W        W30719  13.667   0.220  14.425  0.0113 -0.0691  0.2041
15251W        W30720   1.635  11.631  11.332  0.1637  0.1520 -0.2873
15252W        W30721  18.747  14.866   0.585 -0.1465  0.2511  0.0424
15253W        W30722  12.340   7.866  14.154  0.1832 -0.0348 -0.1687
15254W        W30723   2.876   2.110   5.437  0.2549 -0.0120  0.0611
15255W        W30724   9.288  15.530  12.803  0.1249 -0.1950  0.0631
15256W        W30725   0.449   0.573  13.077 -0.1889  0.2534  0.2504
15257W        W30726   7.770   2.353  14.168  0.2616  0.1202  0.0724
15258W        W30727  15.624  15.150   4.027  0.0474 -0.1412 -0.0693
15259W        W30728   4.419   4.190   4.592  0.2383  0.0332  0.2012
15260W        W30729  17.777   4.751   4.672 -0.1543 -0.0713  0.2108
15261W        W30730   3.368  14.998  14.782  0.4288 -0.1760 -0.0334
15262W        W30731   9.928  11.233   0.145  0.4679 -0.2037 -0.1212
15263W        W30732  16.912   9.344  11.320  0.0530 -0.3426 -0.1814
15264W        W30733   7.129   3.096  11.109  0.3825 -0.3028  0.1185
15265W        W30734  16.491   4.239  11.092 -0.1339 -0.0563 -0.3358
15266W        W30735   3.920   2.892  12.726  0.0460 -0.1600 -0.2327
15267W        W30736   3.273   3.851  15.514  0.3274 -0.1828  0.2029
15268W        W30737  13.970   9.553   1.476 -0.1028 -0.0075  0.6356
15269W        W30738   8.996   0.846   1.339  0.1347  0.0367  0.1730
15270W        W30739   9.752  17.460  11.023 -0.2438  0.1991 -0.0291
15271W        W30740  15.514   9.876   3.813  0.0409 -0.1345 -0.0848
15272W        W30741   6.332  12.467   3.747  0.1348  0.0281  0.0911
15273W        W30742   4.650   9.758   0.998  0.1833  0.0698  0.2985
15274W        W30743   4.741   0.705   1.656 -0.1360 -0.0619 -0.1429
15275W        W30744  17.339   4.942   4.539 -0.7091 -0.0218  0.1228
15276W        W30745   7.050  14.280  13.893 -0.2731  0.1948 -0.0406
15277W        W30746  13.168  15.774   4.713 -0.1230  0.1941  0.1748
15278W        W30747  12.521   7.725   1.939  0.2138 -0.1706 -0.0701
15279W        W30748   5.298  13.001   3.499  0.4529 -0.3631 -0.0515
15280W        W30749   6.815   4.269  10.921  0.0163 -0.0679 -0.4486
15281W        W30750  10.351   7.053   0.908 -0.0934 -0.0735 -0.1426
15282W        W30751   1.255  16.324   4.795 -0.0693 -0.0156  0.1217
15283W        W30752   1.638  14.953   2.614  0.1457 -0.2305 -0.0862
15284W        W30753   7.339   9.796   2.978  0.0902  0.1100  0.1326
15285W        W30754   7.870   0.181  14.521  0.1590 -0.0580  0.1394
15286W        W30755   9.620   0.911   9.998 -0.0956 -0.1260 -0.2415
15287W        W30756   3.437  17.792   5.403  0.0202  0.0013 -0.0548
15288W        W30757   7.741   6.097  14.190  0.1035  0.1316  0.1043
15289W        W30758   9.130  11.549   1.148  0.0976 -0.0646 -0.2294
15290W        W30759   8.880   7.132   3.861  0.0655 -0.1863 -0.0365
15291W        W30760   4.090  11.235  14.050 -0.2675  0.0438  0.3197
15292W        W30761  17.651   3.247   2.894 -0.2197  0.2215  0.0832
15293W        W30762   9.008  10.253   0.244 -0.0190 -0.0449 -0.1614
15294W        W30763   2.861  14.457   0.368  0.1207 -0.2534  0.2468
15295W        W30764  16.239   8.714   2.227 -0.1665 -0.1417  0.1972
15296W        W30765   3.353   1.415   4.683 -0.1009 -0.1133 -0.0389
15297W        W30766   3.342   5.735   0.617 -0.2062 -0.1092 -0.1281
15298W        W30767   0.789  12.037   3.025  0.2074  0.1149  0.0508
15299W        W30768   8.830   4.024  14.148 -0.0506  0.2004 -0.3882
15300W        W30769   6.748   8.731   1.247  0.0843 -0.1668 -0.1634
15301W        W30770   6.791   7.514   2.304 -0.1089 -0.1127  0.0597
15302W        W30771  11.041  15.289  12.271  0.2199 -0.1664 -0.3835
15303W        W30772   2.576  10.627   3.157  0.0258  0.2556 -0.1661
15304W        W30773   0.036  10.616  13.868 -0.4049  0.1553 -0.0692
15305W        W30774   9.987   2.489  13.397  0.4465 -0.2349 -0.0944
15306W        W30775  18.254  14.282   0.741 -0.0761 -0.1081 -0.0615
15307W        W30776  11.709   8.156   4.617  0.1610 -0.2090 -0.0324
15308W        W30777   4.161  11.178  15.258 -0.0856  0.0160 -0.0000
15309W        W30778  16.709  15.502   2.786  0.1363 -0.2575  0.3942
15310W        W30779   3.104   4.640   0.155 -0.0962  0.1862 -0.0124
15311W        W30780  17.025  10.061   2.059  0.3071  0.1176 -0.1363
15312W        W30781  14.069  12.146  15.555 -0.0862 -0.0693  0.3462
15313W        W30782  13.499   5.729   0.815 -0.2028 -0.0430  0.2472
15314W        W30783   3.824  10.709  14.708 -0.1369 -0.3436  0.2066
15315W        W30784   7.622   6.280  15.157  0.2364 -0.1010  0.4499
15316W        W30785   5.852   0.286   5.051  0.2811 -0.2602  0.1739
15317W        W30786   3.250   6.776  13.112 -0.2098 -0.1801 -0.2091
15318W        W30787   9.104  17.399   2.834  0.1576  0.0221  0.0334
15319W        W30788   8.523  11.940   1.724  0.2932 -0.1665 -0.0161
15320W        W30789  12.693   3.816   4.530 -0.2857  0.2358  0.0384
15321W        W30790  11.684   7.042  15.661  0.2021 -0.3753  0.0425
15322W        W30791  18.435   3.065  14.199 -0.2709 -0.0631  0.0836
15323W        W30792  13.099  13.988  11.689  0.0865  0.0504  0.2472
15324W        W30793  14.460   8.656  14.298  0.3871 -0.3866 -0.1447
15325W        W30794   0.136   0.031   2.458 -0.1375  0.0245 -0.1333
15326W        W30795   6.684   0.734   3.977  0.2092  0.0439  0.0545
15327W        W30796   2.421   0.610   1.397  0.1581 -0.2962  0.2047
15328W        W30797   6.873  16.149   1.093 -0.1122  0.0937 -0.1623
15329W        W30798   4.191  17.091   3.955  0.1272 -0.1019 -0.1284
15330W        W30799  10.652   1.035  15.123  0.2708 -0.2274  0.3844
15331W        W30800   0.800  18.187  14.311 -0.2294 -0.2094 -0.1311
15332W        W30801  13.599   0.901  12.892  0.0680 -0.1112  0.1860
15333W        W30802  17.837  17.337  14.114 -0.1275 -0.3836 -0.1198
15334W        W30803   8.045  10.132   4.867 -0.2047 -0.0845 -0.4392
15335W        W30804   3.131   0.273  13.808  0.0558  0.4861 -0.3163
15336W        W30805  12.967  15.837  12.805  0.2442  0.0523 -0.1659
15337W        W30806  10.518  15.445  12.349  0.1422  0.1119 -0.1470
15338W        W30807   9.229  16.284   4.561  0.2446  0.0422 -0.2968
15339W        W30808  17.166  12.366   3.423  0.1025 -0.1165  0.0423
15340W        W30809  13.493  14.840   1.024 -0.0403  0.2894  0.1181
15341W        W30810   1.707  10.785   2.967  0.1200 -0.0277 -0.1104
15342W        W30811   7.037  15.072  11.981 -0.1490 -0.0562  0.0746
15343W        W30812  13.837  14.650  14.379  0.2045 -0.2867  0.0589
15344W        W30813  16.760   7.126  12.904  0.0142 -0.2053 -0.0879
15345W        W30814  17.074  11.231  10.969  0.0637  0.0253  0.2322
15346W        W30815   0.677  18.509   6.012 -0.0213 -0.0187  0.1657
15347W        W30816  11.952   3.006  14.695 -0.1670  0.1261  0.2564
15348W        W30817  13.150  18.048   3.287  0.4215  0.2455 -0.0064
15349W        W30818   3.844  15.907  12.473  0.1567  0.0677 -0.0631
15350W        W30819  12.666  14.759  12.789 -0.2345 -0.0725 -0.1242
15351W        W30820  10.097   9.907   4.241  0.0780 -0.4958  0.1054
15352W        W30821  11.704  15.245   3.147 -0.1483 -0.2591  0.0229
15353W        W30822   2.542  12.023   3.539 -0.0022  0.1081 -0.1815
15354W        W30823  17.225   6.414  15.160  0.1312  0.0884 -0.1485
15355W        W30824  15.639   8.110  15.031 -0.1317 -0.1588 -0.2796
15356W        W30825   5.285  12.936  11.928 -0.0138 -0.1549 -0.0264
15357W        W30826  14.784   9.530  13.419  0.3137  0.2549 -0.2478
15358W        W30827   2.745  15.158   1.185 -0.0295  0.0938  0.2327
15359W        W30828  14.250   3.481  11.693 -0.0715 -0.1269 -0.0082
15360W        W30829   9.362   7.012   4.065 -0.1330 -0.0492 -0.0869
15361W        W30830   8.259  16.958   1.088 -0.0888  0.2816 -0.1764
15362W        W30831  11.937  17.274   3.250  0.3185  0.3121  0.0120
15363W        W30832  16.806   5.687  10.119 -0.1638 -0.1950 -0.1350
15364W        W30833  17.107   2.157   0.577 -0.0376  0.0914 -0.0472
15365W        W30834   0.398   5.825  15.654  0.2219 -0.0080 -0.1705
15366W        W30835  10.595   7.876   3.633  0.1412  0.1844  0.1831
15367W        W30836   3.179  11.767   9.776 -0.0137 -0.2961 -0.2218
15368W        W30837   5.598  12.775  13.543  0.1227  0.0769  0.0234
15369W        W30838  12.353  17.398  15.078 -0.3182  0.0627 -0.2658
15370W        W30839  12.698   4.242  12.370 -0.1155  0.2224  0.3431
15371W        W30840  11.672   8.048  12.305 -0.1237 -0.1495  0.0151
15372W        W30841  10.615  12.111   4.496 -0.3624  0.3281  0.1367
15373W        W30842   0.901   8.898   0.825 -0.0569 -0.3947  0.0461
15374W        W30843  13.502  11.630   0.202 -0.2221 -0.0206 -0.0039
15375W        W30844  10.280   1.151   1.206  0.0121 -0.2292 -0.0367
15376W        W30845   3.844  14.871  15.551 -0.1772 -0.2495 -0.1743
15377W        W30846   6.447   5.866   4.316 -0.0496 -0.3935  0.1548
15378W        W30847  14.811  15.586   4.347  0.1275  0.1551  0.2753
15379W        W30848   4.856   6.222   5.018 -0.0601 -0.1332  0.1144
15380W        W30849   6.416   5.690  13.245  0.0441  0.1862  0.1169
15381W        W30850  14.077  10.110  11.802 -0.0919 -0.1903 -0.2540
15382W        W30851  18.452  17.072  11.829 -0.0502  0.2962 -0.1793
15383W        W30852   4.481   0.467   6.162 -0.1002  0.0938  0.3241
15384W        W30853   5.754   4.894  14.771 -0.0963 -0.1680 -0.0848
15385W        W30854   0.907   8.975  11.126 -0.1808  0.0989 -0.2369
15386W        W30855  14.571  11.710   0.775  0.2972 -0.0427  0.1139
15387W        W30856   2.705   4.162   3.653  0.2866 -0.3645 -0.0177
15388W        W30857   7.345  17.697   0.569  0.1139  0.0425 -0.2818
15389W        W30858   0.095  12.427   0.023  0.0652  0.1923 -0.4377
15390W        W30859   3.012   3.350  11.479  0.1862  0.0718  0.1929
15391W        W30860  10.050   0.321  11.697  0.0647 -0.1083  0.0605
15392W        W30861  15.383   2.011  15.575  0.1790  0.0951  0.1538
15393W        W30862  12.564  13.068   6.024  0.1343  0.0438  0.0032
15394W        W30863  16.282   9.306   2.587 -0.1652  0.0690 -0.0277
15395W        W30864   9.123   1.209   4.276  0.0167 -0.0022 -0.0055
15396W        W30865  16.549  16.834   2.359 -0.1246 -0.1123  0.1472
15397W        W30866   3.220  17.971  11.386 -0.2346 -0.1379  0.1771
15398W        W30867  16.848  13.833   5.181 -0.0227  0.2203 -0.1135
15399W        W30868  12.501   6.743   0.960  0.1716 -0.2022  0.4578
15400W        W30869  16.634  14.303  10.835  0.0697  0.0399 -0.0558
15401W        W30870  13.160  12.376   2.640 -0.1797 -0.2422  0.3733
15402W        W30871  17.192  18.250   4.233  0.1400  0.0304  0.3566
15403W        W30872   4.961   4.462  14.535  0.2711  0.0208 -0.0138
15404W        W30873   5.901  16.076   0.388 -0.2366 -0.4531 -0.2255
15405W        W30874  11.639   5.683   1.711 -0.0585  0.0745 -0.0161
15406W        W30875   7.742  10.987  13.370 -0.0275  0.1805  0.0703
15407W        W30876  16.891   4.257  14.632 -0.0316  0.0521 -0.3882
15408W        W30877  17.081   5.388   1.809  0.1432 -0.0495 -0.1995
15409W        W30878  11.774   6.583   0.068  0.2546 -0.0763  0.3167
15410W        W30879  14.270   2.663  11.339 -0.1772 -0.2405 -0.0770
15411W        W30880  14.193   2.287  13.567 -0.0673  0.1335  0.2276
15412W        W30881   1.254  14.952   0.494  0.2583  0.0640 -0.3107
15413W        W30882  10.261   7.735  12.643  0.0136 -0.1557 -0.0641
15414W        W30883  16.012   2.280   0.887 -0.1572  0.0311  0.0279
15415W        W30884  15.070  11.271   5.065 -0.1581  0.2150 -0.0714
15416W        W30885   8.344  11.934  13.802 -0.3682 -0.0508 -0.2091
15417W        W30886  13.365   7.875   4.753 -0.3886 -0.0248  0.3046
15418W        W30887  10.572   3.680  14.159  0.0562  0.0490 -0.4144
15419W        W30888   0.842  10.785  15.220 -0.0631  0.0211  0.2400
15420W        W30889   9.177  10.921   0.513  0.2229  0.1355  0.5290
15421W        W30890   8.420  15.661  13.756  0.0666 -0.1160 -0.2318
15422W        W30891  10.013   7.963   2.785 -0.2763  0.0305 -0.2364
15423W        W30892   8.888   4.078   1.818 -0.4218 -0.2451  0.1845
15424W        W30893  17.253  11.159   5.614  0.2053 -0.1357  0.2878
15425W        W30894   7.288  13.941   2.219  0.1291  0.0202  0.0450
15426W        W30895   0.378   5.053  14.402  0.2334  0.1149 -0.1480
15427W        W30896   4.034  10.090  11.514  0.0383  0.1169 -0.2285
15428W        W30897   2.352   7.548   5.191  0.0487  0.1977 -0.2540
15429W        W30898  18.651   1.813  11.205  0.2005 -0.2417  0.2488
15430W        W30899   7.761   4.123  10.100  0.1047 -0.1559 -0.1409
15431W        W30900  13.150  15.942  13.803 -0.1742  0.0645  0.0885
15432W        W30901  13.009  11.591  12.990 -0.1534  0.0786 -0.1477
15433W        W30902   2.303   6.231   4.568 -0.0290 -0.0818 -0.1870
15434W        W30903   5.443   4.778  13.077  0.1134 -0.0316  0.5164
15435W        W30904  18.073  15.944  14.510 -0.2608 -0.0323 -0.2109
15436W        W30905  11.885  18.226   1.337 -0.0293 -0.0944  0.1668
15437W        W30906   8.764   7.353  12.775  0.2021 -0.2622  0.1605
15438W        W30907   4.754  11.168  12.441 -0.0407  0.0946  0.1593
15439W        W30908   1.846  16.501   2.709  0.0629  0.0063 -0.1180
15440W        W30909  12.218   1.057   0.958 -0.1094 -0.1236  0.0320
15441W        W30910   9.287   2.476  14.343 -0.0726 -0.0154  0.2584
15442W        W30911  14.399   7.031  14.005 -0.2897  0.3110  0.0334
15443W        W30912  15.136   0.082   1.289 -0.1979 -0.2075  0.4566
15444W        W30913  13.305   3.929   3.238 -0.3929  0.4606 -0.0727
15445W        W30914   5.084   4.131  15.540  0.0990 -0.0880  0.3029
15446W        W30915   4.397   9.326  12.436  0.0053 -0.3288  0.2597
15447W        W30916   7.458   5.806  11.573 -0.2193 -0.1838  0.0584
15448W        W30917  12.625  14.644   3.062  0.3896 -0.2969 -0.1510
15449W        W30918   9.817  18.694  12.714  0.3564  0.1586  0.0891
15450W        W30919   2.946  16.849   0.707 -0.1701  0.1323  0.1314
15451W        W30920   8.682  10.730   2.355  0.0670 -0.1815  0.0677
15452W        W30921  13.052  15.215   0.025 -0.2546  0.0266  0.2083
15453W        W30922  14.532   9.176   0.487 -0.2399  0.2361  0.1531
15454W        W30923  16.124   5.307  14.067  0.0026  0.0636 -0.2416
15455W        W30924   8.871  16.143   3.331 -0.0519  0.1610 -0.1398
15456W        W30925  14.910   5.737  12.784  0.0108  0.2177 -0.1884
15457W        W30926  14.707   0.787   3.553 -0.3963 -0.1180 -0.1616
15458W        W30927   8.271   0.342   0.418  0.0816 -0.1480 -0.1954
15459W        W30928   6.355  15.202   0.135 -0.1559 -0.1210  0.1000
15460W        W30929   7.450  11.070   4.214 -0.0456 -0.5881 -0.0082
15461W        W30930   6.168   7.224  11.510  0.1936  0.1593  0.1402
15462W        W30931  14.355  13.828  12.083  0.3318 -0.2374 -0.1155
15463W        W30932   1.074   0.338   3.900 -0.0342  0.2750  0.1676
15464W        W30933  17.381  10.091  14.277 -0.3521  0.2948 -0.3981
15465W        W30934  15.099  10.400  12.134  0.2830  0.0024 -0.1326
15466W        W30935  16.121  18.200  14.164 -0.0764  0.2367 -0.0787
15467W        W30936  15.140   1.927  12.518  0.1436 -0.0898  0.1406
15468W        W30937   2.881  13.829  10.347  0.1039 -0.0836 -0.0543
15469W        W30938   3.647   6.479   2.397 -0.0085 -0.0739 -0.0309
15470W        W30939   6.707   8.145  12.621  0.0052 -0.0661 -0.3559
15471W        W30940  12.808   7.523   2.293 -0.0334  0.2824 -0.0238
15472W        W30941   7.491  18.259  14.075  0.0542  0.1055  0.2772
15473W        W30942   8.302  10.190   3.137 -0.0317  0.0890 -0.0214
15474W        W30943  15.864  13.355   3.851 -0.0404 -0.1183 -0.0083
15475W        W30944  18.775  12.129   4.574  0.1227 -0.2368  0.1220
15476W        W30945  13.250  12.214   0.245 -0.0783 -0.1051  0.1436
15477W        W30946  16.419  16.677   5.960 -0.0047  0.1667 -0.1168
15478W        W30947   9.634   0.785  15.171 -0.0509  0.0362 -0.3092
15479W        W30948   5.986   6.322  13.895 -0.0894 -0.1832  0.1976
15480W        W30949  12.007  12.710   1.353 -0.0183  0.2490 -0.1909
15481W        W30950   0.053   7.424  12.492  0.0439  0.1745  0.0339
15482W        W30951  10.126   6.939  14.903 -0.0127  0.1520  0.0291
15483W        W30952  11.071  13.261   4.252  0.1602 -0.1787 -0.2689
15484W        W30953  10.163  15.331  13.858  0.0272  0.0517  0.2931
15485W        W30954   2.377  12.590  14.972 -0.1909  0.0697 -0.0159
15486W        W30955   7.626   7.163  10.976 -0.1536 -0.1377 -0.1042
15487W        W30956   7.465   5.547   0.048 -0.0314  0.2215  0.0337
15488W        W30957  11.034   2.882   5.810 -0.1947  0.1295  0.4208
15489W        W30958   5.356  10.662  14.239  0.2114 -0.2755 -0.3221
15490W        W30959  15.830  14.246   5.823 -0.0751 -0.2946  0.1058
15491W        W30960  16.267   3.419  15.245 -0.0537  0.0522  0.0302
15492W        W30961   0.706   0.888  11.014 -0.1564 -0.0875 -0.1134
15493W        W30962   3.848   4.554  12.975  0.0455  0.4141 -0.0494
15494W        W30963  17.804  15.038   4.330 -0.0244  0.1231  0.2738
15495W        W30964  18.616   7.674  10.522  0.2669 -0.0368  0.0895
15496W        W30965   0.220  14.556   5.803 -0.1145  0.2800 -0.0759
15497W        W30966   3.998  14.725   0.501 -0.3229 -0.4374  0.3382
15498W        W30967   9.139   4.602  15.542 -0.0991  0.2846 -0.0599
15499W        W30968   8.917  17.205   4.984 -0.0304 -0.1785  0.1359
15500W        W30969  18.032   7.584   5.080  0.5091  0.0463 -0.0352
15501W        W30970  14.943  18.448  13.694 -0.0042  0.3315  0.1956
15502W        W30971   5.510  18.241   3.260  0.1984 -0.2328 -0.1087
15503W        W30972   5.092   3.481   1.078  0.1705 -0.2143 -0.1733
15504W        W30973   7.898   1.347  15.218 -0.1218  0.1469 -0.2375
15505W        W30974   3.380   1.317   2.104  0.1009 -0.1378 -0.3633
15506W        W30975   4.067  12.270  13.238  0.1249 -0.2515 -0.1977
15507W        W30976  12.651   5.635   3.371  0.3033 -0.1939 -0.3270
15508W        W30977   1.389  12.090   1.877 -0.2681  0.1343 -0.2084
15509W        W30978  12.881  17.168   3.561 -0.0926  0.2464  0.0855
15510W        W30979   9.135  16.524  13.108 -0.2090  0.2584  0.0299
15511W        W30980  10.540   0.521   4.323  0.0265  0.2205  0.1015
15512W        W30981  18.665   5.003  12.235 -0.3722  0.1006 -0.0574
15513W        W30982  12.906   2.693  13.932  0.1193  0.5137  0.4299
15514W        W30983  17.429  17.250   4.944 -0.2338  0.0128  0.0245
15515W        W30984   1.166   9.386   2.418  0.1963 -0.0003 -0.1760
15516W        W30985  17.805  16.564  11.835  0.1462  0.0295 -0.0310
15517W        W30986  12.238   2.963  12.455  0.1966 -0.2921 -0.1085
15518W        W30987   0.418  10.075   0.165 -0.2589 -0.0155  0.1609
15519W        W30988   9.270   5.229  14.578  0.0880  0.3636 -0.3611
15520W        W30989  10.687   9.795   1.159 -0.1382 -0.0646 -0.3114
15521W        W30990   3.182  15.334  11.093 -0.1289  0.0685  0.0483
15522W        W30991  17.050   5.528  11.706  0.4206 -0.1150 -0.2211
15523W        W30992   0.939   3.478  14.658  0.3517 -0.1738 -0.0663
15524W        W30993  15.199  18.721  11.079 -0.1490 -0.0467  0.1996
15525W        W30994   0.669  12.149  12.032 -0.0028  0.0171 -0.2213
15526W        W30995  14.749   8.648   3.114  0.1604 -0.0980  0.1407
15527W        W30996   5.883   3.876   2.714 -0.0131  0.2712  0.1245
15528W        W30997  17.897   1.336   0.172  0.0634 -0.1693  0.1574
15529W        W30998   9.310   8.757   4.193  0.0303 -0.0445 -0.1679
15530W        W30999  18.664   0.436   5.241  0.0678  0.1923  0.1431
15531W        W31000   6.595   6.244  14.229 -0.1736  0.0268  0.2165
15532W        W31001   0.491   7.776   4.605  0.0359  0.2325 -0.0082
15533W        W31002  16.396   1.064  13.493  0.1560 -0.0913  0.0789
15534W        W31003   5.201  18.573   0.537 -0.1128  0.0869 -0.1761
15535W        W31004   6.580  16.246  12.381  0.0401  0.1793  0.0663
15536W        W31005   2.825  11.056  11.363 -0.2229  0.0240 -0.1013
15537W        W31006  15.451  12.865   0.530 -0.1117  0.2640  0.1182
15538W        W31007  14.651   8.037   4.805 -0.5265 -0.3017 -0.3458
15539W        W31008  13.707   7.900  15.207 -0.1455  0.4366 -0.0149
15540W        W31009   3.890  10.447   5.513  0.1920  0.2511  0.2082
15541W        W31010   9.264   2.915   4.911 -0.0437 -0.2023 -0.4404
15542W        W31011   8.769   2.752   3.103 -0.0498 -0.2398  0.2828
15543W        W31012  17.671  10.865   5.568  0.2607  0.0901 -0.3098
15544W        W31013   5.881  18.579   4.907 -0.0304 -0.2207 -0.2188
15545W        W31014   0.173   0.559   2.358 -0.1536  0.6644  0.2663
15546W        W31015   1.889  15.895   3.608 -0.0387  0.1847 -0.0953
15547W        W31016  17.567   6.529  12.511 -0.4739  0.0241  0.1267
15548W        W31017  11.726  17.883   9.275  0.2929 -0.1547  0.4068
15549W        W31018   5.357  10.123   3.646 -0.1244  0.3184 -0.0123
15550W        W31019  12.859  18.039  14.107 -0.1373  0.4882  0.2596
15551W        W31020  12.543   6.534  14.030  0.0344 -0.1682  0.0390
15552W        W31021   9.620  10.583   5.163  0.0093  0.1105  0.1389
15553W        W31022  14.873   5.484  11.215 -0.0954 -0.0771  0.0712
15554W        W31023   3.873  16.298  12.746  0.0929  0.1511 -0.1559
15555W        W31024   2.221  17.373  13.842 -0.1283 -0.1376 -0.0202
15556W        W31025  13.558  10.662  14.753 -0.2915 -0.0233 -0.1840
15557W        W31026  10.050   2.197  12.933 -0.2061  0.2356 -0.1850
15558W        W31027   2.300  10.035   4.742 -0.2362 -0.0166  0.1961
15559W        W31028   8.732  11.119   1.417  0.1567  0.1173  0.1734
15560W        W31029   5.544   2.935   0.547 -0.2083 -0.3829 -0.2589
15561W        W31030  10.014   0.942   0.122 -0.0940  0.1714  0.0863
15562W        W31031  13.917   3.996   1.608 -0.0071 -0.2925 -0.1596
15563W        W31032   4.780  15.070  14.200  0.0683 -0.1045  0.0099
15564W        W31033  10.697  10.065   1.829 -0.1436  0.0989 -0.0356
15565W        W31034  10.060   7.238  12.193 -0.3405  0.1951 -0.2673
15566W        W31035   3.496   6.059   5.198 -0.1517  0.1049 -0.6393
15567W        W31036   6.468   4.287  11.462  0.0388 -0.0820  0.1574
15568W        W31037   3.146  11.112  12.283  0.0571 -0.0861 -0.1897
15569W        W31038  15.335   6.905  11.899  0.0416  0.0014  0.2249
15570W        W31039   0.792  17.551  14.173 -0.3588  0.1138 -0.0340
15571W        W31040   0.781   9.478   0.668 -0.1197 -0.3594  0.0265
15572W        W31041   3.279  15.337   4.005  0.2942  0.4829  0.1088
15573W        W31042  14.018   4.434   3.479 -0.2460  0.2428 -0.3863
15574W        W31043   0.678  15.464  11.890 -0.0757  0.3528  0.1243
15575W        W31044   6.669   1.783   1.608 -0.0592 -0.0375 -0.0298
15576W        W31045  13.871  16.260  13.132  0.1549 -0.2980  0.1430
15577W        W31046   2.906   0.963  15.583  0.0739  0.0877  0.1615
15578W        W31047  14.898   2.218   0.010 -0.2239  0.0483 -0.2392
15579W        W31048   9.943  14.672  10.355  0.1735 -0.0095 -0.1259
15580W        W31049   3.247  13.346   2.684 -0.2698  0.0222 -0.2050
15581W        W31050   2.192  18.237  10.967  0.0574  0.0630 -0.0760
15582W        W31051   0.432  11.276  12.359 -0.0382 -0.1447  0.1110
15583W        W31052   1.534  14.338  12.970  0.1888 -0.0591  0.2419
15584W        W31053   7.413   3.636  12.484  0.3097  0.4300  0.3297
15585W        W31054   7.222   3.087   5.253  0.1959  0.0972 -0.1649
15586W        W31055   8.823   7.444   0.235  0.2135 -0.4323 -0.0162
15587W        W31056   4.903   1.458  14.730 -0.2046  0.4075  0.0761
15588W        W31057   9.870  11.384   0.616 -0.0462 -0.0927  0.1176
15589W        W31058   4.452   8.320   4.847  0.0340 -0.2874  0.1539
15590W        W31059  17.390   7.789  11.763  0.0841 -0.0504  0.2555
15591W        W31060   2.229   1.450   5.509 -0.6450  0.0891  0.0019
15592W        W31061  13.724  17.527   4.704  0.0847  0.0031 -0.0439
15593W        W31062   4.514  10.810  12.152 -0.0985 -0.1730  0.0250
15594W        W31063   6.818  11.715   0.755  0.1617  0.0121  0.3784
15595W        W31064  15.771   7.204  14.010 -0.0322  0.2934  0.3931
15596W        W31065  13.377  16.273  13.511 -0.2183  0.3747  0.3454
15597W        W31066  11.983  14.661   2.359 -0.2521  0.0888  0.1856
15598W        W31067  17.858   6.556   4.151  0.0092  0.2528  0.1624
15599W        W31068   7.195   1.709  12.456 -0.0775  0.0600 -0.1064
15600W        W31069   4.254   4.124   4.046 -0.1767 -0.0401  0.2836
15601W        W31070   2.265   2.130  14.899 -0.1490  0.3004 -0.0110
15602W        W31071   0.339   3.939  15.184  0.1081 -0.1687 -0.2302
15603W        W31072   1.238   8.979  11.526  0.2539 -0.4995  0.0949
15604W        W31073   4.777   0.061   6.026  0.0905  0.1393 -0.1960
15605W        W31074  10.496   7.972  13.626 -0.0161 -0.1346  0.0644
15606W        W31075  18.426  10.930   3.248 -0.2882 -0.0746  0.2293
15607W        W31076  17.757   5.575   2.395  0.2099  0.1027 -0.0927
15608W        W31077   3.959   9.147   5.066  0.0213  0.1887 -0.3638
15609W        W31078  11.173   6.603  12.498 -0.1643  0.1499  0.0163
15610W        W31079  17.996  14.708  12.446  0.1808  0.1103 -0.0781
15611W        W31080   0.916  17.927   0.372  0.1183 -0.0555  0.2074
15612W        W31081  16.325  15.822  11.060 -0.3824  0.0788 -0.2390
15613W        W31082   7.015   1.462  15.082  0.1290 -0.0562  0.0852
15614W        W31083   3.625  11.001  13.944 -0.1904  0.0294  0.2214
15615W        W31084  11.313   3.315   1.149 -0.0483 -0.0100 -0.0343
15616W        W31085   5.638  10.152  11.954  0.1468  0.0555 -0.3062
15617W        W31086   0.353   0.666   3.294  0.2671  0.1522 -0.1373
15618W        W31087   5.277  13.878  10.438 -0.2287 -0.0832  0.1773
15619W        W31088  16.573  15.200  13.696  0.1179 -0.0210  0.0054
15620W        W31089  18.182   5.813   4.435 -0.3897  0.2759  0.1684
15621W        W31090  11.727   0.331   0.651  0.0671 -0.0656  0.0907
15622W        W31091   5.023  16.654   1.140 -0.1862  0.0301  0.2106
15623W        W31092  15.153  15.672  12.229  0.2059 -0.1716  0.0407
15624W        W31093   3.100   2.255  11.211 -0.2726 -0.0074 -0.1334
15625W        W31094   0.498  12.207   1.941 -0.1956  0.3076  0.2614
15626W        W31095   4.726   2.999   1.790 -0.0046 -0.1858 -0.1544
15627W        W31096   7.043   5.906   2.490  0.1612 -0.1985  0.1032
15628W        W31097   5.843   5.557   4.780 -0.2912 -0.3124  0.0484
15629W        W31098  11.487  12.629   1.389 -0.0471 -0.1377 -0.1430
15630W        W31099  14.820   6.171   2.010  0.1162 -0.1215 -0.0552
15631W        W31100  16.091  16.773   2.773  0.2505 -0.0051 -0.0781
15632W        W31101   4.865   6.970  11.470  0.0923 -0.2721 -0.4391
15633W        W31102   7.872  12.723  10.477 -0.0049  0.0104 -0.2112
15634W        W31103   7.282  17.112   3.944  0.2114 -0.1605 -0.1632
15635W        W31104   2.640   3.662   0.403  0.0777  0.0448  0.3402
15636W        W31105  16.511   0.151   0.800 -0.0605 -0.0168 -0.0958
15637W        W31106  18.423   6.855  11.227 -0.0846  0.0043  0.0897
15638W        W31107   2.674  12.645   0.165 -0.1328 -0.0899  0.0131
15639W        W31108  11.610   8.436   0.405  0.0635  0.1950  0.1535
15640W        W31109   2.254   7.286  15.118  0.3292 -0.0713 -0.1179
15641W        W31110  14.939  16.527   4.180 -0.1031 -0.2271  0.2605
15642W        W31111  14.152  10.763   5.013  0.0634  0.1978 -0.1102
15643W        W31112   1.669   0.539   5.783  0.2452 -0.1075 -0.1802
15644W        W31113   2.227  17.311   0.303 -0.0291  0.2704  0.0240
15645W        W31114  16.820   4.450   1.104 -0.0643  0.4058  0.1491
15646W        W31115  16.813  14.961   1.914  0.0082 -0.0362  0.2666
15647W        W31116   4.313  16.605   2.495  0.1228  0.0423 -0.2193
15648W        W31117   6.519   5.251   4.163 -0.0467  0.0225  0.0700
15649W        W31118  11.065  18.531   1.616 -0.2409 -0.0966  0.2697
15650W        W31119   1.397   7.577  13.664 -0.1356 -0.1869 -0.1529
15651W        W31120  18.785   4.622  14.721 -0.1552 -0.2737  0.1398
15652W        W31121  17.042  12.060   0.181 -0.1461  0.0152 -0.1867
15653W        W31122   0.984  14.851  14.000  0.0437  0.1338  0.2728
15654W        W31123  18.253  13.029  11.470 -0.0505 -0.5216 -0.0986
15655W        W31124  10.187   3.268   5.159  0.1041 -0.1288 -0.2623
15656W        W31125  14.355  14.461   3.348 -0.0564 -0.2902 -0.0351
15657W        W31126  12.682  16.713   0.870 -0.2041  0.0023  0.0509
15658W        W31127   8.800   0.382  12.048  0.2527 -0.0152  0.1166
15659W        W31128  12.301  14.013  15.281 -0.1687  0.1368  0.2099
15660W        W31129   3.325  14.369  13.226 -0.3205 -0.1513 -0.0731
15661W        W31130  17.150   9.696   9.776  0.1478  0.0776 -0.0427
15662W        W31131  11.495  18.623   3.623  0.0384  0.2960 -0.1543
15663W        W31132   7.214  18.073  13.253 -0.1478  0.5672  0.1916
15664W        W31133   8.415  11.681   3.292 -0.1381  0.3061  0.0565
15665W        W31134   9.322  10.770  11.182 -0.1179  0.3417  0.2490
15666W        W31135  14.657   6.247   4.871  0.1697  0.0691 -0.0216
15667W        W31136  14.831   9.583   4.058  0.1519  0.0446  0.0663
15668W        W31137  17.399  16.268  11.943  0.0057  0.0814  0.1610
15669W        W31138   6.731   5.450  10.935  0.3272  0.0081 -0.2376
15670W        W31139   1.197  18.462   6.091  0.2509 -0.1597 -0.2475
15671W        W31140   1.066  17.337   4.413 -0.0663  0.1391  0.0344
15672W        W31141   6.372   6.363   0.389  0.0963  0.1861 -0.2908
15673W        W31142   1.349   9.218  13.183 -0.0194 -0.0871  0.3827
15674W        W31143  11.853   3.403   1.346 -0.2643 -0.1658  0.2043
15675W        W31144  17.073  16.399   3.751 -0.3192  0.0557 -0.1767
15676W        W31145  14.265   4.671   4.948 -0.1502  0.0592  0.4940
15677W        W31146   1.397   0.218   2.050  0.3242  0.1644  0.0792
15678W        W31147   1.413  13.830   3.240 -0.0624  0.0779  0.6164
15679W        W31148  13.020   0.907  15.419 -0.1573 -0.1114  0.1134
15680W        W31149  14.463   8.957   2.213 -0.0323  0.3914 -0.3122
15681W        W31150   1.135  18.481   2.286  0.0332 -0.1856  0.0277
15682W        W31151   1.218   9.914  15.274 -0.1950  0.1080  0.0500
15683W        W31152   1.011   1.149  15.020  0.0377 -0.3454  0.2761
15684W        W31153   6.550  17.247   0.984 -0.0162  0.1586  0.2146
15685W        W31154  16.483   7.853  11.335 -0.1157 -0.1815  0.2726
15686W        W31155  18.298   2.756   2.667 -0.2320  0.2037  0.2888
15687W        W31156   1.408   7.046  11.769  0.0457 -0.0849 -0.1236
15688W        W31157  14.366   9.427   0.834 -0.1886  0.0371 -0.2514
15689W        W31158  13.745  10.180   5.630 -0.2391 -0.1447 -0.1698
15690W        W31159   4.899   3.909   2.609 -0.1817 -0.1534 -0.0491
15691W        W31160   4.749  12.151  11.962 -0.1454 -0.1419 -0.1127
15692W        W31161   9.305  15.906   3.273 -0.2465 -0.0801 -0.2139
15693W        W31162  16.652  18.121   3.648 -0.1407  0.3452  0.1490
15694W        W31163  16.740   8.802  13.927 -0.0226  0.0276 -0.0275
15695W        W31164   9.275   4.747  12.557 -0.1947  0.2739 -0.1571
15696W        W31165  15.538  16.931   1.561 -0.2794 -0.1266  0.0574
15697W        W31166   0.761  11.593  15.193 -0.3214  0.0859  0.0444
15698W        W31167   1.538   0.028   2.498 -0.1657  0.1872  0.0052
15699W        W31168  11.361  10.452  11.055 -0.0993 -0.1758  0.0786
15700W        W31169   9.813  14.543   0.876  0.1521 -0.0853 -0.5453
15701W        W31170  11.613   0.223  10.778 -0.1971  0.0023  0.0099
15702W        W31171   6.241  14.572  11.023  0.1611 -0.0433 -0.1698
15703W        W31172  15.816  12.343   1.537  0.0326 -0.2195 -0.1223
15704W        W31173  15.841   6.963   9.660  0.3872  0.3863  0.0029
15705W        W31174  17.035  16.655   4.971 -0.1934  0.1004  0.1418
15706W        W31175  11.608  15.440   0.461  0.3621  0.0452  0.2008
15707W        W31176   3.824  16.811   1.810  0.1133 -0.0906  0.0234
15708W        W31177   1.724  11.941   4.492  0.4425  0.0918  0.1108
15709W        W31178  13.099  16.240   2.272  0.1679  0.2167 -0.3275
15710W        W31179  13.388   9.664  12.553  0.1275 -0.0253 -0.0033
15711W        W31180   2.955  12.582  12.352 -0.2036 -0.0143  0.4963
15712W        W31181   0.402   0.590  14.281 -0.0397  0.1856  0.0360
15713W        W31182  13.465  16.530   2.518  0.2289 -0.0801 -0.2738
15714W        W31183  12.364   6.141   4.940  0.0331 -0.0664  0.1309
15715W        W31184   6.849   3.060   4.587  0.0697  0.0956 -0.0617
15716W        W31185   1.103   9.344  15.437  0.1125  0.1899  0.0090
15717W        W31186  18.088  16.875  13.225 -0.0632  0.1753  0.0200
15718W        W31187   6.352  16.886  15.285  0.0032  0.0181  0.3394
15719W        W31188  11.940   2.732  12.956  0.4038 -0.1014  0.1587
15720W        W31189   7.802  16.286  13.552  0.1570  0.1467 -0.2068
15721W        W31190  17.440   5.109  15.482 -0.1733  0.2152  0.0404
15722W        W31191   9.458  13.617   4.015  0.0684 -0.3860  0.1534
15723W        W31192  13.179   9.273  11.790  0.2150  0.3058  0.0284
15724W        W31193  12.679   9.442  12.200 -0.3102  0.0365  0.1746
15725W        W31194   0.628  13.062   3.001 -0.3010 -0.1369 -0.0148
15726W        W31195  13.691   3.014  14.065 -0.0290  0.2813 -0.1639
15727W        W31196  16.990   2.701   0.715 -0.1103  0.1732 -0.4019
15728W        W31197  10.674   7.790  12.305  0.0945 -0.1987  0.0719
15729W        W31198  13.199  16.700   1.673  0.2954  0.2184  0.2178
15730W        W31199   9.675   9.271   1.547  0.1451 -0.1286 -0.3318
15731W        W31200   5.251  14.515   0.470  0.0045 -0.2703 -0.2404
15732W        W31201  11.517  10.035   5.645  0.0046  0.3250 -0.0852
15733W        W31202   8.081   7.296   2.184  0.0325  0.1915  0.0910
15734W        W31203  17.222  10.194   2.565 -0.6463 -0.1251 -0.1447
15735W        W31204   9.302  18.723  12.658 -0.1718 -0.0216 -0.1200
15736W        W31205   3.067   4.303  14.193 -0.2210 -0.0987  0.0327
15737W        W31206  13.521  15.528  11.541  0.0274 -0.0103  0.1804
15738W        W31207  13.409  14.745   4.419 -0.4686 -0.3337 -0.1103
15739W        W31208   0.561  10.575  15.661  0.1973 -0.0541 -0.1704
15740W        W31209  14.356  10.273  14.756  0.1773  0.0299 -0.0274
15741W        W31210   7.178  13.512   4.042  0.0315  0.1501 -0.3045
15742W        W31211   5.668  14.740   4.254  0.2552  0.0248 -0.2899
15743W        W31212   2.494  12.274   2.336  0.0456  0.2930  0.2658
15744W        W31213  16.853  10.404  15.618 -0.0849  0.0863 -0.0292
15745W        W31214  13.721  13.833  15.278  0.2431  0.2400 -0.0838
15746W        W31215   0.734  10.558  11.836 -0.2469  0.1774 -0.0522
15747W        W31216  14.321  10.403   5.950 -0.2005 -0.1172  0.0688
15748W        W31217   6.440  18.720  11.418  0.2925 -0.0719  0.0016
15749W        W31218  17.347  13.953  15.101  0.1312  0.0438 -0.1126
15750W        W31219  12.171   3.609   2.515  0.2533 -0.1993 -0.1203
15751W        W31220  13.016  14.053  13.348  0.0833  0.3032 -0.1220
15752W        W31221   9.799  13.844   1.519  0.1879  0.0908  0.1848
15753W        W31222   1.146   9.864   5.204 -0.1941 -0.2876 -0.0291
15754W        W31223  18.684  10.006   1.249  0.0675 -0.1827 -0.0634
15755W        W31224   2.466  17.516  11.753  0.1046  0.1431  0.2513
15756W        W31225   3.085  12.088  13.216  0.3237  0.1861  0.0856
15757W        W31226  14.577   1.194  10.272 -0.1185  0.4723  0.2941
15758W        W31227  16.106  11.360  12.090  0.1666 -0.1895 -0.1871
15759W        W31228   9.480  14.199   1.085  0.0349  0.1480  0.1307
15760W        W31229   5.688   5.840   3.319  0.3276  0.0633  0.1959
15761W        W31230  17.441  12.905   3.612 -0.0047 -0.4538 -0.2098
15762W        W31231   2.990   6.902  14.623  0.0888 -0.0585 -0.2738
15763W        W31232   8.791   8.220  12.284 -0.1218  0.0128  0.2888
15764W        W31233  11.449  13.915   3.660  0.3990  0.1426 -0.3048
15765W        W31234   8.642   4.016  15.023  0.4240 -0.0639 -0.2033
15766W        W31235  12.061   4.225   1.784 -0.2361  0.1080  0.4212
15767W        W31236   2.719   9.898   0.622  0.0438  0.2249 -0.1368
15768W        W31237   2.854  12.355  10.741  0.0785 -0.1076 -0.2993
15769W        W31238   8.009   6.767   0.487 -0.1318  0.0667 -0.0146
15770W        W31239  16.670   9.095  11.774  0.3547  0.0707  0.2711
15771W        W31240   2.923   2.355   0.777 -0.0574  0.2510 -0.2823
15772W        W31241   2.098   7.784   1.263  0.2525  0.0451  0.1193
15773W        W31242   6.680  18.256   1.724 -0.0144 -0.2396 -0.1189
15774W        W31243   4.760   9.561   3.044  0.2241  0.1064 -0.3434
15775W        W31244   5.853   0.643   2.492 -0.0122 -0.0700  0.2172
15776W        W31245  15.610   6.021   4.817 -0.2125 -0.3324  0.1884
15777W        W31246   4.637   6.901  13.798 -0.2501 -0.0919 -0.1017
15778W        W31247  16.586   8.123   4.903  0.0258 -0.1936  0.1698
15779W        W31248   3.102   8.407   2.172  0.1764  0.3489  0.1147
15780W        W31249   2.575   4.837   5.230  0.0044  0.4441  0.1147
15781W        W31250  15.967   8.430  14.002 -0.2587 -0.1121  0.0890
15782W        W31251  17.800  15.131   0.378  0.2143 -0.2534 -0.1754
15783W        W31252  11.404   3.762  15.455  0.1578 -0.1439 -0.3308
15784W        W31253   1.175   5.256  11.366  0.1165 -0.3093 -0.0422
15785W        W31254  15.384  15.315   1.827 -0.1055  0.1775 -0.0809
15786W        W31255  11.774  15.734   0.828 -0.1583  0.0353  0.0570
15787W        W31256   4.554   9.869   2.307 -0.1010 -0.3535  0.0278
15788W        W31257   7.615   2.714   0.561  0.0116  0.2757  0.1889
15789W        W31258   3.935  18.266   1.856  0.3437 -0.1689  0.2778
15790W        W31259   4.365   7.518  11.403  0.2806 -0.1136  0.2539
15791W        W31260  10.065  11.156   4.900  0.1852 -0.0496 -0.0110
15792W        W31261  11.213  15.123   1.210  0.1592  0.3671 -0.1688
15793W        W31262   2.165  10.128  11.733 -0.0667 -0.1018  0.1595
15794W        W31263   0.285   3.999   3.771 -0.5302  0.0589 -0.1395
15795W        W31264  10.237   0.376   3.882 -0.2040  0.1805  0.0808
15796W        W31265  17.971   0.450  12.748  0.3012  0.1174  0.0180
15797W        W31266  10.648   4.414   3.490  0.2466  0.2583  0.1881
15798W        W31267  10.878  14.131   1.742 -0.1799 -0.2003 -0.0115
15799W        W31268   3.397  10.680  13.146 -0.0639  0.0835  0.0943
15800W        W31269   6.610   3.596  10.713 -0.2208 -0.1570 -0.2774
15801W        W31270   0.495   1.336  11.077  0.2121  0.1448 -0.0609
15802W        W31271   5.433  14.367  14.687 -0.1918  0.0918 -0.2802
15803W        W31272  12.455  10.434  12.052  0.1535 -0.1807  0.0987
15804W        W31273  11.566   1.685   2.596  0.2737  0.0543  0.0892
15805W        W31274   6.166  12.336  10.990  0.0967  0.0403  0.0480
15806W        W31275  17.625  16.903  14.081  0.1949 -0.0394 -0.1947
15807W        W31276  13.988   0.811  15.655  0.3310  0.0664 -0.0983
15808W        W31277  18.091  10.493   5.565  0.0743 -0.4381  0.0172
15809W        W31278  15.801   9.888   1.972 -0.2097  0.0936  0.1210
15810W        W31279   0.143   6.172  14.897 -0.3469  0.1051  0.0280
15811W        W31280  17.324  10.816   2.602  0.0073  0.0054 -0.2208
15812W        W31281  13.189  12.912  13.549 -0.0552 -0.1321 -0.1239
15813W        W31282  12.208   3.996   5.317  0.0586  0.0789 -0.2960
15814W        W31283  14.161   6.640  10.760 -0.0100  0.2106 -0.0002
15815W        W31284   6.420  15.103   1.782 -0.0741 -0.0198  0.1353
15816W        W31285   8.987  15.419  14.016  0.0977 -0.1990 -0.0380
15817W        W31286  14.207   4.709  10.907  0.1767 -0.0317  0.3637
15818W        W31287   1.209   8.527   2.320  0.1111 -0.0855  0.2789
15819W        W31288  13.344  13.281   5.538 -0.2771 -0.0912  0.3083
15820W        W31289  15.817  10.297  15.529  0.0574  0.0357 -0.0402
15821W        W31290  16.308  17.764   2.762  0.1567  0.1653  0.1232
15822W        W31291  14.663  16.794  13.066  0.2033  0.1914 -0.1059
15823W        W31292   5.000  11.433   2.676  0.1554 -0.0452  0.3072
15824W        W31293   9.817  11.374   3.433 -0.1177  0.1577 -0.0319
15825W        W31294  17.612  17.070  14.529  0.0971 -0.1875  0.1259
15826W        W31295  16.851   2.476   0.305  0.2602 -0.0427  0.2276
15827W        W31296   4.224   0.871  15.065  0.0120  0.0862  0.0494
15828W        W31297   0.536   9.772  14.025 -0.1069 -0.2299  0.2573
15829W        W31298  13.712   8.360  15.347 -0.0015 -0.0942 -0.0627
15830W        W31299  13.443  11.174  11.819 -0.0203  0.1477  0.2782
15831W        W31300   8.309   7.269  15.166 -0.0247  0.0319  0.1101
15832W        W31301   5.725  11.376  14.560 -0.1787 -0.4843  0.0814
15833W        W31302  15.205   6.330   4.837 -0.1243 -0.0326  0.0625
15834W        W31303   1.910  11.531  12.879 -0.1842 -0.0037 -0.0597
15835W        W31304  15.292   3.108   1.451  0.1668  0.2233 -0.5938
15836W        W31305   4.066  13.314  11.928 -0.1229  0.0441  0.0914
15837W        W31306  15.376  15.370  11.494  0.3804 -0.0184  0.1207
15838W        W31307  13.783   5.479  14.464  0.2958 -0.0734 -0.2526
15839W        W31308   1.307   3.502   0.340  0.0499  0.1635  0.3057
15840W        W31309   9.567   8.674   3.244 -0.0324 -0.0318 -0.0682
15841W        W31310  15.929  14.440   5.388  0.0102 -0.0320  0.0906
15842W        W31311   5.371   5.509  13.859  0.2836 -0.3100 -0.2846
15843W        W31312   2.184  13.476   0.826  0.2322  0.0945 -0.1828
15844W        W31313   0.470  17.865   2.589 -0.0795  0.0870  0.0135
15845W        W31314  16.207   6.313   2.761 -0.1224  0.0082 -0.0341
15846W        W31315   3.513  14.189  11.458  0.2275  0.0567  0.3573
15847W        W31316   8.620  14.601   1.978  0.0241  0.3690 -0.2152
15848W        W31317  16.592  16.977   2.829 -0.2107  0.2243  0.0654
15849W        W31318  11.667  12.977   1.670 -0.0294 -0.2442  0.0735
15850W        W31319   1.653   7.437   0.128 -0.0328 -0.2057  0.2480
15851W        W31320  13.890  18.274   2.701 -0.2652  0.1527 -0.3558
15852W        W31321   4.476   1.100   3.201 -0.0164 -0.1309 -0.2585
15853W        W31322   3.920   0.730   4.330  0.0295 -0.0497 -0.1936
15854W        W31323  14.901  15.110   3.227  0.2469 -0.2426  0.0832
15855W        W31324   6.895   8.949  10.754  0.1633 -0.0715 -0.0911
15856W        W31325  17.046  15.136  13.237 -0.0015  0.1520 -0.0605
15857W        W31326   6.310  13.769  15.214 -0.0897  0.1120 -0.0134
15858W        W31327   5.764   4.717   4.176 -0.1180 -0.2907  0.1581
15859W        W31328   0.721   5.262  14.035  0.2099 -0.4971  0.0654
15860W        W31329   6.506   5.654   1.815 -0.0893  0.1555 -0.1005
15861W        W31330   2.221   3.095   3.169 -0.0922 -0.0521 -0.1432
15862W        W31331   8.566   9.665  13.892  0.2562  0.1158  0.1621
15863W        W31332  17.122  12.882   4.409  0.0028 -0.0531  0.1502
15864W        W31333   9.556  16.013   4.759 -0.3188  0.1331 -0.0291
15865W        W31334   0.623   8.085   0.763 -0.1156 -0.0604 -0.0470
15866W        W31335   6.521  18.554   4.625 -0.3518 -0.2290 -0.1156
15867W        W31336   7.560  10.271   4.996 -0.0891 -0.2376  0.2135
15868W        W31337   7.078   2.436   2.605  0.0782  0.0890 -0.2556
15869W        W31338  10.320  16.291  12.258  0.0657 -0.4235  0.0341
15870W        W31339  15.182   2.151   1.953  0.1604  0.5095  0.1041
15871W        W31340  17.463  14.225   1.615 -0.0040  0.1179 -0.1618
15872W        W31341  11.972   5.801  13.427 -0.4257 -0.1630 -0.2535
15873W        W31342  10.271  18.088   1.624 -0.1443 -0.2974 -0.1292
15874W        W31343  12.441  11.610  14.060  0.0537  0.0166 -0.0401
15875W        W31344   1.775   5.674   3.308  0.0156  0.1916 -0.3813
15876W        W31345  13.436  11.545   2.352  0.1733 -0.0493 -0.0983
15877W        W31346  12.596   2.222   5.340 -0.0291  0.4394 -0.0316
15878W        W31347  12.416   9.812  11.337 -0.1112 -0.4491 -0.0442
15879W        W31348   0.783  12.619   2.778  0.3064  0.2151 -0.0507
15880W        W31349  17.488  16.840   1.052  0.0701 -0.0552 -0.1953
15881W        W31350  14.837   2.427  12.801  0.3303 -0.0737 -0.3572
15882W        W31351  16.498   5.630   1.419 -0.1411 -0.1729 -0.0317
15883W        W31352  14.626  16.614  11.969  0.1619  0.3168  0.1310
15884W        W31353  14.566  17.203  11.094 -0.0335 -0.3655 -0.0758
15885W        W31354   5.430  14.643  12.485  0.1436 -0.1985  0.2658
15886W        W31355   5.182   6.995  14.510 -0.0474  0.1876 -0.0260
15887W        W31356  14.833   8.320   5.188 -0.1768 -0.0273 -0.0702
15888W        W31357  11.793   8.299   5.110 -0.0677  0.1102  0.1440
15889W        W31358  11.721   1.298  13.793 -0.2088 -0.1060  0.0535
15890W        W31359   9.737  14.095  11.258  0.0256  0.4715  0.0570
15891W        W31360   3.674   2.633   2.873  0.5932 -0.1016 -0.0623
15892W        W31361  15.090   1.774  12.017 -0.1007 -0.1635  0.3274
15893W        W31362   4.218   5.541   4.353 -0.1150  0.3488  0.0490
15894W        W31363   9.885   8.763   1.793  0.2349 -0.2413 -0.2436
15895W        W31364   1.849   9.538   9.717 -0.5497 -0.0685 -0.3368
15896W        W31365   0.072   1.759  13.623  0.2005  0.1767 -0.0593
15897W        W31366  16.363  18.610  13.009 -0.0468  0.2890  0.1816
15898W        W31367  18.148  13.409   2.245 -0.0804  0.2857  0.0001
15899W        W31368   5.934  14.329  15.607  0.1621  0.0093  0.3677
15900W        W31369  17.209   0.697   1.241  0.1246  0.0997 -0.2316
15901W        W31370  18.438   1.465   2.189  0.2322  0.3416 -0.0067
15902W        W31371   1.819   7.901   5.795  0.0552  0.1840  0.0656
15903W        W31372   4.205   8.857  12.756 -0.0646  0.1824 -0.2868
15904W        W31373   7.310   2.684  12.406 -0.0680 -0.2105  0.0767
15905W        W31374  15.758   8.720   1.478 -0.0644 -0.0463  0.1527
15906W        W31375  16.167   5.302  12.246  0.1216  0.2119 -0.0422
15907W        W31376  18.409   0.016   5.266 -0.0595 -0.0108  0.0859
15908W        W31377   0.958   0.288   0.376  0.3249 -0.3728 -0.3029
15909W        W31378   7.064  15.776   2.107 -0.0741 -0.1049  0.2249
15910W        W31379  14.397  17.643   2.533 -0.1119 -0.0499  0.0991
15911W        W31380  18.335   4.726  11.907 -0.4188  0.1148 -0.1654
15912W        W31381   3.579   4.491   3.137  0.0361 -0.0383  0.0850
15913W        W31382   7.533  15.748  11.296 -0.0231  0.0697  0.5652
15914W        W31383   3.732  17.325  10.198  0.0917  0.1777  0.1496
15915W        W31384   8.390  17.791   4.873  0.0035  0.1536  0.0806
15916W        W31385  10.294  12.916   0.678 -0.3090  0.1463  0.0837
15917W        W31386   2.374  11.713  10.940 -0.5410  0.2472 -0.1814
15918W        W31387   2.287   3.951  11.538  0.1256 -0.0966  0.0915
15919W        W31388   4.632  16.616  13.005 -0.1312  0.1745 -0.0182
15920W        W31389   0.481  16.104  12.925  0.1882 -0.4775  0.0035
15921W        W31390   0.360   4.886  15.655 -0.1400 -0.1017 -0.1865
15922W        W31391   4.676   9.000   3.159  0.0236  0.0131  0.2130
15923W        W31392   0.335  14.474   0.955 -0.1333  0.1799 -0.1230
15924W        W31393  13.047   0.023   4.980 -0.0200  0.0283  0.1503
15925W        W31394  13.040   1.390  11.332  0.1015 -0.4757 -0.0713
15926W        W31395  13.821   3.021   0.408 -0.0782  0.1735 -0.0573
15927W        W31396  15.676   9.040  15.598 -0.1129  0.0565  0.2525
15928W        W31397   5.854  13.510   9.671 -0.1081  0.0439 -0.6163
15929W        W31398  16.009  17.594  12.865 -0.0943 -0.0541 -0.4283
15930W        W31399  13.131  10.549   2.309  0.0571 -0.0902  0.0832
15931W        W31400  15.039   7.264  11.729  0.0401  0.1652 -0.1170
15932W        W31401   0.744   0.649  10.583 -0.2966 -0.0193  0.1214
15933W        W31402  13.044   5.205  12.664  0.4323  0.1233  0.0505
15934W        W31403  16.017   5.721   4.831 -0.1899 -0.2145 -0.0378
15935W        W31404  10.160   5.167  12.544 -0.2581 -0.0528  0.2315
15936W        W31405  17.652  13.325  15.611  0.0124 -0.3053 -0.1155
15937W        W31406  10.800  10.894  14.819 -0.2805 -0.1450  0.1881
15938W        W31407   3.091  13.759  14.435  0.1787 -0.0321 -0.1247
15939W        W31408   2.987   9.308   4.793 -0.2899  0.2285 -0.2012
15940W        W31409   4.727  11.674   0.914 -0.3049 -0.0542  0.2025
15941W        W31410  13.479   7.201  11.711 -0.0742 -0.1138 -0.4236
15942W        W31411   2.503  11.088   9.915 -0.1128 -0.0462  0.0669
15943W        W31412   1.555  11.957  12.632  0.0233 -0.0905  0.2267
15944W        W31413  12.251  10.368   6.148  0.0726 -0.2965  0.0427
15945W        W31414  15.131  15.994   2.939  0.0515 -0.0900 -0.3443
15946W        W31415   2.963   1.439   9.882  0.0887  0.0443 -0.0041
15947W        W31416  11.815  10.028   2.636 -0.0391 -0.1393 -0.2675
15948W        W31417  11.482   3.692   1.519  0.4248 -0.0519 -0.1721
15949W        W31418  17.202  13.005   0.543 -0.2710 -0.0905 -0.0400
15950W        W31419  15.166  10.592   3.536  0.2556 -0.0696 -0.1331
15951W        W31420  14.854   1.692  13.914 -0.0009  0.1104 -0.2086
15952W        W31421   3.061  15.256  12.855 -0.3408 -0.3117 -0.1322
15953W        W31422   6.837   9.775  11.685  0.1590 -0.0977  0.1394
15954W        W31423   0.306  14.365  12.157  0.2231 -0.1943  0.1932
15955W        W31424  14.640  15.073  11.093  0.2287 -0.1987  0.2681
15956W        W31425  11.517  17.459  11.442 -0.1208 -0.0381  0.2345
15957W        W31426  15.126   7.757  11.868  0.1536  0.2000  0.2364
15958W        W31427   2.445   7.699  13.686  0.4346 -0.0978 -0.0462
15959W        W31428  16.671  17.991  11.296  0.0369  0.2317 -0.1753
15960W        W31429   3.927  17.258   0.678  0.0875 -0.3172  0.1854
15961W        W31430  14.479   2.890  10.862  0.0992 -0.0264 -0.1529
15962W        W31431   6.937   8.026  11.314 -0.3952  0.0167  0.0958
15963W        W31432  18.002  12.725  14.060  0.1157  0.0711  0.0315
15964W        W31433  14.187   5.273   1.517 -0.0066 -0.0868  0.0222
15965W        W31434   5.892   4.836  15.485 -0.1816 -0.2975  0.0625
15966W        W31435   2.142  14.115   4.974 -0.2524  0.0413  0.1355
15967W        W31436   9.757   9.368  12.607  0.2070 -0.0395 -0.2823
15968W        W31437   6.713   8.782  14.069  0.0492 -0.1218  0.2573
15969W        W31438   7.049   2.816  13.477  0.0708 -0.1491 -0.1695
15970W        W31439   2.673  15.636   1.529 -0.1725  0.2376 -0.2833
15971W        W31440  10.372   8.832   4.789 -0.1209 -0.1915  0.0113
15972W        W31441   1.810   7.361   4.655 -0.1771 -0.0844  0.5518
15973W        W31442   9.166   4.474  14.034 -0.1938 -0.0096 -0.2183
15974W        W31443   8.930   9.048   4.385  0.0463 -0.2390 -0.5746
15975W        W31444  11.334  13.719   4.133 -0.0143  0.0872 -0.2627
15976W        W31445   7.172   4.310   5.516 -0.0665  0.2012 -0.0299
15977W        W31446  16.593  17.627  13.820 -0.2273  0.2516  0.2651
15978W        W31447  10.624   6.640   3.589 -0.0681  0.1436 -0.0379
15979W        W31448   7.334  12.232  13.646  0.2756 -0.0127 -0.1659
15980W        W31449   9.882  16.347  15.595 -0.2439  0.4064  0.1565
15981W        W31450   0.945  17.934  11.563 -0.0884 -0.2778 -0.0708
15982W        W31451  12.753  17.419  12.031  0.0884 -0.0233 -0.3051
15983W        W31452  10.675  15.238  13.246  0.1347 -0.2757  0.2955
15984W        W31453   1.906  14.262   2.262  0.3331  0.2212 -0.2608
15985W        W31454  15.464  17.114  10.755  0.2479  0.1398 -0.1002
15986W        W31455   8.285   7.064  12.251 -0.0534  0.0559  0.1359
15987W        W31456   4.578  12.086   1.181 -0.2734  0.1366  0.2126
15988W        W31457  18.769  10.534  12.517 -0.1913  0.2273  0.2832
15989W        W31458   7.687  16.378   0.359  0.0815 -0.2177 -0.1472
15990W        W31459   3.242  18.405   4.023  0.2804 -0.2618 -0.0189
15991W        W31460  15.557  16.363   0.827  0.0324  0.4002  0.0720
15992W        W31461   0.178   2.760   0.878  0.0505 -0.3058  0.0024
15993W        W31462  18.600   0.673   3.253  0.1392 -0.2358 -0.0016
15994W        W31463  15.041   3.225   5.393 -0.1392 -0.1326  0.3191
15995W        W31464   0.151   2.960   1.836 -0.0535  0.1070  0.1610
15996W        W31465   2.119   9.499   2.631  0.0395  0.0007 -0.1661
15997W        W31466   8.117  10.790   2.163 -0.0234 -0.1389 -0.1417
15998W        W31467   3.902   0.717   2.724 -0.0141 -0.1055  0.2132
15999W        W31468   9.908   7.683  11.328 -0.2719 -0.0563 -0.2700
16000W        W31469  10.892   4.925   1.471  0.0931  0.0266 -0.1182
16001W        W31470   0.494  11.862   2.598 -0.0052  0.0096 -0.0386
16002W        W31471   0.166  10.805   3.103 -0.2229 -0.0592  0.2456
16003W        W31472  16.150   8.402   5.067  0.0496  0.0926 -0.1146
16004W        W31473  16.228   0.674  14.288  0.0030  0.2851  0.0304
16005W        W31474  10.234   7.864   0.186 -0.0975  0.2006  0.0912
16006W        W31475  13.255  18.772  13.568 -0.0719  0.0241  0.0628
16007W        W31476  11.114   2.389  11.854  0.1417  0.2100 -0.0196
16008W        W31477  11.490   7.758  10.409  0.1990  0.1124  0.0226
16009W        W31478   8.493  17.236  13.331  0.2122  0.0466  0.0603
16010W        W31479  17.570  11.543   3.315 -0.0056 -0.3020 -0.3889
16011W        W31480   3.467   4.749  13.538  0.0682  0.0837 -0.4815
16012W        W31481   8.015   1.438   2.817  0.0091 -0.2668  0.0661
16013W        W31482  13.648  17.998  14.086  0.1765 -0.2744 -0.1253
16014W        W31483   1.587   3.805   1.978  0.0395  0.1362  0.0364
16015W        W31484   5.121  10.204   2.291 -0.1936 -0.0696  0.0506
16016W        W31485  12.328  12.302   4.167 -0.0324  0.1747  0.0936
16017W        W31486   7.856   5.153   1.447 -0.0804  0.0580  0.2163
16018W        W31487  11.681   7.542   0.249  0.0337 -0.0229  0.0303
16019W        W31488  18.283   5.253  11.854 -0.1730  0.1023  0.1785
16020W        W31489   5.109   6.102  13.097  0.2236  0.1179  0.0238
16021W        W31490   3.681  10.220  13.327 -0.0738  0.0881 -0.0013
16022W        W31491  18.468  13.821   1.715 -0.1140 -0.0435  0.1339
16023W        W31492  12.480  17.555   2.001 -0.1413  0.4414  0.0442
16024W        W31493  16.765   5.988   5.001  0.1724  0.2805 -0.2743
16025W        W31494   0.266   7.127   5.527  0.1533  0.1480  0.0486
16026W        W31495  17.013  16.426  11.426  0.0329 -0.0227  0.2635
16027W        W31496  10.385  14.564   4.655 -0.2110  0.1340  0.0690
16028W        W31497  16.780   0.718   3.951  0.0118  0.0748 -0.1154
16029W        W31498  13.577  18.053  11.853 -0.0260 -0.3666 -0.0278
16030W        W31499   8.032  14.836  14.187 -0.1849 -0.2594 -0.2318
16031W        W31500   8.652  16.790   4.106 -0.2207  0.2417  0.1043
16032W        W31501   7.031   8.126   2.955  0.0074 -0.0829  0.3518
16033W        W31502   5.119  18.526   5.170 -0.3142  0.1955 -0.0096
16034W        W31503  14.384   4.736   3.605 -0.1200  0.2099  0.2411
16035W        W31504  18.045   7.689  11.347 -0.2797  0.0344 -0.3014
16036W        W31505  14.418   1.690  10.984 -0.0266  0.1087  0.2610
16037W        W31506  11.681  16.873   0.997  0.0883 -0.0683  0.0598
16038W        W31507   1.866   9.943   2.743  0.2543 -0.0854 -0.2838
16039W        W31508  14.362   3.689  13.933 -0.2474 -0.0207 -0.1780
16040W        W31509  14.233   3.640  14.411 -0.2087 -0.1154  0.3602
16041W        W31510   0.049  13.515   3.588 -0.3508 -0.3633  0.1003
16042W        W31511   7.090  18.354   0.071  0.2228  0.0103 -0.3526
16043W        W31512  15.111  13.729   4.361  0.0221 -0.0044 -0.0179
16044W        W31513   0.727  10.260  11.476 -0.0841  0.2759  0.1525
16045W        W31514   6.751   0.467   0.194  0.1830 -0.1596 -0.0623
16046W        W31515   7.990   3.152  14.832 -0.1859  0.2186 -0.4630
16047W        W31516  14.055  18.227  15.475  0.0295  0.2496  0.1420
16048W        W31517   5.063   5.271  14.176  0.0672 -0.2681  0.1283
16049W        W31518   2.582  11.586  14.892  0.2295  0.4387 -0.2074
16050W        W31519  18.479   2.628   1.721  0.1322 -0.1930  0.1540
16051W        W31520   5.573   1.385   0.250  0.5239  0.2952  0.2081
16052W        W31521   6.129  18.652   2.255  0.0151  0.0503  0.2091
16053W        W31522   5.876  18.281   3.685 -0.2751  0.4286 -0.0517
16054W        W31523   5.531  11.425  11.113 -0.1548  0.0071 -0.3841
16055W        W31524  18.181   7.898   4.661 -0.2797  0.0435 -0.0281
16056W        W31525   3.484  14.042  14.625  0.3925 -0.0615  0.0398
16057W        W31526   6.269  11.524  13.333  0.3509 -0.0066 -0.1955
16058W        W31527  17.947  17.730   4.208 -0.2108 -0.3226  0.1123
16059W        W31528  16.387  14.202   4.302  0.0569  0.1108  0.2145
16060W        W31529  13.394   5.907   9.550  0.5373 -0.1014  0.2233
16061W        W31530   6.606  10.604   5.226  0.0804 -0.1656 -0.0138
16062W        W31531  18.486   6.199   4.349 -0.3372 -0.0424  0.1955
16063W        W31532  12.192   2.366  13.130  0.1497 -0.1502 -0.3340
16064W        W31533   0.505  17.030   5.255 -0.0804  0.0353  0.0292
16065W        W31534   7.833  11.161  14.568 -0.0261 -0.0383 -0.0715
16066W        W31535   1.067   7.448   0.004  0.1470 -0.2520  0.1578
16067W        W31536   1.468   4.778   2.461 -0.2723 -0.2698  0.0901
16068W        W31537   6.992   3.495   1.796  0.1099  0.0203 -0.2551
16069W        W31538  13.286   8.231  13.481  0.1439  0.3483  0.0987
16070W        W31539  16.642  16.385   4.311  0.0055  0.0786  0.2950
16071W        W31540  16.244  10.572   2.423 -0.0761 -0.0811 -0.0436
16072W        W31541   7.663   0.485   5.644 -0.0037  0.1088  0.0236
16073W        W31542   5.813  10.203   4.947 -0.0586 -0.2496  0.2320
16074W        W31543  13.500   8.717  14.177  0.0327 -0.2588  0.1139
16075W        W31544   3.474  13.840  13.187 -0.1374  0.1652 -0.0434
16076W        W31545  18.421   9.068   0.637 -0.1063  0.1013 -0.2169
16077W        W31546  11.663   5.594  10.615  0.3096 -0.1366  0.0182
16078W        W31547   2.225  16.157  11.551  0.1040 -0.3271  0.0157
16079W        W31548   7.257  15.591   3.896  0.3091 -0.1960  0.2227
16080W        W31549   7.690   3.377   1.676 -0.1685 -0.1215  0.1886
16081W        W31550   0.483  14.842  13.861 -0.2049  0.3617 -0.1741
16082W        W31551  10.811  11.039  11.422 -0.0477  0.0874 -0.1640
16083W        W31552  12.872  15.423   4.956 -0.1027  0.0478  0.2456
16084W        W31553  14.176   7.098  14.485  0.1101 -0.0969  0.3313
16085W        W31554   3.558   8.005  10.956 -0.0237 -0.3974  0.1339
16086W        W31555   2.809  14.202   4.295  0.2433  0.1945 -0.0051
16087W        W31556   2.687   6.077  12.173  0.0822  0.3029 -0.0458
16088W        W31557   0.036  15.515   5.897 -0.2365  0.2408 -0.1023
16089W        W31558  16.545   5.497  13.808  0.2704 -0.1359 -0.0931
16090W        W31559   3.935  14.028  11.148  0.3160  0.3964 -0.1967
16091W        W31560  10.210   0.331  13.562 -0.0702  0.1573  0.2370
16092W        W31561  14.510   3.002  13.947 -0.1761 -0.1012  0.1771
16093W        W31562  12.039  16.466  15.193  0.2053  0.2312 -0.1185
16094W        W31563   8.376  12.140  11.277  0.2431  0.2979 -0.2961
16095W        W31564  14.366  12.888   2.741 -0.2374 -0.0613  0.0602
16096W        W31565  12.525  12.770   5.456  0.1880  0.0238 -0.1780
16097W        W31566   5.896   6.650   2.851  0.2353  0.3011 -0.1705
16098W        W31567   7.285   1.549  11.540 -0.4228 -0.3218 -0.0413
16099W        W31568   1.418   2.635   3.518  0.0024 -0.3942  0.2062
16100W        W31569   3.980   2.923   2.355  0.0323 -0.0137  0.4087
16101W        W31570  11.537   0.193   2.312  0.0332  0.0628 -0.1682
16102W        W31571  16.010   2.692   4.279 -0.0378  0.2009  0.3305
16103W        W31572  18.294   1.534  11.368  0.1168 -0.1405  0.3873
16104W        W31573   5.714   8.067   3.370 -0.0515 -0.3465 -0.2189
16105W        W31574  12.322   7.327   4.254  0.1813 -0.0438 -0.0452
16106W        W31575   4.058  16.936  11.801 -0.0254  0.2167 -0.2020
16107W        W31576  16.291  14.738   2.904  0.0538  0.0971 -0.2265
16108W        W31577  17.187  10.597   4.541 -0.2836 -0.1371  0.0256
16109W        W31578  15.342   6.720   5.182 -0.0943  0.1627  0.3535
16110W        W31579   3.619  17.466   2.301  0.0656  0.1509  0.1846
16111W        W31580   9.082  12.295  14.616 -0.1925 -0.3656 -0.2724
16112W        W31581  12.127   1.609  13.705 -0.0485  0.0995  0.0983
16113W        W31582   3.261   6.988   1.463  0.1370  0.1955  0.0444
16114W        W31583   5.403   7.828  14.344 -0.0781  0.1543 -0.1102
16115W        W31584  17.104   2.613  11.919 -0.0929 -0.0493 -0.0523
16116W        W31585   6.934   5.650  13.253 -0.0509  0.1974 -0.0988
16117W        W31586   5.073  11.339  11.445  0.1411 -0.1708 -0.0772
16118W        W31587  11.359  10.868   5.463  0.0931  0.2390 -0.1365
16119W        W31588   5.903   2.066   2.652 -0.0671 -0.0157  0.0565
16120W        W31589   4.934   4.571  15.105  0.1341 -0.1947 -0.0343
16121W        W31590  16.389  17.200   1.960  0.1685  0.1827 -0.0851
16122W        W31591   7.412   5.897  13.269  0.2147  0.2122  0.0703
16123W        W31592   1.720  11.982  14.124  0.0096 -0.0833  0.1045
16124W        W31593  13.302  15.099   3.948  0.2501  0.4867  0.0950
16125W        W31594   8.125  10.942  10.523 -0.0083  0.0147  0.1679
16126W        W31595  15.355   9.326   0.489  0.1190  0.0484 -0.0429
16127W        W31596   6.470  17.760  14.826  0.3910  0.3056  0.0710
16128W        W31597  15.769  12.560  12.798  0.2107 -0.0656  0.2210
16129W        W31598   7.160   8.151   1.464  0.0669 -0.0501  0.3782
16130W        W31599  16.722   2.868   3.419  0.1481  0.1322  0.0971
16131W        W31600   3.322   2.374   2.316  0.1638  0.1642 -0.3780
16132W        W31601   3.884   3.017  14.980  0.0444 -0.0589 -0.1163
16133W        W31602  14.644  17.206   2.736 -0.0644  0.1374  0.0259
16134W        W31603   4.639  16.205   2.229  0.0803 -0.0499  0.1414
16135W        W31604   1.245  15.791  11.898  0.0166 -0.1088  0.0798
16136W        W31605   0.186   7.937   4.116  0.0451 -0.0464  0.1106
16137W        W31606   2.770   0.868   4.113  0.1670 -0.1531  0.2107
16138W        W31607  15.377  18.164   1.978 -0.1760 -0.1969  0.0163
16139W        W31608   0.426  14.964  14.322  0.1303 -0.1115 -0.0341
16140W        W31609   2.242   7.343  13.500 -0.0893 -0.1271 -0.3701
16141W        W31610   0.556  13.754   3.406  0.0988 -0.3060 -0.0133
16142W        W31611  13.939  16.555   4.910  0.0243 -0.1190  0.3322
16143W        W31612  15.261   5.501  12.995 -0.0575  0.1450  0.1993
16144W        W31613   1.456   1.926   5.351  0.1465  0.4371 -0.1419
16145W        W31614   7.213   8.527  11.454  0.0449  0.2534  0.3007
16146W        W31615   1.404  10.357  15.130  0.2262 -0.0587  0.3109
16147W        W31616   6.254   9.903   3.601 -0.1419 -0.1081 -0.1171
16148W        W31617   8.539   2.927   9.748  0.0702 -0.0216  0.0619
16149W        W31618   6.531  17.892   0.675  0.0762  0.1533 -0.0794
16150W        W31619   3.552   9.085   3.337  0.3235  0.0088  0.3275
16151W        W31620   3.277   7.249  14.803 -0.5502 -0.2932 -0.1450
16152W        W31621  13.235   4.581   2.394  0.0723 -0.0062 -0.2810
16153W        W31622   9.857  16.232  10.299  0.2602 -0.2384  0.0372
16154W        W31623   8.361  13.402   2.895 -0.0303  0.0395 -0.3811
16155W        W31624   9.242   0.943  14.551 -0.1079 -0.1238  0.0692
16156W        W31625   5.680   3.825  15.541  0.0488  0.0076  0.1578
16157W        W31626  17.029   2.499  12.595 -0.1001  0.4745 -0.2991
16158W        W31627   4.125   5.363  11.148 -0.1896 -0.0170  0.0504
16159W        W31628   5.364   1.554   0.961  0.3391  0.1644 -0.0216
16160W        W31629  15.426   9.343   3.287 -0.1484  0.1374 -0.1452
16161W        W31630   8.330   5.105   2.471  0.1736 -0.1563  0.2074
16162W        W31631  17.347   0.165   3.011  0.0878 -0.2707 -0.1266
16163W        W31632  12.551   2.954   9.404  0.1016  0.1466 -0.1218
16164W        W31633   0.153   2.585  11.134 -0.1859 -0.1239 -0.2823
16165W        W31634  11.579   9.401  12.480 -0.1908  0.1607 -0.0610
16166W        W31635   5.546  14.975   3.818  0.3381 -0.4634 -0.0754
16167W        W31636  15.179   6.474   3.405 -0.1131  0.2622  0.0896
16168W        W31637  12.744  11.217  13.187  0.1619 -0.0150  0.0099
16169W        W31638   5.510  10.486   2.246 -0.0066 -0.3470  0.0073
16170W        W31639   8.474   8.753  15.317  0.0086  0.1830 -0.0204
16171W        W31640  16.186   9.602   1.668  0.3144  0.0971 -0.3726
16172W        W31641  10.772   7.863  11.362  0.0103  0.3809 -0.4044
16173W        W31642  18.312  16.153   2.608 -0.0078  0.1050  0.0299
16174W        W31643   9.432   7.512   3.841  0.2052  0.0638  0.0110
16175W        W31644   6.198  13.682   5.005 -0.3367  0.0520 -0.0385
16176W        W31645   7.749   0.696  14.119 -0.3815  0.0203  0.0557
16177W        W31646  12.932   7.777  15.599  0.1068  0.2742 -0.0703
16178W        W31647   6.212  11.651  12.862 -0.3229 -0.2354  0.0871
16179W        W31648   5.836   8.248   1.618 -0.0802 -0.1185  0.0727
16180W        W31649  17.852  17.620   3.652 -0.1703  0.1672 -0.0236
16181W        W31650  12.807  16.436   2.701 -0.3823 -0.0891 -0.4082
16182W        W31651   1.010   4.899   4.138 -0.2669  0.2126  0.3073
16183W        W31652  14.916   9.365  11.283  0.4644 -0.1723 -0.0782
16184W        W31653  15.562  11.301  13.930 -0.2062  0.2716  0.2448
16185W        W31654   8.990  16.715   0.389 -0.0113  0.0749 -0.1034
16186W        W31655  17.958  16.363   4.131 -0.2852  0.2889  0.2092
16187W        W31656  16.923  18.035   0.717  0.0478  0.2012 -0.1004
16188W        W31657  17.096   7.029  13.904 -0.0630  0.2274  0.1346
16189W        W31658   1.762   2.862  15.627  0.0868 -0.1554 -0.1487
16190W        W31659   7.250   3.811  15.178 -0.1497  0.0056 -0.2780
16191W        W31660   0.111  12.658  11.304 -0.2466 -0.0783 -0.1114
16192W        W31661  11.716   6.487  14.477  0.1324 -0.1678  0.0160
16193W        W31662   8.440   9.513  11.134 -0.2207  0.1589  0.1840
16194W        W31663   3.918   7.575   4.493  0.1069 -0.1135  0.3400
16195W        W31664   4.856   6.972   3.141  0.1826 -0.1640  0.1619
16196W        W31665   1.764   9.098  11.508  0.2370 -0.0152 -0.0731
16197W        W31666   3.729   1.014   4.001 -0.1263 -0.1586 -0.0973
16198W        W31667  10.156  13.652   0.296  0.1716  0.0812 -0.2722
16199W        W31668  16.745   0.074  13.218  0.1793  0.3865  0.1319
16200W        W31669  16.654  18.125  14.018  0.0934  0.1117  0.3500
16201W        W31670  18.382  13.832  11.240  0.1342  0.1408  0.2695
16202W        W31671   9.188   5.819  13.138  0.1807  0.0332  0.2874
16203W        W31672   6.024  18.442   4.445  0.3134  0.4493 -0.1780
16204W        W31673   5.828   8.591   1.060 -0.0275  0.3125 -0.0459
16205W        W31674   1.561   9.392   1.951 -0.3264  0.0361  0.0498
16206W        W31675   6.232  17.497   3.248 -0.0384 -0.3732  0.6160
16207W        W31676   8.734  11.289  10.595 -0.1469 -0.1588 -0.3445
16208W        W31677   2.492   3.500  12.749  0.0010  0.2719  0.2067
16209W        W31678   8.080   3.487   3.865  0.0625 -0.2332  0.1601
16210W        W31679   3.491  16.593   0.265 -0.2675  0.0822 -0.0773
16211W        W31680   9.176   0.666  11.803  0.0184  0.2633 -0.3573
16212W        W31681   2.079   9.729  12.734  0.2024 -0.2934  0.0269
16213W        W31682  13.048  14.865  13.058  0.1047  0.0077 -0.0846
16214W        W31683   1.095  10.316  12.204  0.1450 -0.1238 -0.3077
16215W        W31684   3.123   3.231  12.223  0.1577 -0.2232  0.4092
16216W        W31685   1.501   6.620  12.456 -0.0644  0.1991  0.0938
16217W        W31686   1.266   8.232   3.658 -0.0835 -0.2303  0.2951
16218W        W31687   3.732   8.697   0.334  0.0589 -0.1437  0.0580
16219W        W31688  17.531  11.264  13.619 -0.0622 -0.2271 -0.0709
16220W        W31689  18.042  15.051   2.167  0.0818  0.2106 -0.1505
16221W        W31690  18.185  10.070  11.277 -0.2769  0.0080  0.3854
16222W        W31691   8.503   0.107  11.474 -0.1061  0.2944  0.2261
16223W        W31692   6.719  14.391  15.041  0.1883 -0.2041 -0.3336
16224W        W31693  13.578  13.609   0.071  0.0073  0.0236 -0.0765
16225W        W31694   0.419  18.326   1.249  0.0620  0.2095 -0.1549
16226W        W31695   0.912   8.480  15.542  0.0144  0.0895 -0.1350
16227W        W31696  14.878  11.432  13.395  0.2154 -0.0629  0.1630
16228W        W31697   7.263   9.647  14.984  0.0914 -0.0001 -0.1540
16229W        W31698   3.923   8.689   9.617 -0.1514  0.2251  0.0266
16230W        W31699   9.883   5.486   3.658  0.3016 -0.0242  0.1223
16231W        W31700  12.636   3.269   1.281  0.0222  0.2013 -0.0173
16232W        W31701  13.002  18.477  15.621 -0.1815  0.1131  0.0476
16233W        W31702   5.522   1.286  14.779 -0.1878 -0.1194 -0.3301
16234W        W31703   0.820   4.042   0.537  0.1647 -0.1661  0.1398
16235W        W31704  13.109   0.091   3.617  0.2813 -0.3129  0.0492
16236W        W31705  16.412   1.245  12.407 -0.1454  0.4471  0.0001
16237W        W31706  17.401   6.742   2.965  0.3839  0.1829  0.0223
16238W        W31707   8.382   9.547  12.504  0.2222  0.1374  0.1882
16239W        W31708  18.210   0.278   1.055 -0.2611 -0.2396 -0.2583
16240W        W31709  13.946   6.704  13.971  0.0070 -0.4113  0.0055
16241W        W31710  16.734   2.216   4.325  0.1054  0.0848  0.0653
16242W        W31711   2.449   6.250   4.082  0.1010  0.0853  0.1478
16243W        W31712   3.585   3.173   3.790  0.1467 -0.0816 -0.2825
16244W        W31713  14.964  10.690  13.491 -0.0000  0.0272  0.2936
16245W        W31714  17.809   6.926   5.370  0.0907  0.1372 -0.0186
16246W        W31715   0.010  11.812   4.966  0.0668  0.0499 -0.3387
16247W        W31716  16.353  12.019   2.417  0.0483 -0.1068 -0.1388
16248W        W31717  18.225  11.518   2.628 -0.0798  0.2586 -0.1902
16249W        W31718   3.199  13.549   3.498  0.2116 -0.0848 -0.0262
16250W        W31719  10.076   6.942   0.183 -0.1378 -0.0767  0.0666
16251W        W31720  17.969   1.432   1.941 -0.1884  0.0238  0.1019
16252W        W31721   0.178  12.281  10.964  0.3882  0.0169  0.0844
16253W        W31722  12.518   9.867   4.599  0.0944 -0.0744 -0.2001
16254W        W31723   0.567  14.099   2.026  0.1986  0.0660 -0.0671
16255W        W31724   3.928  10.232   3.618 -0.3203  0.2227 -0.0892
16256W        W31725  13.842   8.806  11.667  0.3515 -0.1671 -0.1286
16257W        W31726   9.122  18.321  14.046  0.2026 -0.0648  0.2396
16258W        W31727   7.479   7.417  13.611 -0.2085  0.0339 -0.0210
16259W        W31728   4.769   4.636   4.621  0.3333 -0.0944  0.2476
16260W        W31729  14.298   9.866   1.169  0.2064 -0.1508 -0.3512
16261W        W31730   4.651  17.596   4.566  0.0814 -0.1927  0.1199
16262W        W31731  12.822   9.697  14.044 -0.1657  0.0465  0.1134
16263W        W31732   3.488  12.600  12.419 -0.1526  0.2647 -0.1618
16264W        W31733  10.924  10.623   0.650 -0.0417  0.2037  0.0881
16265W        W31734  15.134  18.372   1.076 -0.3656 -0.0977 -0.1371
16266W        W31735   6.862  16.490  13.587  0.1537  0.3175  0.0458
16267W        W31736   7.506   5.705   4.725  0.0033 -0.0027  0.0496
16268W        W31737   6.062  17.296   2.278 -0.0143 -0.4085 -0.1091
16269W        W31738   0.824  17.049  11.300  0.1527 -0.1002 -0.0260
16270W        W31739  14.966  15.108  15.369 -0.4274 -0.0826  0.1805
16271W        W31740   8.604  12.285   3.925  0.1417  0.1088 -0.2030
16272W        W31741   3.169   9.411  11.238  0.1991  0.0049  0.1282
16273W        W31742  11.429   4.382  14.074  0.0796 -0.1178  0.0050
16274W        W31743   6.037  13.981   1.832 -0.1887 -0.4631  0.2408
16275W        W31744  11.417   0.820  10.960  0.1340  0.0098 -0.1040
16276W        W31745  15.267  13.823  12.705  0.3840  0.0266 -0.0236
16277W        W31746   2.958  14.773   4.320  0.1842  0.1551  0.0141
16278W        W31747  10.089  16.617  10.588 -0.1929  0.1319 -0.3535
16279W        W31748  14.966  14.004  15.101  0.1936 -0.0488  0.0752
16280W        W31749   3.697   5.699   4.878  0.0432 -0.3774 -0.2864
16281W        W31750  12.745  18.315  10.816  0.5455 -0.0670  0.4397
16282W        W31751   2.780   9.818  11.146 -0.0431 -0.2824 -0.0651
16283W        W31752   4.783  14.276   1.295 -0.0379  0.0748 -0.1279
16284W        W31753   8.441   8.213  13.694 -0.1058  0.0205  0.2632
16285W        W31754  10.894   2.501   0.825  0.3407 -0.0465 -0.3065
16286W        W31755   7.268   7.446   2.076  0.0899 -0.1551  0.1689
16287W        W31756  18.407   6.226   4.926 -0.1766  0.0704  0.1714
16288W        W31757  14.380   2.189   0.266  0.1960  0.0746  0.1275
16289W        W31758  12.863   8.048   6.117  0.2822  0.2018  0.1290
16290W        W31759  15.746   0.981   0.091  0.0448  0.1783 -0.2938
16291W        W31760   7.748   4.741  15.204 -0.3058 -0.3802  0.0113
16292W        W31761  16.790  11.196   2.064 -0.1157  0.1388  0.1895
16293W        W31762  17.551   5.235   4.876 -0.0465  0.2276  0.1339
16294W        W31763   4.386   9.007  11.737 -0.5532 -0.0722 -0.0695
16295W        W31764  13.851   6.592   0.146 -0.0905 -0.1234  0.0548
16296W        W31765  16.639  14.962  11.283  0.1364  0.1386 -0.1574
16297W        W31766   8.986  15.285   2.728  0.2206 -0.0916  0.1676
16298W        W31767   2.092   7.788   4.726  0.2470 -0.0066  0.1415
16299W        W31768  12.748   9.832   2.248  0.1957 -0.2731 -0.1207
16300W        W31769   7.571  15.409  14.736  0.1265 -0.3448 -0.0859
16301W        W31770   8.100   5.519   2.152  0.0933  0.0158 -0.2597
16302W        W31771  10.884   5.718   2.422 -0.2294 -0.4030  0.0636
16303W        W31772  10.496  13.457   0.675 -0.1491  0.1751  0.4378
16304W        W31773   6.811   5.883  15.486  0.2839  0.1503 -0.1474
16305W        W31774  18.269  15.282  11.344 -0.0726 -0.1660 -0.0969
16306W        W31775   3.507   4.487  14.551 -0.1285 -0.0813 -0.1102
16307W        W31776   3.336  10.163   4.361 -0.1471  0.1510 -0.2324
16308W        W31777  18.673   1.261  13.969  0.1372  0.1549  0.1246
16309W        W31778   0.600   3.297   0.179  0.0736 -0.0236 -0.0424
16310W        W31779  11.806  13.532  15.350  0.0560 -0.0518 -0.1733
16311W        W31780  11.782   2.551   2.423  0.1544  0.3564 -0.0227
16312W        W31781  15.829  10.673  12.902  0.0028 -0.4726  0.0274
16313W        W31782   6.260   4.395  15.211 -0.0350 -0.2748 -0.5224
16314W        W31783   2.862   4.900  12.969  0.2143  0.0833 -0.1611
16315W        W31784  12.574  11.056   5.462  0.0222  0.0267 -0.0708
16316W        W31785   9.193  15.763   0.176  0.0160 -0.1392 -0.0385
16317W        W31786   8.582   9.227   2.326  0.0335  0.0949 -0.2922
16318W        W31787   7.147   5.796   3.565 -0.0333  0.0014  0.2136
16319W        W31788   0.798   9.980  14.520 -0.1205  0.2026 -0.1157
16320W        W31789   2.473  13.594  12.989 -0.0125 -0.0472  0.4038
16321W        W31790   8.316   3.437  13.355 -0.1365  0.1412  0.1110
16322W        W31791   7.965   1.606   4.777 -0.0955 -0.0134 -0.0621
16323W        W31792  15.240   1.907   0.640 -0.0268  0.1582  0.1967
16324W        W31793  16.322   4.081  12.724  0.1450  0.1234  0.0958
16325W        W31794  15.850   1.447   1.355  0.0432 -0.2785  0.1259
16326W        W31795   4.401  15.970   1.805  0.1852 -0.0061  0.2120
16327W        W31796  13.490  16.886  11.981  0.0688 -0.1376 -0.0034
16328W        W31797   7.922   5.218  12.606  0.0697 -0.0464  0.1116
16329W        W31798  10.087  16.734   4.722 -0.4902  0.1390  0.0141
16330W        W31799  18.220   8.679   2.084  0.1407  0.1260  0.0846
16331W        W31800  15.873   3.422   2.183  0.0629  0.2968 -0.1950
16332W        W31801  13.643  10.814   0.307  0.1049 -0.0338 -0.2271
16333W        W31802  13.267  12.775  12.992  0.0616 -0.1288  0.0362
16334W        W31803   0.143  10.545   0.440  0.0329 -0.0116 -0.1735
16335W        W31804  11.544  11.782   2.985 -0.2461 -0.1313 -0.0622
16336W        W31805   2.967   4.662  12.097 -0.0895 -0.0516  0.1265
16337W        W31806   0.607   3.122   1.014  0.1024  0.2662 -0.0515
16338W        W31807   4.534   5.541  14.959  0.0027 -0.2847  0.2860
16339W        W31808  14.037  12.940   1.531 -0.0140  0.0299 -0.0841
16340W        W31809   7.882  12.593  12.195 -0.1266 -0.0619 -0.0707
16341W        W31810  14.177  12.485  12.718  0.0963  0.0238  0.0207
16342W        W31811   9.632   6.483   3.570 -0.0670  0.1583 -0.2863
16343W        W31812   0.662  16.713  14.464 -0.0251  0.0930  0.0185
16344W        W31813   0.735   5.978   0.430  0.2224  0.0895 -0.3407
16345W        W31814  10.498   2.781  10.772 -0.2038  0.0478 -0.3834
16346W        W31815   5.660   5.293  15.521 -0.1367 -0.0259 -0.1494
16347W        W31816  14.272   2.373   3.964  0.0464 -0.0112  0.1796
16348W        W31817  17.893   6.922   3.134  0.3599 -0.1552  0.0224
16349W        W31818   4.782  17.286   6.058  0.0307 -0.0066  0.0642
16350W        W31819  15.923   3.006  13.172 -0.1974  0.1549 -0.4039
16351W        W31820  15.590   2.009   4.920  0.2787 -0.2046 -0.0504
16352W        W31821   2.778  15.463   6.236  0.0003 -0.0263  0.0324
16353W        W31822   5.470  14.379   3.221 -0.1587  0.0099  0.2038
16354W        W31823   9.119  16.843   2.208 -0.1549 -0.1259  0.1416
16355W        W31824   5.374   7.587   2.191 -0.2911 -0.2628  0.0735
16356W        W31825  15.765   3.297   5.436  0.1341  0.0033  0.0464
16357W        W31826   3.404  13.698   5.381 -0.1395 -0.1004 -0.0207
16358W        W31827   3.592   5.058  10.313 -0.4485 -0.1524  0.1156
16359W        W31828  10.252  14.202  11.448  0.2590 -0.1485 -0.0383
16360W        W31829   9.379  13.503  12.341  0.0156  0.2753 -0.1365
16361W        W31830   8.211   8.849  14.523  0.0628  0.0784  0.0312
16362W        W31831   7.691  14.422   3.282 -0.1383 -0.1892 -0.0832
16363W        W31832   7.091  14.914  13.285 -0.0029 -0.0581 -0.1235
16364W        W31833  12.744  16.921   4.515 -0.0780 -0.0330 -0.0098
16365W        W31834   7.601   5.867   0.428  0.0998  0.4137  0.3956
16366W        W31835   0.263   5.034   4.569 -0.1400 -0.1801  0.0867
16367W        W31836  15.145   6.993  10.964  0.3877  0.3891  0.2396
16368W        W31837  16.712  18.171   4.395  0.1730 -0.1007 -0.0249
16369W        W31838   7.612   2.692   3.426  0.0596 -0.1949  0.2056
16370W        W31839  11.396   3.246   3.240  0.2096 -0.5811 -0.0111
16371W        W31840   5.962  11.297  10.312  0.0565 -0.0842  0.1407
16372W        W31841   6.015   2.928   4.999  0.0375  0.2597 -0.0293
16373W        W31842   8.103  11.432   2.920  0.3402 -0.1138  0.1735
16374W        W31843  15.109   3.948   3.566  0.3091  0.1338 -0.1878
16375W        W31844   0.070  16.369  14.606  0.1346 -0.0166 -0.3689
16376W        W31845   7.492  14.259   4.101  0.0057  0.0417 -0.4305
16377W        W31846  16.020  11.978  14.702 -0.0981 -0.1812  0.0907
16378W        W31847   2.430  15.232  10.408  0.2693  0.0242 -0.3010
16379W        W31848  14.837   9.078   3.844  0.1976 -0.0546  0.0303
16380W        W31849   6.180  17.732   0.142 -0.2936 -0.0087 -0.0732
16381W        W31850  15.142  16.696   0.825  0.0773  0.1282 -0.2193
16382W        W31851   7.324  17.267  13.084 -0.1445 -0.2127 -0.0663
16383W        W31852  16.802   9.580  11.818  0.1631 -0.3222  0.2372
16384W        W31853  18.745   9.771   4.496 -0.1400  0.2659 -0.1572
16385W        W31854  17.754  14.598  13.757  0.0151  0.1029  0.0705
16386W        W31855  11.920   4.988   1.193 -0.2397 -0.1472  0.0397
16387W        W31856   4.576  12.201   4.948  0.2359 -0.0175  0.0461
16388W        W31857  18.192  16.146   1.982  0.1883 -0.0407  0.1509
16389W        W31858   1.903   8.280   0.237 -0.1092 -0.0169  0.1800
16390W        W31859   3.291  16.948   5.533 -0.0965 -0.2540  0.1962
16391W        W31860  12.346  13.791  14.460  0.3568  0.0349 -0.0927
16392W        W31861   0.177  18.369  15.559 -0.0038 -0.4207  0.0225
16393W        W31862  11.967  18.743  13.295 -0.0903 -0.0572 -0.3479
16394W        W31863  13.158   8.594  11.642 -0.3435  0.1364 -0.0205
16395W        W31864  16.656   6.177   0.005  0.0249 -0.0775 -0.0981
16396W        W31865   9.080  12.988  14.739 -0.2109 -0.0058 -0.1215
16397W        W31866  17.421   4.166  14.777  0.3434 -0.0926 -0.0583
16398W        W31867   2.740  11.911  15.422  0.1610 -0.1599 -0.2398
16399W        W31868   6.851   0.094   4.904 -0.3852  0.0446 -0.2185
16400W        W31869   8.137   8.648  12.193  0.1197  0.1353 -0.1449
16401W        W31870   6.479  13.532  11.030 -0.2198  0.2635 -0.2624
16402W        W31871  13.079   9.972   0.443 -0.0984  0.3305  0.4054
16403W        W31872  15.501  15.945   0.441 -0.1382  0.2068  0.0306
16404W        W31873  11.250   1.099  12.366  0.1709 -0.1514  0.2868
16405W        W31874   1.408  12.181  15.563 -0.1125  0.1789  0.0337
16406W        W31875   3.089  10.868   4.036 -0.4324 -0.0075 -0.2461
16407W        W31876   7.622   7.051   4.680  0.0615 -0.4376  0.6019
16408W        W31877   9.262   0.278  14.290  0.0848 -0.1617  0.1503
16409W        W31878  12.519   9.486   1.497  0.1483  0.0510  0.1954
16410W        W31879   5.509  13.798  11.370 -0.0848 -0.1299 -0.3550
16411W        W31880  12.021   2.837   0.726 -0.0158 -0.0251 -0.0336
16412W        W31881   8.718  15.943  14.789 -0.0552  0.0635 -0.0984
16413W        W31882  15.711   0.972   3.901 -0.1562  0.2238  0.1549
16414W        W31883   6.470  10.149  14.496 -0.0289 -0.0067  0.1944
16415W        W31884   6.812  13.323  14.105  0.0767 -0.1324 -0.0410
16416W        W31885   1.747   4.633   2.005 -0.4128  0.2370  0.2972
16417W        W31886  10.458  13.127   0.251 -0.1130  0.2418 -0.0297
16418W        W31887  17.478   9.102   2.975  0.0336 -0.2669  0.0459
16419W        W31888   6.315   9.636  13.587  0.0846  0.2003 -0.0663
16420W        W31889  15.040  10.698   0.275  0.2228  0.1270 -0.0877
16421W        W31890  14.587   5.804   2.995 -0.0829 -0.0934 -0.0118
16422W        W31891  14.372  13.347  12.930  0.0955  0.0681 -0.0840
16423W        W31892  13.749   7.757   3.747  0.1131  0.0778  0.1667
16424W        W31893  12.153  12.469  14.328 -0.1105 -0.2440  0.3203
16425W        W31894   3.861  11.830  11.221 -0.2244  0.1533  0.1000
16426W        W31895   4.681   7.596  12.054  0.1343  0.0061  0.2815
16427W        W31896  14.365   1.134   4.569 -0.0612 -0.3467  0.1896
16428W        W31897   8.326   7.532  11.748  0.3335 -0.0074  0.3325
16429W        W31898  18.189   2.146  15.291 -0.3160 -0.1920 -0.2649
16430W        W31899   8.227   0.152  11.074 -0.1489  0.1262 -0.0038
16431W        W31900   1.752   8.066   4.963 -0.0857 -0.2235  0.2047
16432W        W31901   7.683  16.953  13.319 -0.3900  0.3826  0.2229
16433W        W31902  15.706  13.027  13.666 -0.2050  0.2036 -0.0481
16434W        W31903   0.956  11.963   1.772 -0.0105  0.1445 -0.1843
16435W        W31904   7.788  16.989  12.820 -0.0004 -0.0145  0.3761
16436W        W31905  11.252   0.098  15.066 -0.3521 -0.1006  0.1017
16437W        W31906  14.715   5.904   2.475 -0.3686  0.2250  0.0700
16438W        W31907  17.385  12.662   3.078 -0.0362  0.0280  0.0346
16439W        W31908   1.606  14.392  11.691 -0.1896 -0.1894  0.1804
16440W        W31909   9.856  12.530  14.193  0.2950 -0.0321  0.0363
16441W        W31910   4.545   4.448  11.966  0.2163 -0.0203 -0.0350
16442W        W31911   1.026  16.219  12.108 -0.1815 -0.0152  0.3138
16443W        W31912  12.715   8.614   4.170  0.3441  0.0754 -0.1305
16444W        W31913   7.682  15.306  13.988  0.3376 -0.4810 -0.1177
16445W        W31914   6.609  17.174   3.408  0.1746 -0.1933  0.2190
16446W        W31915   0.861   3.257   0.628  0.0859 -0.3822  0.1581
16447W        W31916   8.104  18.706   2.152 -0.0849 -0.1825 -0.0077
16448W        W31917  15.029   9.712   0.247  0.0729  0.1914  0.0426
16449W        W31918  16.635  12.253  11.076 -0.1378 -0.2147 -0.0502
16450W        W31919  17.924   3.867  12.052  0.1395  0.0691 -0.1913
16451W        W31920   7.831  11.429  13.193  0.0528  0.1191 -0.0086
16452W        W31921   8.903   3.010  11.771  0.0852  0.0925  0.0102
16453W        W31922   0.547  10.704  13.708  0.1333  0.1733  0.2069
16454W        W31923   2.390  12.403   1.874 -0.2283 -0.2654 -0.3488
16455W        W31924   8.307   0.286   1.458  0.1129  0.1391 -0.2053
16456W        W31925   9.425   2.620  10.495 -0.2294  0.2618 -0.2144
16457W        W31926   5.432  15.303  14.853  0.0735  0.0075  0.4160
16458W        W31927  12.766   7.330   1.803  0.1366 -0.0888 -0.1212
16459W        W31928   9.124  15.257  11.188  0.0738 -0.1155 -0.3231
16460W        W31929  13.789  15.691  15.367  0.1955 -0.0581 -0.0145
16461W        W31930   2.370   6.184  10.464 -0.2310  0.0182 -0.2064
16462W        W31931  17.186   9.572  13.775 -0.1955 -0.0338 -0.1170
16463W        W31932  15.234   0.081  13.611  0.0138 -0.4338  0.0766
16464W        W31933  10.753   7.086  12.825  0.0205  0.1537  0.1777
16465W        W31934   8.673   3.707   1.576  0.0823 -0.2771  0.3327
16466W        W31935  10.129   4.642   0.559  0.0333  0.3206 -0.0672
16467W        W31936   3.414   0.718  11.996 -0.0128 -0.1066 -0.3400
16468W        W31937  17.169   4.079   2.732 -0.2776  0.0947  0.1174
16469W        W31938  15.082   1.613  14.947  0.3104  0.1890 -0.1313
16470W        W31939  18.394   4.343  11.135  0.2128  0.1440  0.2242
16471W        W31940  10.734  13.485   2.970 -0.1999  0.1348  0.1987
16472W        W31941   0.067   4.176   3.291  0.0877 -0.0255  0.1271
16473W        W31942   6.921  13.188  13.485 -0.5102 -0.1937 -0.4397
16474W        W31943  15.947  15.901   2.177  0.0730  0.0127 -0.2771
16475W        W31944  10.826   4.551  13.434  0.0859  0.0105  0.0626
16476W        W31945  17.270   2.775   2.942  0.0143 -0.3737 -0.0384
16477W        W31946   3.929   3.661  14.252 -0.1721  0.0377  0.0195
16478W        W31947   6.118   4.607   4.567  0.2539 -0.2960 -0.1979
16479W        W31948  13.755  11.106   1.440 -0.0630  0.0879 -0.0203
16480W        W31949   6.617   4.098  15.661  0.0657 -0.1071  0.0402
16481W        W31950  15.973   6.112   0.721  0.2262  0.0879 -0.0271
16482W        W31951  18.472   7.033   3.671  0.1888 -0.4409 -0.0822
16483W        W31952  10.538   2.536  10.322 -0.0345  0.1478  0.1640
16484W        W31953  18.186  15.925   4.273  0.0564 -0.1959 -0.4912
16485W        W31954   1.308   9.679   2.786  0.1065 -0.2198  0.0637
16486W        W31955   8.602  11.163  15.615  0.0094  0.2625  0.0875
16487W        W31956   4.333  11.767  11.874 -0.0585 -0.0116 -0.1080
16488W        W31957  14.011   8.748   3.459  0.0419  0.0474 -0.1223
16489W        W31958  17.487   2.509  13.402  0.2395 -0.0203 -0.1677
16490W        W31959  11.650  18.455   6.039 -0.0499 -0.2309 -0.1992
16491W        W31960  14.330  14.816  13.148  0.1474 -0.0503 -0.0222
16492W        W31961  12.286  11.718   2.157  0.1727 -0.2711  0.0996
16493W        W31962  12.176  14.354  14.235 -0.0894  0.0692  0.1150
16494W        W31963   6.721  18.695  14.452  0.0573 -0.1358  0.2792
16495W        W31964  16.594   9.396   2.195 -0.1191 -0.1405  0.0994
16496W        W31965  11.814   2.831   4.620 -0.0312 -0.0087  0.0003
16497W        W31966   6.331  10.608  12.266  0.0595  0.0882 -0.0292
16498W        W31967   0.906   0.403  11.991  0.1551  0.2242  0.1185
16499W        W31968  13.900  11.934  12.406  0.0963 -0.0451 -0.2000
16500W        W31969   1.888   7.274   1.396 -0.0556  0.0281  0.0492
16501W        W31970  14.853  16.768  11.074  0.1348 -0.0984  0.0744
16502W        W31971   5.664   2.502   3.115  0.0954 -0.1183  0.1003
16503W        W31972  11.959  14.745   1.144 -0.0717 -0.2595  0.3943
16504W        W31973   4.614  17.758  11.454 -0.0332  0.0526 -0.0415
16505W        W31974   9.560   2.895  10.880 -0.4461 -0.0057 -0.0589
16506W        W31975   0.204   6.913   0.869 -0.0152 -0.3887 -0.0904
16507W        W31976  17.868  13.609  13.580 -0.0641 -0.1631  0.0207
16508W        W31977  12.253  11.459   4.539  0.1293  0.1704 -0.2129
16509W        W31978   7.661  17.853   1.941 -0.0274 -0.1122 -0.0281
16510W        W31979   0.515  10.333  14.181 -0.2518 -0.1772 -0.1407
16511W        W31980  17.893  17.605   0.695  0.1588  0.2417  0.4449
16512W        W31981   5.754   8.665  10.964 -0.3123 -0.0136 -0.0678
16513W        W31982  12.621   9.103   4.240 -0.0153  0.0407  0.3285
16514W        W31983  15.971   4.111  11.593 -0.0611 -0.1418  0.1001
16515W        W31984   1.560  11.559  13.839  0.2208  0.3037 -0.0522
16516W        W31985  17.207  11.993   4.368  0.2018  0.1105  0.1297
16517W        W31986   8.460   2.035   0.568 -0.1038 -0.0241  0.0966
16518W        W31987  17.621  13.804  10.419  0.1709  0.0691 -0.1967
16519W        W31988  18.759   8.547   0.044  0.1298  0.0995  0.0354
16520W        W31989  11.709  15.142  11.247 -0.1975  0.1106  0.1289
16521W        W31990   2.422  12.218   0.289 -0.0028  0.0316  0.4044
16522W        W31991   3.329   9.600   0.907  0.2634  0.1179 -0.1397
16523W        W31992  15.059   9.987  14.665  0.0083  0.2597 -0.1840
16524W        W31993  10.380  14.486   2.826  0.1248 -0.0517  0.1746
16525W        W31994   6.601   6.125   1.725 -0.2711  0.0570  0.2109
16526W        W31995   1.858  12.099   1.302  0.0165  0.0823  0.2243
16527W        W31996   7.543   0.589   1.358 -0.2121  0.0780  0.1510
16528W        W31997  10.132   4.475   5.814 -0.1297  0.2226  0.1731
16529W        W31998  11.521  14.979  14.125  0.3232 -0.0165  0.0483
16530W        W31999   4.184  17.167  12.279 -0.5419 -0.1126  0.1066
16531W        W32000   7.683   7.653  11.109  0.1317  0.0954 -0.0626
16532W        W32001  10.971  10.212   2.278  0.1476 -0.1068 -0.3061
16533W        W32002   9.730  11.696  10.972 -0.1952  0.2515 -0.3146
16534W        W32003  15.399   9.007   1.685 -0.2532  0.1250 -0.0965
16535W        W32004   4.029   7.227   2.098 -0.0835  0.0861 -0.0840
16536W        W32005   9.885  11.330  13.458  0.0077 -0.0400  0.0598
16537W        W32006   4.664  15.453   3.622 -0.0081  0.2083 -0.2439
16538W        W32007   2.080   4.303   3.088  0.4177  0.1908 -0.2067
16539W        W32008  11.907   4.510   1.424  0.0709 -0.1572 -0.2983
16540W        W32009  14.524  13.001  12.631  0.1656 -0.0372  0.0836
16541W        W32010   0.176  18.572  11.805 -0.3806  0.0323  0.2678
16542W        W32011   4.223  14.569   4.940 -0.3405 -0.3175  0.0990
16543W        W32012   8.213   5.955  13.836  0.0794  0.1241 -0.2215
16544W        W32013  18.538  11.658  14.236 -0.2549  0.4287  0.0597
16545W        W32014  14.803  16.575  15.233 -0.1488 -0.3746 -0.0842
16546W        W32015  12.379  11.841  15.201 -0.1515 -0.2358  0.3137
16547W        W32016  11.024  11.610  12.741 -0.1308  0.3295  0.1554
16548W        W32017  18.543  10.083   6.153 -0.0346  0.1994  0.0115
16549W        W32018  16.582  14.798  14.258  0.2507  0.3200 -0.1763
16550W        W32019   1.050   6.159  10.106  0.0892 -0.0240 -0.1343
16551W        W32020   8.202  18.516   3.167  0.0734  0.1086  0.0129
16552W        W32021   6.176   8.586   1.439 -0.0041 -0.1237 -0.0153
16553W        W32022  15.516  16.764   0.418  0.0242 -0.1982 -0.2579
16554W        W32023   5.310   9.361  10.365 -0.1629 -0.1977 -0.0353
16555W        W32024   1.174  17.490   0.437  0.0746  0.2503  0.2292
16556W        W32025   6.250   6.379   1.267 -0.0152 -0.3310  0.1434
16557W        W32026   4.691   8.980  12.657 -0.1320 -0.0648 -0.0516
16558W        W32027  14.720   6.647   2.960 -0.2369  0.0786  0.0569
16559W        W32028  11.539  15.584   9.868 -0.1299 -0.0242  0.0319
16560W        W32029   8.196   0.233  11.903  0.4895  0.2505 -0.0957
16561W        W32030   8.612  18.089   5.283  0.2995  0.3075 -0.2046
16562W        W32031  15.077   7.453   2.528  0.0905  0.2106  0.2838
16563W        W32032   8.088   5.755  10.727  0.0483 -0.3126  0.2032
16564W        W32033  11.598   0.284  12.949 -0.0258  0.4654  0.1030
16565W        W32034   7.900  10.645  12.741  0.0613 -0.3230  0.0235
16566W        W32035   3.028   2.569  13.625  0.1789  0.1080  0.0155
16567W        W32036  14.498   1.875   5.924  0.2494 -0.0001 -0.1001
16568W        W32037  13.942   9.210   3.947  0.0709  0.2088  0.1492
16569W        W32038  17.908  16.123  10.969 -0.2146  0.0090 -0.0513
16570W        W32039  13.387  17.167   1.716  0.1543 -0.0394  0.4551
16571W        W32040  15.058   3.488   1.644 -0.1527 -0.1607  0.1413
16572W        W32041   3.331   6.699   3.845 -0.0101 -0.1999  0.0091
16573W        W32042  17.836  12.456  14.937  0.0063  0.3852  0.1450
16574W        W32043   8.870  15.631  13.539 -0.2250 -0.0433 -0.1078
16575W        W32044  15.761   5.614   1.057 -0.1121 -0.3016 -0.0190
16576W        W32045   1.550   5.841   4.889  0.0612  0.0976 -0.4397
16577W        W32046  10.841  14.157   4.796  0.1855 -0.2677 -0.0329
16578W        W32047  11.523   4.658  12.472  0.0451 -0.0306 -0.2513
16579W        W32048  18.452  15.987   0.412  0.2509  0.2843  0.2248
16580W        W32049  14.626   0.291  10.841  0.0391  0.0318 -0.2240
16581W        W32050  16.072  10.712   5.063 -0.0053  0.2274 -0.1130
16582W        W32051   8.020   8.280  10.251  0.1008  0.1236  0.2877
16583W        W32052   9.081   3.512  11.664 -0.3022 -0.0921 -0.0985
16584W        W32053   9.450   5.762  11.503 -0.1954 -0.0344  0.1791
16585W        W32054   6.768   3.913  14.669  0.0200  0.0236  0.1953
16586W        W32055   6.771  12.374  12.874  0.1113  0.0341 -0.1350
16587W        W32056   8.361   6.154   3.869  0.0241 -0.1938  0.1607
16588W        W32057   7.395   1.342  13.365  0.1710  0.0293 -0.1264
16589W        W32058   7.891   3.794  12.504 -0.0757 -0.0272 -0.3036
16590W        W32059   9.187   1.628   4.733  0.4605 -0.2374  0.0461
16591W        W32060   1.106  14.411  11.562 -0.0994  0.0283 -0.1245
16592W        W32061  15.386   8.477  11.332  0.0839  0.0113  0.0417
16593W        W32062  17.602  18.033   1.359  0.0088  0.2536  0.1637
16594W        W32063   4.001  13.966   1.062 -0.0295 -0.3490 -0.1131
16595W        W32064   7.708   9.415   4.560 -0.3014  0.1895  0.0858
16596W        W32065   6.443  13.527   1.731 -0.0009  0.2361  0.1087
16597W        W32066  11.991   9.087  11.190  0.0540 -0.0511  0.1887
16598W        W32067   0.660   8.182   1.294  0.0644  0.1449  0.1336
16599W        W32068   8.336  16.839  14.963  0.1516 -0.0281  0.1595
16600W        W32069  11.305   1.301  11.273 -0.1351  0.2590 -0.1854
16601W        W32070  14.498   6.579  12.821 -0.1255 -0.0149 -0.0253
16602W        W32071   1.378  15.131   5.420 -0.1970  0.1009 -0.2333
16603W        W32072   7.842   1.102  11.274  0.0500 -0.1384 -0.2157
16604W        W32073   4.459  10.788   1.893  0.1041  0.0124  0.0964
16605W        W32074   7.299   8.447  11.935  0.2940 -0.2238 -0.3543
16606W        W32075  17.671   6.176  14.740 -0.0648 -0.1569  0.0660
16607W        W32076  12.863   0.516  13.434 -0.0574 -0.0561 -0.0651
16608W        W32077   3.163  16.268   2.189 -0.3320  0.0532 -0.2915
16609W        W32078   5.496   7.002   4.792  0.0151  0.2281  0.3561
16610W        W32079  13.877  17.205   4.072  0.1749  0.0503 -0.0337
16611W        W32080  13.303  18.099  12.734 -0.1436  0.0317  0.1889
16612W        W32081  18.568  16.565   1.631  0.1750 -0.2660  0.0805
16613W        W32082  18.264  10.934  11.170  0.0924  0.0482  0.0126
16614W        W32083   1.674  14.888   3.608  0.0198  0.0179  0.0407
16615W        W32084  10.314  16.918   0.353 -0.1937 -0.2772  0.0448
16616W        W32085  10.567   6.993   0.470 -0.1746 -0.0181  0.2348
16617W        W32086  18.002  11.822   3.284 -0.1632  0.4310 -0.0553
16618W        W32087  16.890   3.767  14.592  0.0038 -0.0363  0.2111
16619W        W32088   6.406   2.434   0.362 -0.3246 -0.4291  0.0247
16620W        W32089  10.963  13.972  12.903 -0.0182 -0.3450  0.1312
16621W        W32090  17.696  12.765  13.543 -0.0705 -0.1199  0.0594
16622W        W32091   1.979  13.881   1.506 -0.1273 -0.0412  0.0624
16623W        W32092   7.749   4.976  11.770 -0.0173  0.2813  0.3309
16624W        W32093  11.822   5.173   3.351 -0.1421  0.1458  0.0521
16625W        W32094   8.255  11.936  13.266 -0.0296 -0.0991 -0.1822
16626W        W32095   1.880   2.571  14.301 -0.1553 -0.0801  0.0683
16627W        W32096   8.782  16.943   1.556  0.0798  0.0846  0.2728
16628W        W32097   6.025  17.387   5.003  0.1802  0.0490 -0.2534
16629W        W32098  16.492   0.637   5.012 -0.1404 -0.1945  0.2010
16630W        W32099   7.146   4.515   3.962 -0.0082  0.0573 -0.2595
16631W        W32100   3.940   0.128  10.787 -0.1308 -0.1637  0.0117
16632W        W32101  14.184   2.482  15.140 -0.3450  0.2782 -0.0670
16633W        W32102  13.001  15.777  13.301  0.1129 -0.0175 -0.2134
16634W        W32103   0.399   9.302   3.229  0.2006 -0.3108 -0.1102
16635W        W32104  12.535   0.116   1.611 -0.1388 -0.0114 -0.1840
16636W        W32105   1.701   3.485   3.663  0.1152 -0.1868  0.1007
16637W        W32106  18.307  14.883  10.899 -0.1888 -0.1173 -0.1673
16638W        W32107   8.178  16.462   0.563 -0.1930  0.0329  0.1921
16639W        W32108   2.008   7.856  13.402 -0.1994 -0.4257  0.5566
16640W        W32109   1.015   5.881  11.245 -0.1823  0.0737 -0.1664
16641W        W32110   5.558  15.190   4.757  0.0499 -0.0322 -0.0151
16642W        W32111   0.781   1.334   3.807 -0.1041  0.1893  0.2809
16643W        W32112   5.736  18.346   0.712  0.3657  0.1236  0.2150
16644W        W32113  15.794  12.919  15.167  0.0011 -0.0592 -0.0752
16645W        W32114   7.289   8.459   4.224 -0.0449  0.2195  0.0635
16646W        W32115  11.005   7.423  11.346  0.1975  0.3530 -0.1875
16647W        W32116   2.737  17.974  14.855  0.1629 -0.0555  0.0021
16648W        W32117   5.557   6.245  13.340 -0.1072  0.1454  0.2929
16649W        W32118   9.071  15.685  10.166 -0.0159 -0.3005 -0.0543
16650W        W32119  15.607   6.804   2.764  0.1159 -0.1081  0.0048
16651W        W32120   0.332  13.574  12.976 -0.2719 -0.0936  0.0776
16652W        W32121   0.392  15.413  14.533  0.1171  0.1114 -0.1146
16653W        W32122  10.143   1.631   4.184  0.0473  0.3598 -0.3553
16654W        W32123   0.151  17.868  15.464  0.0431  0.1418 -0.2055
16655W        W32124   9.668  11.437  15.364 -0.0596 -0.0197 -0.0794
16656W        W32125   2.593   5.769   2.760  0.2508 -0.5732  0.0562
16657W        W32126   8.919  10.880  11.581  0.0207  0.0243  0.2339
16658W        W32127  15.714  10.687   4.362  0.0954 -0.0834  0.0547
16659W        W32128  14.928   3.123   5.950  0.1763  0.0954 -0.1117
16660W        W32129   7.383  11.762  11.211  0.0895 -0.1438  0.1236
16661W        W32130  17.444   5.146   1.575 -0.0299 -0.2500 -0.0266
16662W        W32131   4.922  11.600  14.808 -0.0223 -0.2534  0.2985
16663W        W32132  17.148   7.441  12.892  0.0637 -0.1745 -0.1168
16664W        W32133   2.929  11.830   5.274  0.0891  0.1094 -0.2053
16665W        W32134  13.500   4.982  11.269  0.0141  0.0152 -0.2792
16666W        W32135  15.830   9.604  12.418 -0.0469 -0.1526  0.0754
16667W        W32136  12.978  11.522   3.871  0.1026  0.3603  0.0881
16668W        W32137   8.061  17.267   3.584 -0.1007  0.1366  0.1482
16669W        W32138   1.235   5.407  13.239 -0.1792 -0.0008 -0.3105
16670W        W32139  16.263   7.027   3.637  0.0407 -0.2511  0.2154
16671W        W32140   8.668   2.050   2.504 -0.0484  0.1786  0.0392
16672W        W32141  13.310   2.649  14.205 -0.0905 -0.3216 -0.2658
16673W        W32142   3.353   6.419  11.475  0.2375  0.1409 -0.4624
16674W        W32143   1.316   2.820  11.667  0.1703  0.0483  0.1885
16675W        W32144  18.455   1.049   0.725 -0.1259 -0.0677 -0.5032
16676W        W32145   8.598  12.568   0.178 -0.0320  0.0734 -0.0968
16677W        W32146  13.609   5.789  15.476 -0.0244  0.0536  0.1551
16678W        W32147   7.240   8.573  12.430 -0.1520  0.0041  0.0213
16679W        W32148   6.862  13.365   5.551  0.0320 -0.0821 -0.0000
16680W        W32149   1.140   7.967   0.800  0.0192  0.1344 -0.2179
16681W        W32150   6.801   9.861   3.051  0.1188 -0.1434 -0.2047
16682W        W32151   8.149  11.027  13.902 -0.0859 -0.0370  0.2618
16683W        W32152  10.246   0.210   1.057 -0.2744 -0.0338 -0.0995
16684W        W32153   2.502  15.599   2.564  0.1276 -0.0630 -0.0884
16685W        W32154   9.335  17.803  10.292 -0.3098 -0.1241 -0.0740
16686W        W32155   4.711  15.630  14.091 -0.2402  0.1070  0.0890
16687W        W32156  16.211   3.086   5.476 -0.1405 -0.0472 -0.2858
16688W        W32157   4.657  10.440  11.019 -0.1668 -0.0047  0.0300
16689W        W32158   7.433   3.797   1.761  0.3617  0.0296  0.0442
16690W        W32159   0.245   0.956  13.840  0.0070  0.0627  0.1359
16691W        W32160   1.931  17.764   1.160  0.0923 -0.0800  0.1354
16692W        W32161   3.589   8.443   1.013 -0.1350 -0.0404 -0.1588
16693W        W32162   1.121   6.584   4.198  0.2990  0.1239  0.1666
16694W        W32163   7.735  10.632   4.658  0.1094 -0.1646  0.3705
16695W        W32164  14.177   1.691  12.609 -0.1183 -0.0400  0.3077
16696W        W32165   9.493   2.027   3.134  0.2584 -0.2692 -0.4137
16697W        W32166   0.414   1.000   3.755  0.2036 -0.1468  0.2036
16698W        W32167   8.069   7.049  11.780 -0.2148 -0.1258 -0.0677
16699W        W32168   5.570  10.668   2.820 -0.1121 -0.0773 -0.1376
16700W        W32169   9.140   4.151   0.165 -0.1428 -0.1000  0.1662
16701W        W32170  11.292   4.016   2.846 -0.0780 -0.0266  0.1293
16702W        W32171   4.162  15.592   3.431  0.1543 -0.1992 -0.0316
16703W        W32172  12.829  12.677  15.355 -0.1540  0.0687  0.2125
16704W        W32173  12.581  13.334   5.580  0.4712  0.1862 -0.2718
16705W        W32174  11.232  15.458   3.886 -0.1144 -0.1291 -0.3481
16706W        W32175   0.145  15.432  14.040  0.2815  0.4452  0.2176
16707W        W32176  10.853  10.200   3.389  0.1763  0.0541  0.3428
16708W        W32177  13.929  17.003  13.658  0.1365 -0.3590 -0.2529
16709W        W32178   1.781  14.662   4.078  0.0933  0.3116  0.2127
16710W        W32179   7.711  16.899   5.327 -0.2193 -0.0563 -0.0739
16711W        W32180  12.674   1.623  13.680  0.0865  0.0850  0.0320
16712W        W32181  15.439   7.344  15.603 -0.1708  0.1683  0.1548
16713W        W32182  12.215   8.355   4.570  0.3308 -0.3122  0.4430
16714W        W32183   4.825   6.515   0.796  0.0027 -0.0262  0.0936
16715W        W32184   4.873   4.062   3.488 -0.1368 -0.0799 -0.3696
16716W        W32185  13.952  15.802  13.130 -0.1416  0.0009 -0.0843
16717W        W32186  15.409   8.026   2.921  0.3151  0.4290  0.1608
16718W        W32187   0.684   2.060   2.752  0.3169 -0.0274  0.1822
16719W        W32188  15.416  13.093   4.975 -0.1175 -0.1689  0.0494
16720W        W32189   8.397  17.682   3.262  0.0417 -0.1843  0.1010
16721W        W32190  18.704  17.642   1.027  0.0150  0.1647 -0.0775
16722W        W32191   4.991  18.327  14.398  0.2938  0.1072 -0.0541
16723W        W32192   6.550  17.084  12.669 -0.1691 -0.2410  0.3192
16724W        W32193   2.958   4.589  12.609  0.0446 -0.3367  0.0731
16725W        W32194   2.057   1.078   2.474  0.1099  0.1116 -0.2145
16726W        W32195   8.610  12.921   4.848 -0.0999 -0.0592  0.1603
16727W        W32196   6.630   2.578   1.452 -0.2293  0.0298  0.1563
16728W        W32197   2.856   8.862   4.252  0.0465  0.0579 -0.0065
16729W        W32198   2.721  11.900  14.563  0.0763  0.1161  0.2901
16730W        W32199   0.448   1.777   1.733  0.0393 -0.1650 -0.0665
16731W        W32200  13.693  18.191   1.422 -0.0806 -0.1191 -0.1951
16732W        W32201  18.059  15.801  11.685  0.1650 -0.2701  0.0884
16733W        W32202   7.336  17.846   2.319 -0.1523  0.0887  0.2340
16734W        W32203  10.574   4.907   4.625 -0.1416 -0.2085 -0.3089
16735W        W32204  13.523   8.770  14.743 -0.3866  0.3551  0.4736
16736W        W32205  16.330   7.506  15.240 -0.0686  0.0330 -0.1359
16737W        W32206  15.632   8.738  14.846  0.6384 -0.1230 -0.1594
16738W        W32207  11.036   0.215  10.199 -0.1275 -0.0597  0.0214
16739W        W32208  14.567   9.168  14.226  0.1119  0.0456 -0.0340
16740W        W32209  16.727   0.709  11.020  0.2201  0.3380 -0.2881
16741W        W32210   4.919  12.601  14.715 -0.1407  0.0069  0.0266
16742W        W32211  16.001   4.754   4.494 -0.1309 -0.1620 -0.0256
16743W        W32212  17.541  12.101   3.205 -0.2156 -0.2404 -0.0304
16744W        W32213  18.298  18.538   0.869  0.0002 -0.0663 -0.0040
16745W        W32214   0.013  13.909   5.219  0.1314  0.0271 -0.0407
16746W        W32215   1.753  13.985   5.288  0.1851 -0.1897 -0.1190
16747W        W32216   5.836  13.608   1.064 -0.0335 -0.0765 -0.1395
16748W        W32217  17.349   4.841  14.016 -0.1987  0.1989  0.0407
16749W        W32218  10.980   5.827  12.723  0.0572  0.0894 -0.0795
16750W        W32219   9.993  12.895  11.412  0.0256  0.0323  0.1840
16751W        W32220   1.959  17.929  12.602  0.0693 -0.4710  0.4187
16752W        W32221   2.538   7.704   4.566  0.0601  0.1505 -0.1982
16753W        W32222  17.100  11.804  12.366  0.0155 -0.1461  0.0872
16754W        W32223  10.024   0.529  10.180 -0.0589 -0.1509 -0.2635
16755W        W32224  17.707   2.239  12.596 -0.1804 -0.4927  0.2477
16756W        W32225   3.197   7.028   4.249 -0.0468  0.0871 -0.1733
16757W        W32226   9.248  15.200   2.325 -0.0921  0.2267  0.1041
16758W        W32227  17.607   2.057   3.554  0.0490  0.1376  0.1522
16759W        W32228   4.684  11.307   2.199  0.1776 -0.1797 -0.3140
16760W        W32229  17.831   7.023  12.515  0.3418 -0.3427  0.1777
16761W        W32230  11.324   2.051  12.664 -0.3365  0.1868 -0.0013
16762W        W32231   0.597   8.152  12.050  0.3698 -0.1048  0.0012
16763W        W32232  17.816  11.750   0.855  0.1341  0.0955 -0.0815
16764W        W32233   5.114   1.274  13.484  0.0044 -0.0797  0.1989
16765W        W32234  10.282  10.381   4.452  0.3372 -0.0152 -0.1344
16766W        W32235  11.761  10.292   3.072 -0.1389 -0.0676 -0.2156
16767W        W32236  12.282  15.889   4.310  0.3232  0.1557  0.0966
16768W        W32237  12.137  10.931  15.052  0.1791 -0.1979 -0.0610
16769W        W32238  13.797   3.470   1.640 -0.1419  0.1986 -0.2621
16770W        W32239   9.945   3.144   2.269  0.1190  0.2611 -0.2458
16771W        W32240   7.662   8.178  11.653 -0.1171 -0.2237 -0.1534
16772W        W32241   6.653  14.854  14.910 -0.3039 -0.3314 -0.2689
16773W        W32242   5.631  16.870   2.335  0.0526  0.4100  0.3373
16774W        W32243  13.164  15.123   0.780  0.1004  0.1799  0.2883
16775W        W32244  17.916   0.478  11.603 -0.0201  0.1202 -0.0043
16776W        W32245   9.513   6.613  12.128  0.1023  0.0066 -0.0669
16777W        W32246   7.300  11.042   1.127 -0.1483  0.3500 -0.0137
16778W        W32247  16.322  14.158   3.799  0.0030 -0.1495  0.1115
16779W        W32248   0.169   5.777  11.413 -0.3025  0.0796  0.1469
16780W        W32249  18.233  10.946  11.990 -0.2825  0.0574 -0.0516
16781W        W32250   3.677   4.544  15.185 -0.0751 -0.1849  0.1237
16782W        W32251  13.213  13.398   4.838 -0.1589 -0.0629  0.1112
16783W        W32252   6.918  13.572  11.234 -0.0268  0.1570 -0.0159
16784W        W32253   6.071   3.438  13.522 -0.0283 -0.2396 -0.0912
16785W        W32254   8.744  16.764  12.930 -0.3115 -0.1409 -0.0163
16786W        W32255  10.702   3.550   5.220  0.2599  0.0252  0.1096
16787W        W32256   2.416   3.235   4.538  0.0007 -0.2363  0.0255
16788W        W32257   4.657  16.133  12.889 -0.1713  0.0804  0.0297
16789W        W32258   7.491  18.224   0.467  0.0198  0.2487  0.1092
16790W        W32259   5.471  15.378   3.013  0.0262  0.0791  0.2792
16791W        W32260  13.945  14.152   3.355  0.0785 -0.1003  0.1868
16792W        W32261   6.792  13.555   1.341  0.1949  0.2363 -0.1172
16793W        W32262  17.031  12.760  10.820 -0.1163  0.2324 -0.3781
16794W        W32263   7.287   3.443  13.539 -0.0919  0.3756  0.2183
16795W        W32264   2.517   8.701  14.896 -0.0725 -0.2273 -0.0780
16796W        W32265  15.510  17.619  12.703  0.0220  0.0830  0.2933
16797W        W32266   1.221  10.915   1.094  0.2069 -0.1700 -0.1936
16798W        W32267   8.573  12.544   2.944  0.0603  0.1106 -0.2788
16799W        W32268   8.897  11.480  11.017 -0.3532  0.1901  0.1927
16800W        W32269   2.232   3.788  15.396  0.1598 -0.0086  0.0234
16801W        W32270   5.604  16.262   2.234  0.0128 -0.0040 -0.1209
16802W        W32271   3.135  10.184   1.881  0.2674 -0.0240 -0.1969
16803W        W32272   3.475   8.135   2.926  0.1915 -0.0537 -0.1984
16804W        W32273  17.582   9.621  10.710  0.2801 -0.0749 -0.1833
16805W        W32274  12.758   4.732  12.801  0.0441  0.3083  0.0165
16806W        W32275   5.546  10.096  15.201 -0.1484 -0.1601 -0.1786
16807W        W32276  12.967   5.235   2.010  0.1172  0.1112  0.0475
16808W        W32277  14.513  14.643   1.631  0.2160 -0.1823  0.2546
16809W        W32278  14.624   0.814  11.982  0.3019  0.3070 -0.0614
16810W        W32279   9.700  13.379  13.107  0.2711 -0.0578  0.2501
16811W        W32280  14.668  17.316   4.620 -0.1037 -0.1308 -0.0064
16812W        W32281   9.897  17.286  15.248 -0.1879 -0.2118 -0.2918
16813W        W32282  16.003  17.622  12.055  0.5149 -0.0002  0.0965
16814W        W32283   9.230   2.002   1.266  0.0561  0.2068 -0.2589
16815W        W32284  16.481  17.177   0.129  0.2355  0.1955  0.2353
16816W        W32285  15.874   3.438  15.602 -0.0879  0.1108 -0.0958
16817W        W32286   1.617   2.756   0.522  0.1300 -0.4318 -0.1462
16818W        W32287   0.093   7.440   2.920  0.1981  0.1717 -0.0274
16819W        W32288  11.600   5.679   0.013  0.1416  0.3798  0.1189
16820W        W32289   3.377   3.127   1.178  0.0638  0.0035 -0.1293
16821W        W32290   0.069  15.484   2.113  0.0843  0.4476  0.0026
16822W        W32291   4.047  18.433  14.612 -0.0733 -0.3405  0.2226
16823W        W32292  15.553   0.304  12.809 -0.0978 -0.0704  0.1128
16824W        W32293   4.638   0.243   1.884  0.0586 -0.2073  0.3694
16825W        W32294  12.827   3.731   4.986  0.0271  0.2441 -0.2012
16826W        W32295   4.183  15.146   1.437 -0.1966 -0.0650  0.0056
16827W        W32296   5.969   3.539  14.601 -0.0343  0.0327  0.0719
16828W        W32297  17.796   7.336   2.842 -0.1790 -0.3569  0.2597
16829W        W32298   9.464   5.668   3.838  0.0596  0.2864  0.1492
16830W        W32299  17.492  12.438  15.269  0.3634 -0.2085 -0.2260
16831W        W32300   6.804   6.228   4.453 -0.1456  0.0039  0.1962
16832W        W32301  18.684   4.390  15.142  0.2920 -0.2871 -0.3093
16833W        W32302   0.083   1.322  14.525  0.2508 -0.1750 -0.0179
16834W        W32303   8.075   0.447   4.263  0.2757  0.1746  0.2165
16835W        W32304   4.328   3.032   1.515  0.1105  0.0682 -0.1073
16836W        W32305  11.275   6.916   0.876 -0.1880 -0.2504  0.1310
16837W        W32306  14.242   7.617   0.041 -0.0952 -0.0641  0.2211
16838W        W32307   7.512  14.435   0.911 -0.1873 -0.1476 -0.3930
16839W        W32308   0.851  16.787   3.165  0.2306 -0.0523 -0.2068
16840W        W32309   0.132   8.799  12.372  0.2639  0.0822 -0.2407
16841W        W32310  16.577   6.791   4.383  0.1446  0.1326  0.2815
16842W        W32311   4.934   3.009   2.515 -0.1657  0.1295 -0.1158
16843W        W32312   1.478  10.747   5.915  0.1326 -0.1054 -0.1336
16844W        W32313   5.375   6.144  14.549 -0.0299  0.3505 -0.1447
16845W        W32314  15.365   5.404   4.073  0.1603  0.0706  0.1679
16846W        W32315  17.278   3.213  13.815 -0.2052 -0.3748 -0.0160
16847W        W32316   6.105  11.825   2.238  0.0931  0.0796 -0.1478
16848W        W32317  15.554   7.492   4.107  0.1797 -0.0430 -0.1257
16849W        W32318  17.013  15.324  14.564  0.1833  0.0166  0.1794
16850W        W32319  11.260   0.706   9.158  0.1122  0.0519  0.1292
16851W        W32320  18.680   2.143  14.009 -0.1581 -0.0356  0.0860
16852W        W32321   6.708   7.921  10.390  0.0499  0.0332 -0.1499
16853W        W32322   8.165   1.795  13.335  0.0129  0.1423 -0.1040
16854W        W32323  18.485  14.945   3.089 -0.3808 -0.2005 -0.2647
16855W        W32324   9.734  13.442   2.020 -0.0419  0.0946  0.0673
16856W        W32325   1.437  13.216   2.773  0.0608 -0.1347 -0.1372
16857W        W32326  18.358   1.291   4.162 -0.0458  0.1554  0.2027
16858W        W32327  15.542   4.786   0.896  0.2279  0.5042 -0.3117
16859W        W32328  17.504  10.687   3.232 -0.1878 -0.0647  0.0741
16860W        W32329  15.617  18.491   0.557 -0.0941 -0.2561  0.0903
16861W        W32330   0.810   1.413  13.422  0.2929 -0.3430 -0.5237
16862W        W32331   4.314  15.588  13.124  0.2535  0.0343 -0.1087
16863W        W32332  17.555  12.113  15.624 -0.1495  0.0382  0.1677
16864W        W32333  16.400   4.954  11.867 -0.0355 -0.0916  0.0455
16865W        W32334  11.037  10.467   5.735 -0.1537 -0.1152 -0.0887
16866W        W32335   1.856   1.589  11.443  0.0150  0.0139 -0.0804
16867W        W32336  15.714  13.966  14.033 -0.0229  0.0596 -0.1381
16868W        W32337  13.328  12.892   5.028 -0.1280  0.0978 -0.0507
16869W        W32338   4.710   1.131   1.950  0.3329 -0.0988 -0.2065
16870W        W32339  12.696  12.070  12.188 -0.2233  0.0883 -0.0729
16871W        W32340  13.352   3.569   1.536  0.1231 -0.1296  0.2610
16872W        W32341  16.211  11.971  11.816 -0.0902  0.0086 -0.1496
16873W        W32342   1.651   2.201   1.892  0.3867 -0.0684 -0.2251
16874W        W32343  14.633  18.530   1.701  0.0073 -0.2478  0.0230
16875W        W32344   2.065   8.167   5.381  0.0983 -0.0922 -0.0871
16876W        W32345  10.354   1.627  14.262  0.0824  0.1528  0.0931
16877W        W32346   6.238  13.663  10.117  0.1129 -0.0862 -0.2633
16878W        W32347   2.651   1.795  14.740  0.3427 -0.0231 -0.2283
16879W        W32348   6.760  13.044   0.598  0.2136 -0.2354  0.2688
16880W        W32349  18.088   5.884  13.623 -0.0099 -0.0445 -0.0742
16881W        W32350   4.776   8.356  11.298 -0.0405 -0.0683 -0.0457
16882W        W32351   1.216  18.764   1.633  0.0290  0.1962  0.0135
16883W        W32352  17.410  15.558   4.464  0.0701 -0.2466  0.2564
16884W        W32353   1.166   5.274   1.123  0.0046 -0.3128  0.2715
16885W        W32354  13.451  11.325  14.464  0.0658 -0.2305 -0.2349
16886W        W32355   6.992   1.716  12.956 -0.0951  0.1134  0.0915
16887W        W32356   8.187  17.220   4.080 -0.0285  0.1194 -0.0857
16888W        W32357  10.749   9.908  10.168  0.1858  0.1481 -0.1604
16889W        W32358   6.286   8.347  12.163  0.2033 -0.0357  0.0976
16890W        W32359  14.522  12.771   1.563  0.0953 -0.1459  0.1765
16891W        W32360  11.636  11.186  14.109  0.2177 -0.2739  0.0748
16892W        W32361   8.223  11.138  13.387 -0.0987 -0.3509 -0.0273
16893W        W32362  15.040  17.386   2.436  0.0175 -0.4266 -0.1314
16894W        W32363  17.736   8.495   4.642 -0.0315  0.2377  0.0727
16895W        W32364  14.016   0.178   4.782 -0.1624  0.1196 -0.2474
16896W        W32365   9.859   2.375   0.566  0.1243  0.2705 -0.0492
16897W        W32366   6.468   7.947   9.105 -0.1770  0.0205  0.0077
16898W        W32367  12.495  11.473   2.578 -0.1038  0.0234 -0.0202
16899W        W32368   3.055   7.459  15.421  0.1848  0.3328  0.2348
16900W        W32369  16.830  11.463   5.646  0.0117  0.0630  0.0493
16901W        W32370  10.533   6.949  10.347 -0.1050  0.0313  0.3284
16902W        W32371  15.735   3.346   4.801 -0.0848  0.1586  0.0128
16903W        W32372   0.175  16.850   5.845  0.1313  0.2503 -0.1012
16904W        W32373   7.934   1.351   3.527 -0.0975  0.1904 -0.0186
16905W        W32374  17.044   6.416   2.104 -0.1088  0.0195 -0.0910
16906W        W32375   3.259   9.333  10.700 -0.1337  0.0288 -0.1085
16907W        W32376   4.262   9.296  13.878  0.1839  0.1316  0.1194
16908W        W32377   8.321  17.888   0.708 -0.3998  0.2401  0.0938
16909W        W32378  12.572   0.657  10.372  0.0718 -0.0711  0.0892
16910W        W32379  13.756  11.540  12.762 -0.0750  0.3369  0.0204
16911W        W32380  13.913  11.037   2.087 -0.0195 -0.2027 -0.4434
16912W        W32381   0.637  10.747  14.687 -0.1016  0.0447 -0.4468
16913W        W32382   2.106  12.222   0.801  0.0152  0.0663 -0.0277
16914W        W32383   7.838  13.219   4.525  0.2150  0.1041  0.1865
16915W        W32384  11.677   8.260   2.649  0.4108  0.1924  0.0433
16916W        W32385  16.394  17.302  15.221 -0.2399  0.0440  0.3242
16917W        W32386  14.636  11.007   2.901  0.1184 -0.1074  0.3456
16918W        W32387  14.619  15.470   2.271 -0.1400  0.0069 -0.2386
16919W        W32388   2.060   3.414   1.313  0.1870  0.0248  0.0245
16920W        W32389   4.432   2.104  14.376 -0.0306  0.2979 -0.1870
16921W        W32390  17.611   2.200  15.280 -0.2787 -0.1335 -0.3813
16922W        W32391  10.027   3.618   1.889  0.3638  0.2007 -0.2622
16923W        W32392  17.807  17.135  11.955  0.2067  0.0383  0.1100
16924W        W32393  18.377  18.504   4.713 -0.0497  0.0458  0.0237
16925W        W32394  11.580   8.994  12.164  0.1368 -0.0314 -0.2627
16926W        W32395  13.167  15.913   1.332  0.4040  0.1014  0.2237
16927W        W32396   9.819   0.774   3.069 -0.1784 -0.3462 -0.2656
16928W        W32397  14.747  17.406   9.521 -0.0898  0.0294 -0.0342
16929W        W32398   0.549   3.738  13.806  0.1539  0.0135  0.3005
16930W        W32399   3.159  16.778   2.408  0.2559  0.1129  0.1518
16931W        W32400   5.640  18.317  11.709 -0.2974  0.0093  0.2190
16932W        W32401   7.239   1.920  13.370 -0.0897  0.1091  0.2875
16933W        W32402   4.417  13.243  13.906  0.0998 -0.0755  0.2153
16934W        W32403   7.405   6.036   1.529 -0.3515  0.0365 -0.2099
16935W        W32404   8.891  10.449  14.421 -0.1925 -0.1059 -0.0728
16936W        W32405   4.140   1.422   0.811 -0.0991 -0.1088  0.1735
16937W        W32406  11.833  11.076  12.808  0.3961  0.0324 -0.0360
16938W        W32407  12.760   8.157  13.180  0.4001  0.2797  0.5222
16939W        W32408   2.981   1.285   5.026 -0.1375 -0.0311 -0.1615
16940W        W32409  12.930  15.412   2.133 -0.2855  0.3552 -0.2820
16941W        W32410   0.993   2.994  14.458  0.2658 -0.0864 -0.3635
16942W        W32411  17.512  15.857   4.952 -0.0454 -0.0421  0.0629
16943W        W32412  10.297  10.507   4.933  0.2021 -0.2443 -0.1525
16944W        W32413   2.727  11.121   5.123  0.0727 -0.1842  0.0876
16945W        W32414  18.309   3.352   2.276 -0.1539 -0.4502  0.2046
16946W        W32415   6.353  18.167  13.011  0.2253  0.1580  0.1294
16947W        W32416  13.529   2.349   1.866  0.0426 -0.3144 -0.1170
16948W        W32417   0.751  13.704   0.808 -0.0543  0.0202  0.2006
16949W        W32418   5.335  14.671   1.919 -0.0112 -0.2412  0.0118
16950W        W32419  15.461  17.627   2.141  0.3245 -0.2003  0.3038
16951W        W32420  10.500  12.087  11.921 -0.1328  0.3571 -0.1959
16952W        W32421   6.290  15.363  14.795 -0.1054  0.0697  0.0326
16953W        W32422  17.825   8.160  12.306  0.1826  0.0974  0.0579
16954W        W32423   0.825  14.728   4.177  0.3747 -0.0803 -0.1441
16955W        W32424  18.593   0.559  15.315  0.2617  0.0665 -0.0195
16956W        W32425   4.021   3.171   1.875  0.1972  0.3158 -0.0991
16957W        W32426   3.630  18.562  14.990  0.1308 -0.1307  0.1335
16958W        W32427  17.627   4.610  15.529 -0.1123 -0.2151 -0.1165
16959W        W32428  15.263  12.825  13.423 -0.3038 -0.3854 -0.1736
16960W        W32429  17.510   0.894   4.260  0.1017  0.3343 -0.0699
16961W        W32430   4.185  18.318  15.592 -0.1781 -0.0290 -0.0423
16962W        W32431   6.713  18.069  13.442  0.0375  0.1325 -0.1878
16963W        W32432   2.556   8.651  13.701 -0.0236 -0.0181 -0.0284
16964W        W32433   2.130   6.486  11.431 -0.0826  0.2184 -0.0424
16965W        W32434  15.136  17.085   2.008  0.4761  0.0288  0.0845
16966W        W32435  16.755  15.464   1.711  0.0943  0.1886  0.2106
16967W        W32436   3.725   6.184  10.335  0.4803 -0.1383 -0.4012
16968W        W32437  11.874  16.452  13.859 -0.3135 -0.1987 -0.1355
16969W        W32438  10.295  14.544  14.835 -0.1185  0.0400  0.2191
16970W        W32439   9.405  18.555   0.152  0.0020  0.2911 -0.2810
16971W        W32440   6.639   7.045  10.155  0.0244 -0.0980 -0.0741
16972W        W32441  10.705  10.234  12.085  0.0907 -0.3736 -0.0793
16973W        W32442   1.274  17.622  11.901  0.3832  0.0080 -0.4824
16974W        W32443  15.857  16.249   3.750 -0.1437  0.0936 -0.1727
16975W        W32444   9.475   6.767   4.486 -0.2239  0.2110  0.0003
16976W        W32445  17.027   6.920  15.273  0.3476  0.1473 -0.0911
16977W        W32446  14.092   2.364   4.506 -0.2645  0.1552  0.1327
16978W        W32447   1.552  18.110   5.109  0.0003 -0.1579 -0.1347
16979W        W32448   5.804  10.153  12.905  0.0659 -0.2126  0.0350
16980W        W32449   9.488   1.685   3.545  0.3063 -0.0246 -0.1366
16981W        W32450   6.362  14.615  10.514 -0.2461  0.0219  0.0305
16982W        W32451  15.291   6.317  12.021  0.1438  0.0645 -0.1898
16983W        W32452  18.089  10.719   2.416  0.0270 -0.2164 -0.2034
16984W        W32453  17.865  13.057  11.037 -0.0809  0.3042  0.1305
16985W        W32454   5.992   8.204  11.644  0.4418  0.1243 -0.0885
16986W        W32455  14.086   9.277   1.944 -0.0204  0.0265 -0.0507
16987W        W32456   3.721   2.621  10.625 -0.2068 -0.0190 -0.0974
16988W        W32457   5.416   6.848  11.142  0.0140 -0.2378 -0.3584
16989W        W32458   5.231   1.913   3.843  0.1431 -0.0181  0.0507
16990W        W32459  12.326  16.244   5.611  0.1487 -0.1865 -0.1229
16991W        W32460   3.611   7.679   3.205  0.4858  0.1808 -0.1924
16992W        W32461  10.994  13.355  12.227  0.1809 -0.1105 -0.1057
16993W        W32462   3.223   1.550   3.008 -0.2478  0.4042 -0.1786
16994W        W32463  10.294   5.247   2.765  0.2121 -0.1435  0.3344
16995W        W32464   7.549  10.658   1.314 -0.0119  0.0764 -0.0191
16996W        W32465   3.903  14.071  13.401  0.2776 -0.4184  0.0167
16997W        W32466   6.360   8.164   3.971  0.4418  0.0444  0.0133
16998W        W32467  10.203  11.764   3.069  0.3114 -0.1873 -0.1029
16999W        W32468   0.403   3.030  13.535  0.0685  0.1026 -0.0913
17000W        W32469  10.382   7.960  13.141  0.1405  0.2128 -0.2712
17001W        W32470   9.468  10.231   9.501  0.2048  0.1205 -0.3187
17002W        W32471  12.583  17.819  10.640 -0.2522  0.1211  0.0597
17003W        W32472   4.660  17.702  13.800  0.0038  0.0966 -0.0271
17004W        W32473   0.281  16.983   3.990 -0.0272  0.3562 -0.0642
17005W        W32474   5.938  11.668   9.499  0.0744 -0.2066  0.0528
17006W        W32475   5.057   6.481  13.487 -0.0062  0.3298 -0.2450
17007W        W32476  10.108   0.185  13.085 -0.0686 -0.0511 -0.0566
17008W        W32477   4.524  14.250  12.675 -0.0177  0.0172  0.1172
17009W        W32478   3.957   2.915  11.856  0.0068 -0.3092  0.2372
17010W        W32479  10.543   5.398   5.646  0.0348  0.0183 -0.0423
17011W        W32480   6.283  13.129  10.829 -0.1252 -0.2211  0.1330
17012W        W32481   2.038   8.691   4.072  0.2475 -0.1127  0.0090
17013W        W32482  16.112   5.718  13.841  0.5765  0.2619  0.0625
17014W        W32483  10.995  11.874   4.095 -0.0627 -0.1429  0.2502
17015W        W32484  13.673  17.132  14.838  0.1277 -0.0918 -0.2693
17016W        W32485  18.062  14.709  15.137 -0.0777  0.1858  0.2506
17017W        W32486   4.346   0.372   4.385  0.0189  0.1164 -0.3548
17018W        W32487  16.441  18.208   0.798  0.2420 -0.1074  0.1186
17019W        W32488  14.079  13.453  15.073  0.0001  0.1046 -0.2622
17020W        W32489  18.498   1.984   1.152  0.0744  0.0593 -0.0109
17021W        W32490   8.244   4.328  14.988 -0.0783 -0.1298  0.0070
17022W        W32491  16.246  12.787  12.735 -0.1971  0.0413  0.3296
17023W        W32492  12.334   1.650  15.411 -0.0294  0.3519  0.0062
17024W        W32493   4.356   2.165  15.629 -0.0918  0.2883  0.3937
17025W        W32494  11.911   7.437  15.465  0.0055  0.1582  0.1302
17026W        W32495   4.024   5.725  14.898 -0.2062 -0.3033 -0.3209
17027W        W32496  18.496   2.533  12.245  0.0330  0.0492  0.1826
17028W        W32497   4.691   7.659  14.388  0.0201  0.0867 -0.0085
17029W        W32498   8.291   5.036  12.290  0.2033  0.0793  0.4423
17030W        W32499  17.841  16.530  15.621 -0.1509 -0.3319  0.1470
17031W        W32500   3.317   6.263   2.043  0.2222 -0.0655  0.2153
17032W        W32501  12.264   9.010   2.563  0.0257  0.0060  0.1521
17033W        W32502   1.626  12.206  11.735  0.1146 -0.1900 -0.2018
17034W        W32503  14.791  14.717   4.771 -0.1195  0.1934 -0.2460
17035W        W32504   7.415  12.213   2.149 -0.3128 -0.2472  0.1950
17036W        W32505   9.912  18.099   1.986  0.1408  0.1242  0.2843
17037W        W32506   7.375  12.241   0.725 -0.0625  0.3732  0.0324
17038W        W32507  18.390  10.557  14.769 -0.0196 -0.0475  0.4675
17039W        W32508  17.099   0.922   2.182 -0.1969 -0.2768  0.0072
17040W        W32509  16.562  14.830   6.147  0.1303 -0.2816  0.3619
17041W        W32510  15.128  15.588  13.955  0.2348 -0.1415 -0.1690
17042W        W32511   5.076  10.353   4.740  0.2381 -0.2987  0.2236
17043W        W32512   9.626  13.649   1.099  0.0209 -0.0930  0.4072
17044W        W32513  10.304  15.155   3.874 -0.1314 -0.2270  0.0485
17045W        W32514  17.515  18.570   5.422 -0.1294 -0.0628  0.3818
17046W        W32515  17.599  16.475   3.130  0.0532 -0.2042 -0.1731
17047W        W32516   0.712   6.959  12.821  0.3574  0.2093  0.1555
17048W        W32517   3.653   5.907  14.641  0.0676  0.2044  0.1993
17049W        W32518   9.988   4.475   2.420 -0.1612 -0.0021  0.5647
17050W        W32519   1.914  10.937  14.922  0.4069 -0.3230 -0.0194
17051W        W32520   1.059   7.714  15.133 -0.2183  0.2552 -0.1037
17052W        W32521   3.658   9.326  10.991  0.1025  0.1956 -0.0326
17053W        W32522   9.852   2.065   9.708  0.1410  0.1030 -0.1832
17054W        W32523  16.183  17.978  11.535  0.0422 -0.1165  0.2107
17055W        W32524   8.460  15.498  10.366 -0.2516 -0.1036 -0.3916
17056W        W32525   8.121   5.219  10.839  0.1956  0.1532 -0.1253
17057W        W32526  11.260   7.215   1.265 -0.2424 -0.0172  0.2126
17058W        W32527  16.913  17.226  13.818  0.0302 -0.2088 -0.3181
17059W        W32528   8.799   3.154  12.513  0.0756 -0.1593 -0.0493
17060W        W32529  16.223  11.916   0.829  0.3234  0.1723 -0.4276
17061W        W32530   0.882   2.894   0.019 -0.0668  0.0766  0.1752
17062W        W32531   3.769  12.153  10.618 -0.4088 -0.4000 -0.2324
17063W        W32532   0.668  17.697   3.010 -0.1387  0.0763 -0.1842
17064W        W32533  13.737   5.273   2.835  0.3335 -0.1669  0.3225
17065W        W32534   8.806   3.437  15.049  0.3299 -0.0283  0.0549
17066W        W32535  14.105   3.048  14.342 -0.1844  0.1864 -0.0709
17067W        W32536   9.023   7.884   1.125  0.1089  0.3248  0.6592
17068W        W32537  17.085   9.092   0.523 -0.2900 -0.0381  0.3210
17069W        W32538   8.620   5.976   0.058  0.1809 -0.0598  0.2838
17070W        W32539  13.899   6.182  15.196  0.0365 -0.0427  0.0621
17071W        W32540  12.676  14.959  10.289 -0.2848 -0.2599  0.1872
17072W        W32541   9.613   5.664   5.385 -0.1464 -0.0078 -0.0322
17073W        W32542  10.258  12.064   5.553 -0.2268 -0.3168 -0.0085
17074W        W32543  16.935  12.934   0.159  0.0821 -0.2037  0.3561
17075W        W32544  13.497  10.143  11.465 -0.0184 -0.0504 -0.1085
17076W        W32545  13.788   1.249   1.568  0.2898 -0.1121 -0.2353
17077W        W32546  16.397  12.996  13.154 -0.2224 -0.1599 -0.0689
17078W        W32547  15.666   8.541  15.348 -0.1574  0.1483 -0.1576
17079W        W32548  13.876  16.967  11.597 -0.2617 -0.1181 -0.0117
17080W        W32549   0.573  10.363   1.839 -0.3340 -0.0942 -0.0350
17081W        W32550   9.067  11.056  12.866 -0.2827  0.0209  0.2663
17082W        W32551   8.792   8.129   3.632  0.0959  0.2603  0.1694
17083W        W32552   5.232  17.226  13.757  0.0661  0.1109 -0.0164
17084W        W32553   0.768  13.649   0.063 -0.0484  0.0949  0.0791
17085W        W32554   1.263  10.398  12.741  0.2711  0.3216 -0.1030
17086W        W32555  16.058  17.068  11.222 -0.0091 -0.1104 -0.1951
17087W        W32556   8.615  12.731   1.198 -0.3178 -0.2332 -0.0025
17088W        W32557  12.298   0.866   9.913 -0.0559  0.0051  0.0944
17089W        W32558   5.478   5.319   1.020 -0.3276 -0.1214  0.4396
17090W        W32559  16.013   5.524   1.573 -0.0635  0.0502 -0.0120
17091W        W32560   6.788   4.840   3.818  0.1780  0.1680 -0.1941
17092W        W32561  15.102  13.443  14.885  0.0449 -0.4855 -0.0615
17093W        W32562  12.096   1.256  14.116 -0.0892  0.3379 -0.1710
17094W        W32563  12.198   1.949   1.228 -0.1877 -0.4163  0.0648
17095W        W32564  11.634  11.079  15.005 -0.0804  0.0417 -0.1519
17096W        W32565   4.405   8.977   1.359  0.3686 -0.0492  0.0805
17097W        W32566   4.895   0.466  12.607 -0.1033 -0.1492 -0.2662
17098W        W32567  11.678   6.572   1.504  0.1246 -0.0632  0.0177
17099W        W32568  10.375   2.202  14.799 -0.0791 -0.0503  0.1581
17100W        W32569  13.695   9.022   2.303  0.0101  0.0269 -0.0335
17101W        W32570   7.298   1.234   0.665  0.5070  0.2116 -0.3409
17102W        W32571  11.138   0.833   0.144  0.0275 -0.0342 -0.2726
17103W        W32572  12.758  12.454   2.354 -0.1464 -0.0586  0.0231
17104W        W32573   7.492   6.871  11.781  0.1040 -0.0868  0.0492
17105W        W32574  13.976   6.022   1.803 -0.0542 -0.0691  0.0249
17106W        W32575   7.631  13.741  11.890  0.2068 -0.0243  0.2269
17107W        W32576   8.847   3.089   4.187 -0.1995 -0.1833 -0.0725
17108W        W32577   2.388   9.580   0.797  0.1670  0.0341 -0.1101
17109W        W32578   3.552   0.447  10.976  0.0351 -0.1540  0.0890
17110W        W32579   9.935  11.381  12.942  0.1143 -0.2577 -0.0524
17111W        W32580   5.864   5.459  14.082  0.2239  0.1659 -0.0507
17112W        W32581  14.614   4.919  15.610  0.1114  0.0329 -0.0917
17113W        W32582  16.312  15.047  12.176 -0.2954  0.0118  0.2125
17114W        W32583   1.537  18.470   1.943 -0.0484 -0.0537 -0.0339
17115W        W32584  16.693  16.307  12.376  0.1763 -0.0005  0.0453
17116W        W32585   5.325   4.091  11.767  0.3038 -0.1120  0.0179
17117W        W32586   9.999   3.466   4.716 -0.1105 -0.0841 -0.1995
17118W        W32587  13.344   5.399   4.537  0.0369  0.0346  0.3150
17119W        W32588  16.270   5.280   1.972 -0.2810  0.2156 -0.0272
17120W        W32589  10.441   3.107   2.185  0.1520  0.0278  0.1660
17121W        W32590   8.925  11.837  10.574 -0.1236  0.0006 -0.0371
17122W        W32591  13.528  10.678  11.295  0.4332 -0.3231  0.2633
17123W        W32592   9.326   0.889  10.817 -0.0519 -0.0765  0.0868
17124W        W32593   1.756  10.385  12.807 -0.3101  0.0914  0.1054
17125W        W32594  12.556   8.173  15.518  0.0406 -0.0949 -0.0568
17126W        W32595   7.917  13.960   4.136  0.0801 -0.1330  0.3497
17127W        W32596   5.808   4.545   5.587 -0.3191  0.2684  0.0355
17128W        W32597   5.421  18.006   3.747  0.0228  0.2189 -0.2353
17129W        W32598  18.584   3.238   4.760 -0.2425  0.2830 -0.0870
17130W        W32599   2.029  18.484  12.574  0.4315 -0.0138  0.2386
17131W        W32600  12.613   8.630  13.182  0.0184 -0.4314 -0.2116
17132W        W32601  11.996   7.874  14.632  0.1056  0.2441  0.0087
17133W        W32602   8.131  15.938   4.476 -0.1305  0.0669 -0.0790
17134W        W32603  12.656   2.864   2.219 -0.0057  0.2805  0.1600
17135W        W32604  13.022   3.856  11.130 -0.0166 -0.1232 -0.2358
17136W        W32605   3.858  10.906   9.912  0.0292 -0.1404  0.2700
17137W        W32606   2.145  11.158  14.244  0.1859 -0.1383  0.2075
17138W        W32607  17.377   0.629   4.863 -0.0481  0.0136  0.1590
17139W        W32608   0.605  10.262   1.087 -0.0345 -0.2438 -0.1852
17140W        W32609   0.594   0.572   0.064  0.0107 -0.4893 -0.0419
17141W        W32610  18.081   8.295   4.347  0.2803  0.0649 -0.0570
17142W        W32611  16.527  11.366   2.549  0.2415 -0.1824  0.5145
17143W        W32612   9.012   9.548   1.413  0.2843 -0.2512  0.0014
17144W        W32613   4.575  17.689   1.748 -0.1771  0.1280  0.1523
17145W        W32614   1.023  16.537  14.861 -0.1253 -0.2223 -0.2059
17146W        W32615  12.408   9.488   2.678 -0.1718 -0.1018 -0.3249
17147W        W32616   2.630  15.680   1.002 -0.0828 -0.4383  0.1138
17148W        W32617  17.088  17.896  14.713  0.0966 -0.0343 -0.5001
17149W        W32618   7.993  18.344   0.003 -0.0480 -0.1314 -0.3265
17150W        W32619   4.598  18.300  10.715 -0.3377  0.0318 -0.0082
17151W        W32620   2.266   8.194  15.543  0.2610 -0.1285 -0.0702
17152W        W32621  13.909  18.202  11.152  0.1447  0.0544 -0.2762
17153W        W32622  16.945   7.271  14.695  0.0127  0.2655 -0.0593
17154W        W32623   3.470   2.745  11.131  0.3015  0.0532  0.0325
17155W        W32624  16.368   6.729  14.103  0.2284 -0.0148 -0.2521
17156W        W32625  17.471  13.109  14.382  0.2020 -0.4175  0.2557
17157W        W32626  11.016  18.318  11.443  0.2057 -0.0352 -0.3610
17158W        W32627   2.694   4.985   4.038 -0.0134  0.0752  0.0170
17159W        W32628   4.122  17.983  14.243  0.2908  0.0606  0.0804
17160W        W32629  16.823  11.748   2.534 -0.3014 -0.1364  0.0337
17161W        W32630   4.732   8.087  15.663 -0.1545  0.1981  0.1688
17162W        W32631   0.505  11.323  12.845 -0.0385  0.2088 -0.0498
17163W        W32632  13.264   0.523   2.364 -0.4268  0.0645  0.4497
17164W        W32633   4.553  12.494  13.267 -0.4267  0.2123  0.1580
17165W        W32634   3.271  18.247  15.063  0.0191 -0.0523  0.0642
17166W        W32635  10.071   6.023   5.182  0.4196 -0.3839 -0.1133
17167W        W32636   8.364   2.670  13.767 -0.3272  0.5308  0.1646
17168W        W32637  14.138  12.308  11.708  0.1001  0.1948  0.1160
17169W        W32638  16.444   8.018   1.282 -0.1774  0.2683 -0.2333
17170W        W32639   7.682  18.512   3.169  0.0114 -0.0101  0.5740
17171W        W32640  14.301   0.763   2.440 -0.2405  0.1916 -0.2114
17172W        W32641  13.385  17.044   3.151 -0.0108 -0.1833  0.1750
17173W        W32642   0.077   2.855   2.775 -0.0398  0.0373 -0.0009
17174W        W32643   6.226  14.323   1.469 -0.4419 -0.1159  0.1160
17175W        W32644  11.183   8.769  11.559 -0.2092 -0.0578 -0.2182
17176W        W32645   5.387  10.754   4.779 -0.1106 -0.0937  0.2262
17177W        W32646  13.488   9.817   2.845 -0.0798  0.4725  0.1343
17178W        W32647  11.522  16.084   5.019  0.0687  0.0609  0.0310
17179W        W32648   6.392  12.035  13.649  0.4071 -0.0213 -0.0260
17180W        W32649  15.274   5.064  11.050  0.0263  0.0605  0.0636
17181W        W32650  13.277  18.070   1.800  0.1094 -0.3977  0.1495
17182W        W32651  11.042  18.665   2.109  0.0184 -0.1145 -0.2191
17183W        W32652   4.760   3.763   4.989 -0.1839  0.0943  0.0909
17184W        W32653   3.004   0.598  14.654 -0.1001  0.0250  0.0533
17185W        W32654  12.677  18.021   1.948  0.1295 -0.0839 -0.0348
17186W        W32655  16.987   3.665   2.010  0.0016  0.2545 -0.0988
17187W        W32656   5.821  18.698  12.759  0.2329 -0.1049 -0.3354
17188W        W32657  11.512   0.996  14.898 -0.1336 -0.0047  0.0192
17189W        W32658   3.279   9.811   4.769  0.0546  0.0340 -0.1309
17190W        W32659  14.418   8.302   4.368  0.0893 -0.0742 -0.1047
17191W        W32660   4.404  14.716  15.539  0.1710 -0.1073  0.3255
17192W        W32661   4.060   9.735  13.383  0.1882 -0.2000  0.0898
17193W        W32662   6.325   7.730  12.684 -0.2898  0.3487  0.4024
17194W        W32663   8.262   3.333   3.415 -0.0367  0.2299  0.0285
17195W        W32664   8.468  17.445  10.972  0.0349 -0.4291  0.2842
17196W        W32665  12.902   8.696  10.237 -0.1776 -0.0714  0.0852
17197W        W32666   8.849  15.634  13.051 -0.0894  0.1661  0.0052
17198W        W32667  13.648   7.273  15.340 -0.1482 -0.2312 -0.1116
17199W        W32668   7.397   4.009   0.879  0.0634 -0.0070  0.1302
17200W        W32669  16.117   5.263   4.705 -0.1656 -0.1148  0.1140
17201W        W32670  18.784   1.921  13.008 -0.1384 -0.1822  0.0200
17202W        W32671  16.866   3.396   0.184  0.0682  0.0112 -0.1270
17203W        W32672   3.974   4.847  11.132  0.3071  0.0067 -0.1087
17204W        W32673  11.012  11.255  15.625 -0.0303 -0.0474  0.2590
17205W        W32674  13.287   8.714  13.770  0.0602 -0.0275 -0.0720
17206W        W32675  18.384   1.470   0.150 -0.3246 -0.1137  0.2015
17207W        W32676  10.273  11.254  12.161  0.2219  0.0637 -0.1018
17208W        W32677   4.296   1.555   0.113  0.3153  0.0507  0.0794
17209W        W32678   4.347   0.567  13.049  0.2039 -0.3624 -0.0526
17210W        W32679   9.520  15.353  13.900 -0.2101  0.3189  0.0526
17211W        W32680   0.782   3.750   0.165 -0.2633  0.0246 -0.1473
17212W        W32681  11.822   8.936   1.361  0.2601  0.1869 -0.2027
17213W        W32682  10.719  16.532   3.316 -0.2820 -0.1953  0.1778
17214W        W32683  12.823  17.262   2.224  0.0849 -0.2073 -0.0679
17215W        W32684   3.418  15.636  12.172  0.0917  0.0298 -0.3511
17216W        W32685   5.311  10.123  10.397 -0.2521 -0.2618 -0.2296
17217W        W32686  11.478  18.560  11.720 -0.1164  0.0724 -0.2562
17218W        W32687   8.027  16.821   4.305 -0.2706  0.4518 -0.4694
17219W        W32688  11.374  11.007   6.065  0.0778 -0.0102 -0.0099
17220W        W32689  18.401  13.265  14.823  0.1824  0.3434  0.0190
17221W        W32690   7.303   1.483   4.635  0.3159 -0.1215  0.3141
17222W        W32691  13.810   8.506  13.380 -0.2119  0.3388 -0.0516
17223W        W32692  12.531   3.696  15.523  0.0065 -0.1650 -0.1156
17224W        W32693  15.740   6.064  12.069  0.3022  0.1227  0.3183
17225W        W32694   7.190   3.106   0.855 -0.3632  0.2804 -0.0538
17226W        W32695  18.650   0.149  12.959  0.2156  0.1824 -0.0270
17227W        W32696   2.778   4.899   1.920 -0.1405 -0.0185  0.1462
17228W        W32697   9.528   7.587  15.070 -0.1007  0.0391 -0.0095
17229W        W32698   9.168  18.724  15.374  0.1402  0.0307  0.3258
17230W        W32699  15.986  14.250  12.959  0.1141  0.2778 -0.0413
17231W        W32700  16.929   8.334   4.622 -0.1880 -0.1252  0.2157
17232W        W32701   0.195   0.321   0.073  0.4433 -0.0979  0.4077
17233W        W32702  10.107   5.212  11.067  0.0260 -0.2622  0.0655
17234W        W32703  13.284   1.037   2.348  0.0406  0.0081 -0.0779
17235W        W32704   6.367  13.246   1.329 -0.1766  0.1626  0.0216
17236W        W32705  17.939   3.520  14.984  0.2198 -0.1024 -0.1337
17237W        W32706  15.785   2.154  15.179  0.0338 -0.0490 -0.1783
17238W        W32707  15.102  11.757  13.758  0.0941  0.3553  0.1647
17239W        W32708  16.956   5.169  13.704 -0.3405  0.0098  0.1011
17240W        W32709  18.284   3.154  14.731  0.2182  0.1603  0.1267
17241W        W32710  11.386   8.297  10.556 -0.0566 -0.0308 -0.4182
17242W        W32711   0.041  12.637   5.100  0.2953  0.1254 -0.1952
17243W        W32712   3.168   9.116   0.967 -0.2288  0.0278 -0.1466
17244W        W32713   7.041  10.571   3.645 -0.1993 -0.0318 -0.3750
17245W        W32714   7.066  10.054  15.275  0.0197  0.1703  0.1576
17246W        W32715  16.853   2.271  13.008 -0.0850 -0.1129 -0.0408
17247W        W32716   7.482   4.718   2.770 -0.2519 -0.1356 -0.0153
17248W        W32717  13.222   1.647   4.413  0.0488 -0.4013 -0.2187
17249W        W32718   1.201   1.972  13.492  0.0963 -0.0837 -0.2328
17250W        W32719   4.709  17.115   1.840 -0.0438 -0.0472  0.3678
17251W        W32720   3.813  18.137  13.210  0.0609 -0.0359  0.2938
17252W        W32721   5.301   6.574  13.023  0.0366  0.2304 -0.2538
17253W        W32722  13.389  10.392  14.377 -0.0961 -0.1353  0.2018
17254W        W32723   3.856   0.596  14.795  0.0780  0.2304  0.0744
17255W        W32724  10.785   6.215  15.397  0.4880 -0.0954  0.3192
17256W        W32725  15.397   8.989   2.268  0.0440  0.1368 -0.3160
17257W        W32726   1.761  15.627  13.989 -0.0923 -0.1536  0.0514
17258W        W32727   9.335  18.026   0.333 -0.1035 -0.0129 -0.0632
17259W        W32728   4.236   8.598   2.275 -0.0980 -0.1270  0.0373
17260W        W32729  10.245   5.633  11.637  0.1518  0.0344 -0.0816
17261W        W32730   8.741   3.528   5.001 -0.1059 -0.4906  0.1251
17262W        W32731   1.515   4.396  10.278  0.1888  0.2342  0.0185
17263W        W32732  11.984   4.629  10.139  0.4147  0.2288  0.1910
17264W        W32733  11.613   2.949   2.796  0.3389 -0.0483 -0.2576
17265W        W32734  10.219   9.528  12.444 -0.0399  0.3586 -0.0354
17266W        W32735  10.412  18.722   4.869 -0.0750 -0.0762  0.0781
17267W        W32736  15.037  14.974  12.445  0.1059 -0.2225 -0.3407
17268W        W32737  10.834   2.826   2.143 -0.0217  0.2400  0.3482
17269W        W32738   9.141  13.682   0.965 -0.1351 -0.2087 -0.0284
17270W        W32739   2.986   7.555   0.234  0.1497  0.0672  0.3173
17271W        W32740   4.353  13.234  11.472  0.1097  0.4127 -0.1262
17272W        W32741  16.739  11.926  11.558  0.1151 -0.2874  0.0706
17273W        W32742   5.532   2.203  13.776 -0.2440  0.3414  0.1147
17274W        W32743  12.653  18.281   2.377 -0.0999  0.0173  0.0639
17275W        W32744  17.830  14.336   1.105  0.1111 -0.0826  0.0666
17276W        W32745   7.108  11.211   5.010 -0.2412 -0.0147  0.1142
17277W        W32746  17.926  14.596  15.624 -0.2721 -0.1108 -0.0118
17278W        W32747  14.545  13.469   4.490 -0.3789 -0.2722 -0.0673
17279W        W32748   0.272  11.449   0.810 -0.0231  0.0627  0.0123
17280W        W32749  15.443   4.168  15.377 -0.0296 -0.0696  0.1824
17281W        W32750   5.629  12.363  14.552  0.0549 -0.4290 -0.0973
17282W        W32751  14.163   0.986  13.754  0.2369 -0.1557  0.3442
17283W        W32752  15.319   8.858  11.829 -0.1743  0.0982 -0.0518
17284W        W32753  10.999   1.179   5.085  0.1506 -0.2068  0.3010
17285W        W32754   9.949  17.774   2.886  0.0025 -0.1464  0.2645
17286W        W32755   2.923   8.606  11.214 -0.1301 -0.1193  0.0316
17287W        W32756   3.960   0.897  12.632  0.2573 -0.2310 -0.0166
17288W        W32757   9.999  18.178  11.606  0.2303 -0.1975  0.0221
17289W        W32758   4.133  14.217   2.529  0.1189 -0.2608 -0.0696
17290W        W32759  14.854  10.953  12.183  0.2577  0.1727 -0.0431
17291W        W32760   5.057  18.088   3.033  0.3174  0.1428  0.2448
17292W        W32761   1.444   9.002  12.677  0.1320  0.0603 -0.2635
17293W        W32762   1.442  18.179   5.639 -0.2506 -0.1775 -0.0982
17294W        W32763   3.531  11.474  14.017  0.0186 -0.1658  0.0878
17295W        W32764  18.767   3.177   5.216  0.1885 -0.0446  0.3969
17296W        W32765   1.813  11.709   3.054  0.3906  0.0551  0.3961
17297W        W32766  14.639  18.181   2.443 -0.0452  0.1291 -0.0366
17298W        W32767   3.829  16.454   4.492 -0.2794  0.2165  0.0280
17299W        W32768  12.957   1.777   1.418 -0.1053  0.0579 -0.0654
17300W        W32769  15.853  18.390  10.746 -0.4137 -0.2017 -0.0558
17301W        W32770   6.457  11.361  11.736 -0.0020  0.0523  0.3040
17302W        W32771  10.729  11.636  10.426  0.3386  0.0322 -0.0246
17303W        W32772   6.585  12.086   1.044 -0.0225 -0.0496  0.1928
17304W        W32773   3.918   6.226  12.241  0.0682  0.0430 -0.2156
17305W        W32774  10.841  17.105  10.666  0.2235  0.0618 -0.0328
17306W        W32775   3.699   3.029   0.823  0.0876 -0.0029 -0.0293
17307W        W32776  17.874   3.314   4.400  0.3171  0.0124 -0.1432
17308W        W32777  14.685  10.938   4.907  0.2653 -0.2467 -0.0115
17309W        W32778   8.913   6.949  13.706 -0.0536 -0.0327 -0.1894
17310W        W32779   8.889   0.530  12.537 -0.0192 -0.1088 -0.0618
17311W        W32780   9.413  14.248  12.736  0.0927 -0.0085  0.1514
17312W        W32781   5.456   6.261   5.759  0.1096 -0.2274 -0.2833
17313W        W32782   4.611  16.995  11.492  0.0259  0.1663 -0.0224
17314W        W32783   7.915   4.243   0.445  0.0154 -0.1700  0.0061
17315W        W32784   7.956   3.073  15.385  0.1499 -0.0915  0.0426
17316W        W32785   8.031  18.576  13.540 -0.0180  0.0220 -0.2193
17317W        W32786  17.218  17.748  11.237  0.0385  0.1141  0.1200
17318W        W32787   5.989  10.242   0.506  0.1137  0.0435  0.1855
17319W        W32788  13.165  14.543   1.917 -0.0061  0.1161 -0.1805
17320W        W32789   6.519   5.984   2.245  0.2861  0.0676 -0.1035
17321W        W32790  10.032   8.179  12.832  0.0916 -0.0558  0.1040
17322W        W32791   1.988   7.542   2.286 -0.1967 -0.2095  0.0425
17323W        W32792  12.758  14.069   4.730 -0.0489 -0.3549  0.2561
17324W        W32793  16.464  14.960   2.527  0.0941  0.0645  0.2905
17325W        W32794   6.269  14.434  12.878 -0.0748 -0.1516  0.3749
17326W        W32795  15.548  12.277  11.366 -0.0000  0.1287  0.1155
17327W        W32796   1.374   6.512   1.002  0.0583 -0.2374 -0.1566
17328W        W32797  12.668   1.782  10.601  0.2075  0.2021 -0.1205
17329W        W32798   0.464   8.126  14.140  0.2452 -0.1921  0.0761
17330W        W32799   3.053  16.980  12.046 -0.1176 -0.0199 -0.2234
17331W        W32800  14.626  14.809  12.170 -0.3980  0.0453  0.0889
17332W        W32801  11.772  12.361   1.007  0.3892  0.1946 -0.0295
17333W        W32802  17.067  11.855  14.820  0.0579 -0.1472  0.1913
17334W        W32803  16.748  11.349  14.159  0.1356  0.1008  0.0979
17335W        W32804   3.381  15.367  15.179  0.2758 -0.5893 -0.2777
17336W        W32805  10.053  16.871   2.597 -0.1942  0.2252 -0.0688
17337W        W32806  17.200  12.652   3.973  0.3503 -0.1744 -0.2234
17338W        W32807  11.211   7.521  14.941 -0.3055  0.0653 -0.3652
17339W        W32808  15.809  15.466   5.424 -0.1488  0.3026  0.1184
17340W        W32809  15.880   7.019   1.602  0.2449  0.1914  0.1294
17341W        W32810   8.261   1.841   2.314  0.3452 -0.0961  0.0373
17342W        W32811  13.750   6.770  15.348  0.0077  0.1577  0.3547
17343W        W32812  16.980   7.243   1.963  0.0203  0.1587 -0.5813
17344W        W32813  12.774   7.152  10.706 -0.1098  0.2084  0.0072
17345W        W32814   0.440  10.072  10.662 -0.3308  0.0899  0.0726
17346W        W32815   8.904   7.982  10.775  0.1152  0.1008 -0.3649
17347W        W32816   1.564   5.745   4.403 -0.0048  0.1701  0.1160
17348W        W32817   9.312   8.380  14.386  0.2806  0.4179 -0.0389
17349W        W32818  10.842  18.553  14.427 -0.0939  0.2692  0.0541
17350W        W32819  17.376   9.339  15.009 -0.1156 -0.0499  0.0579
17351W        W32820  16.662  14.560   3.366  0.0601  0.2280 -0.0675
17352W        W32821   6.353   3.860   2.463  0.0491 -0.0612 -0.1894
17353W        W32822   1.360  15.859   1.059 -0.0815 -0.2218 -0.2465
17354W        W32823  10.338   5.194  13.042  0.0916 -0.0116  0.0145
17355W        W32824  17.789   6.477   2.803  0.0296  0.1174 -0.0307
17356W        W32825  17.271  15.791  14.463 -0.0369 -0.0114  0.1385
17357W        W32826   8.382   6.719  11.598  0.0742  0.1250  0.1993
17358W        W32827   9.211   9.069  12.656 -0.1898 -0.1238 -0.0385
17359W        W32828  17.445  13.835   1.247  0.3114  0.4194  0.0877
17360W        W32829  16.893   7.484   2.497  0.0602  0.0186  0.1605
17361W        W32830  15.967   6.247   4.550 -0.0887 -0.2660 -0.0978
17362W        W32831  11.558   5.350  14.482 -0.1262  0.3679  0.1380
17363W        W32832  12.225   9.168   3.026 -0.1873 -0.1367  0.0387
17364W        W32833   3.044  17.076   5.082 -0.0013  0.0647 -0.1144
17365W        W32834  16.916  14.947   4.024 -0.2260  0.1822 -0.0237
17366W        W32835  11.518   1.305  14.286  0.1068 -0.1675  0.1224
17367W        W32836   9.124  15.024   1.291 -0.2408  0.0585 -0.1385
17368W        W32837  10.754   5.778   4.757 -0.4993 -0.1173 -0.0012
17369W        W32838   2.914   5.642  12.423 -0.4511  0.4692 -0.3803
17370W        W32839  18.537  12.085  10.934 -0.1777 -0.2629 -0.3142
17371W        W32840   8.126  11.701   2.499  0.1642  0.1765 -0.0228
17372W        W32841   1.479   6.275   4.475 -0.2133 -0.1354 -0.3175
17373W        W32842   2.261  15.939   0.788  0.1537  0.0263 -0.0874
17374W        W32843   5.608  11.709   2.068  0.0026  0.1388 -0.0755
17375W        W32844   4.774   6.428  13.963  0.0831  0.1065  0.1358
17376W        W32845  15.326  16.906   3.960 -0.0405 -0.0559  0.1587
17377W        W32846   3.035   7.854   2.056 -0.1916 -0.1059  0.1081
17378W        W32847   6.002   1.405   1.709  0.1316 -0.0192 -0.0520
17379W        W32848  12.193  18.674  13.875  0.0389  0.5206  0.0879
17380W        W32849   0.968   5.011   4.649  0.2325  0.0619 -0.0422
17381W        W32850   3.415   1.532  11.646  0.2038  0.3850 -0.0501
17382W        W32851   3.499   8.540  14.399  0.1192  0.0072 -0.2151
17383W        W32852   8.125   3.627  13.797  0.0377 -0.0101  0.0281
17384W        W32853  11.415  17.280  11.955  0.2798 -0.4644 -0.0309
17385W        W32854  10.669  17.734  11.525  0.1631 -0.0988 -0.1989
17386W        W32855   2.106  16.855  10.214  0.1715 -0.3621 -0.1557
17387W        W32856   1.496   1.310  11.245 -0.1124 -0.2454  0.2109
17388W        W32857   3.494   0.671  13.900  0.0192  0.1077  0.4194
17389W        W32858   9.544  16.163  14.572 -0.1962  0.0946  0.1220
17390W        W32859  11.269   4.694  13.334  0.0712 -0.2645 -0.2558
17391W        W32860  13.101  11.896   4.367  0.0282 -0.0093 -0.0609
17392W        W32861  10.827   8.337  12.281 -0.3933  0.1164 -0.3269
17393W        W32862  15.776  17.689   0.763  0.4802  0.2752 -0.1911
17394W        W32863  14.926  18.476  10.246 -0.3004  0.3581  0.2816
17395W        W32864  15.126   3.176   3.190 -0.1876 -0.0728 -0.0325
17396W        W32865  16.756   2.068  13.664  0.0028 -0.1506  0.4214
17397W        W32866  10.433  18.483   1.839 -0.1404  0.2108  0.0326
17398W        W32867   6.796   7.197   3.563 -0.0262  0.4215  0.2495
17399W        W32868  15.845  18.289   2.260 -0.0225  0.2563  0.3046
17400W        W32869   7.333  14.062   3.091  0.1004 -0.0626  0.0880
17401W        W32870   5.680  16.216   0.993  0.1947  0.0250 -0.2044
17402W        W32871  12.780   3.416  11.815  0.1779  0.1587  0.1175
17403W        W32872  10.463   2.333  12.183 -0.0787  0.2473 -0.3826
17404W        W32873   5.742  13.800   3.029 -0.0217 -0.1671  0.1934
17405W        W32874   3.723   1.566   0.354  0.0406  0.2642  0.3727
17406W        W32875  11.222  16.931  12.422 -0.1974 -0.0680  0.0316
17407W        W32876   6.137   1.691  13.979 -0.3554  0.2328 -0.0809
17408W        W32877   8.989  11.530  12.967  0.0797  0.0255  0.1783
17409W        W32878   9.376   3.280   6.015  0.0040 -0.0941 -0.0151
17410W        W32879  16.739  14.362   5.978  0.2838  0.0125  0.1308
17411W        W32880  14.055  16.384  11.900 -0.0067 -0.0757  0.0694
17412W        W32881  11.758  11.511   4.709 -0.0468 -0.3618 -0.0054
17413W        W32882   6.023  12.437  15.264 -0.2676  0.3522  0.1166
17414W        W32883  11.846   0.118  11.456 -0.1010 -0.0258 -0.0945
17415W        W32884   3.798   3.842  13.310 -0.0635 -0.0576  0.2143
17416W        W32885  17.728  16.351   1.063  0.0310  0.0472  0.0365
17417W        W32886   8.534   6.221  11.597  0.1287 -0.2176  0.0572
17418W        W32887  14.192  13.505  13.414 -0.1012 -0.1563  0.4442
17419W        W32888  16.605  10.787  13.113 -0.0672  0.0597  0.0381
17420W        W32889   5.722   4.086   0.873  0.2443  0.1536  0.0532
17421W        W32890   4.852  17.463   5.492  0.2638  0.0288 -0.0386
17422W        W32891  15.309   4.980  15.132 -0.4302 -0.0012 -0.0581
17423W        W32892  17.179  11.997   5.101  0.0081  0.1448  0.2064
17424W        W32893  14.307  18.365  15.028  0.2347  0.2069  0.0474
17425W        W32894   8.916   5.590  10.561  0.1655 -0.0940  0.0783
17426W        W32895   1.297  14.012  11.834  0.2032 -0.1179 -0.0171
17427W        W32896   7.354  18.336  14.915  0.0550 -0.1250 -0.1463
17428W        W32897   0.653  18.008   5.320  0.0641 -0.0810  0.0693
17429W        W32898   6.410   8.819  10.974 -0.0315  0.3174  0.2262
17430W        W32899  11.604   3.059  12.812 -0.0448  0.0071 -0.0274
17431W        W32900  13.698  18.479  14.622  0.0782  0.1478 -0.1377
17432W        W32901   3.871  11.307  12.933  0.0634 -0.0111 -0.2421
17433W        W32902   0.797  15.833  11.584 -0.0016 -0.1075  0.3380
17434W        W32903   5.214  13.625   2.001 -0.1746  0.2232 -0.0006
17435W        W32904   9.627  12.257  14.531 -0.0785  0.0485  0.0442
17436W        W32905   5.188  13.993   3.367  0.0915  0.2827  0.1265
17437W        W32906   9.392   6.892   0.830 -0.2629  0.1217 -0.4980
17438W        W32907  11.508  11.968  14.951  0.0453 -0.0870 -0.1180
17439W        W32908   1.573   9.071  12.208  0.1728  0.0940 -0.0532
17440W        W32909  15.186  17.201   0.263  0.0930 -0.0064  0.1969
17441W        W32910   1.271   6.991  12.727 -0.2870 -0.3250 -0.1393
17442W        W32911  14.929   1.448   3.644 -0.1546 -0.1915  0.2234
17443W        W32912  18.665   1.202  12.275 -0.1522 -0.1499  0.2481
17444W        W32913   0.361  15.797  11.423 -0.0178  0.1226 -0.1333
17445W        W32914  12.561   1.423  11.022  0.0673 -0.0142  0.2856
17446W        W32915  17.079   3.332  11.195  0.0440  0.0164  0.1879
17447W        W32916  14.314  18.644   4.501 -0.1371 -0.4433  0.2852
17448W        W32917   1.442   2.486   5.212  0.1495  0.0170  0.0243
17449W        W32918   0.500  17.456  13.695 -0.1419  0.1124 -0.0753
17450W        W32919   1.723   1.598  13.374  0.2260 -0.1980  0.0122
17451W        W32920  17.368  17.692   2.083  0.2617  0.0786  0.2292
17452W        W32921  12.799  14.329   2.331 -0.0801  0.3395  0.0437
17453W        W32922  13.532   2.217  14.228 -0.0947  0.3717 -0.3370
17454W        W32923  17.939   0.831   5.075  0.3332 -0.1733  0.0694
17455W        W32924  15.700   7.435   9.869  0.1480 -0.0882 -0.4350
17456W        W32925  16.476   0.772   5.604 -0.1861 -0.0754 -0.2926
17457W        W32926   2.026  10.393  11.286 -0.1712 -0.1876 -0.0423
17458W        W32927  15.953   1.214  13.323  0.0720 -0.0755  0.0854
17459W        W32928   6.948   0.425  12.606  0.2181 -0.3587 -0.0602
17460W        W32929  15.575   5.208   4.616 -0.1740  0.0570  0.1394
17461W        W32930   5.464   8.935  10.196 -0.1460  0.4092 -0.3723
17462W        W32931   0.690   7.572   0.784 -0.0589 -0.0460  0.0270
17463W        W32932   7.783  16.061   0.737 -0.0223 -0.1656  0.2475
17464W        W32933   6.849  17.554   2.456 -0.0421  0.0530  0.0518
17465W        W32934   4.555   1.484   1.153  0.1033  0.2340 -0.3031
17466W        W32935   4.293   4.378   0.658  0.0938 -0.1277  0.0880
17467W        W32936  18.224  18.517   4.212 -0.5339 -0.2064  0.0577
17468W        W32937   8.833  15.978   1.490  0.0588 -0.5134 -0.1090
17469W        W32938  14.137   1.517  13.482 -0.2071 -0.3594  0.1407
17470W        W32939   1.958  14.573   2.724  0.2158  0.0564 -0.3277
17471W        W32940   3.727  17.039  15.098  0.2811  0.1931 -0.1960
17472W        W32941  11.495   3.830  14.091 -0.0186 -0.1657 -0.0549
17473W        W32942  12.266  15.192   2.427 -0.1785 -0.0209  0.1808
17474W        W32943   8.811  17.829  15.593  0.2061  0.0396  0.0585
17475W        W32944   5.214   4.856   1.592 -0.0529  0.1670 -0.1731
17476W        W32945   9.898  13.223   3.110  0.1989  0.0794  0.0519
17477W        W32946   1.241  15.480  14.104  0.1593  0.0276  0.1524
17478W        W32947  18.782   1.010  11.737  0.0588  0.0461 -0.4693
17479W        W32948  11.557  14.144  10.724  0.0203 -0.0717 -0.1537
17480W        W32949  14.700  11.051   0.230  0.0960 -0.0749 -0.1691
17481W        W32950  15.878  12.083   4.628 -0.0200  0.2442  0.0354
17482W        W32951  14.819  14.295   5.512 -0.0587 -0.0104  0.1605
17483W        W32952  14.293  12.038  13.701  0.2217 -0.0878 -0.1119
17484W        W32953  14.372  11.402  11.746  0.0269 -0.0176  0.2206
17485W        W32954  10.682   9.659  14.135 -0.2740 -0.0418 -0.4599
17486W        W32955   5.285  11.037   2.604 -0.1543 -0.0083  0.0572
17487W        W32956  10.327  16.034  13.780 -0.1331 -0.0701 -0.0079
17488W        W32957  15.229  15.549   4.001 -0.0943  0.1131 -0.4393
17489W        W32958  12.454  16.529   3.494 -0.1323 -0.0082  0.2372
17490W        W32959  16.462   4.358  12.242  0.3154  0.1292  0.1605
17491W        W32960  10.920  18.192  10.807  0.1573  0.0937  0.1550
17492W        W32961   1.196   0.253  10.621 -0.0823 -0.0161  0.1442
17493W        W32962  14.969   8.886  10.051  0.2463 -0.0848  0.2958
17494W        W32963   7.094  15.362  13.525  0.0863  0.1848  0.2062
17495W        W32964   6.870   2.392  14.201 -0.2779  0.0235 -0.0631
17496W        W32965   5.359   0.830   5.759 -0.2742 -0.1717 -0.1061
17497W        W32966   2.480  11.695   0.598 -0.3564 -0.0851  0.0150
17498W        W32967   5.591  11.241   1.656  0.1613  0.0294  0.1290
17499W        W32968  14.354   3.918   0.382  0.2760 -0.3221  0.1563
17500W        W32969  11.375   9.634   2.376  0.0830 -0.0299  0.0056
17501W        W32970   4.803   8.980   2.201  0.3193 -0.0426  0.2655
17502W        W32971  16.656   2.788  12.050  0.1976 -0.3048  0.0362
17503W        W32972  18.438  11.741  12.743 -0.0057 -0.1224 -0.1775
17504W        W32973   3.296  17.687  15.417  0.0249 -0.4102  0.0990
17505W        W32974  11.571   4.455  13.001 -0.1998  0.1863 -0.0034
17506W        W32975   5.634   3.100   4.652 -0.1930 -0.0092 -0.3737
17507W        W32976  16.576  17.112  12.954 -0.0688 -0.0200 -0.2275
17508W        W32977  12.048  17.258   1.705  0.1535  0.1280  0.0639
17509W        W32978  12.948   6.764  13.814  0.3728 -0.0604 -0.0565
17510W        W32979   4.169  18.046   3.971  0.3826  0.3056 -0.0449
17511W        W32980  11.721  14.656  11.960  0.3255 -0.1630  0.2407
17512W        W32981  12.170  13.072   0.300 -0.1954 -0.0492  0.0847
17513W        W32982   6.900   0.614  11.494  0.2773  0.3745 -0.6162
17514W        W32983  10.640   2.846  12.383  0.0674 -0.0924  0.1054
17515W        W32984   4.284   9.820  13.928 -0.4045 -0.0643 -0.1055
17516W        W32985  18.187  14.504  14.623 -0.0896  0.2089  0.0031
17517W        W32986   4.971   0.498   2.605 -0.0038 -0.0361 -0.2135
17518W        W32987   9.986   7.534   4.708 -0.0307  0.1468 -0.1942
17519W        W32988  12.381  11.676   5.078  0.0746  0.3053 -0.3085
17520W        W32989  16.143  15.069   0.256  0.4082 -0.2818  0.0086
17521W        W32990   0.172   5.001  10.882  0.2470 -0.3058 -0.1002
17522W        W32991   5.480   3.117   3.403 -0.3034  0.2361  0.0516
17523W        W32992   6.927   0.879   0.606 -0.0653 -0.0413  0.3362
17524W        W32993   5.927   3.624  10.022 -0.0534 -0.1326 -0.0288
17525W        W32994  17.799   6.542   2.243 -0.1181  0.0478  0.1256
17526W        W32995   3.575   7.169   1.773 -0.1714 -0.0096  0.2030
17527W        W32996   2.211  16.548   3.568  0.0340 -0.0419 -0.1141
17528W        W32997  12.259   9.608  14.753  0.0448 -0.0466  0.1579
17529W        W32998  18.720  11.335   0.411  0.0998 -0.2424  0.3733
17530W        W32999  13.568   5.940   0.274 -0.1281  0.1106  0.0243
17531W        W33000  14.069   0.599  15.140  0.1747 -0.4422  0.1619
17532W        W33001   0.375   9.731   3.509  0.0771  0.3542  0.1393
17533W        W33002  11.486  15.228  15.656  0.1832  0.3922 -0.3432
17534W        W33003   9.334  10.153  14.287  0.2616 -0.1246  0.2051
17535W        W33004   1.667  16.601  11.208  0.3549 -0.1674  0.2981
17536W        W33005  10.045  10.511  12.745 -0.0420 -0.1842 -0.0374
17537W        W33006  18.237  13.810  12.263  0.1798 -0.0720  0.2909
17538W        W33007  10.883  18.618   1.147  0.0006 -0.1636  0.3624
17539W        W33008  13.201  15.634   2.488  0.2568 -0.0861 -0.1321
17540W        W33009   5.949  16.657   1.998 -0.0880 -0.1661 -0.0727
17541W        W33010  10.717   9.830  12.431 -0.2987  0.1501  0.4072
17542W        W33011  14.617  16.983  10.214 -0.0572  0.2307 -0.0279
17543W        W33012   0.627   5.584  11.234 -0.4357  0.0755  0.0421
17544W        W33013   9.582   8.759  13.307 -0.0487  0.5165  0.3150
17545W        W33014  16.869   5.831   0.314 -0.0733 -0.1922 -0.0643
17546W        W33015   0.220   2.219   4.870 -0.0986  0.0255 -0.3081
17547W        W33016  12.768  16.535  11.381 -0.0421  0.1494 -0.0175
17548W        W33017   2.195  13.145  13.705  0.2697  0.4125 -0.0302
17549W        W33018  10.415   8.417   5.170 -0.0216 -0.0811 -0.0200
17550W        W33019   9.149   2.942   1.633  0.0824 -0.0993 -0.0932
17551W        W33020   9.872  15.777   3.819 -0.3942  0.1851  0.0414
17552W        W33021   9.318   4.921   1.646 -0.1823  0.2955  0.1525
17553W        W33022   6.559  17.580   5.324  0.2121 -0.1608 -0.1272
17554W        W33023   9.878   9.944  11.424 -0.2982  0.0301  0.1182
17555W        W33024   7.436  11.303   2.990  0.0824 -0.2390  0.3590
17556W        W33025  15.279   9.897   2.301  0.2680 -0.0572 -0.2315
17557W        W33026  18.756  14.673  12.363  0.0271 -0.0797 -0.0593
17558W        W33027  13.691   6.925  14.410 -0.0027  0.1819 -0.1397
17559W        W33028   3.077   8.959   3.535  0.2830  0.1361 -0.2515
17560W        W33029  11.998   5.070  14.262  0.0213 -0.1524  0.1186
17561W        W33030   6.425   0.360  14.451  0.2197 -0.0783 -0.0997
17562W        W33031  12.683  14.935  10.775 -0.0730  0.0577 -0.2461
17563W        W33032  14.596  16.241   3.896 -0.2197 -0.2333 -0.0570
17564W        W33033   6.514   6.833   0.453 -0.0449  0.2126  0.1951
17565W        W33034  14.265   0.079   1.170 -0.2785 -0.1039  0.0374
17566W        W33035  10.837  13.075   0.612 -0.0507 -0.1198 -0.1456
17567W        W33036   8.191   0.538  15.581  0.1554 -0.0410  0.2324
17568W        W33037   0.460   5.900   1.807 -0.0055  0.2123 -0.0328
17569W        W33038   2.232   5.891  13.415  0.1137 -0.4594 -0.2033
17570W        W33039   2.279  14.276  12.918 -0.5722  0.0342  0.3958
17571W        W33040  17.856   6.073  12.261 -0.3994 -0.3853 -0.1488
17572W        W33041  16.540  12.792   2.716  0.1842 -0.0010  0.1220
17573W        W33042   9.251  11.717   4.587 -0.2369 -0.1771  0.3501
17574W        W33043  10.597  10.431   1.397  0.1307  0.0160  0.1919
17575W        W33044  10.833  18.043   3.614 -0.1738 -0.1135  0.1395
17576W        W33045   2.728  16.190   4.609 -0.0966  0.0756  0.0485
17577W        W33046  14.368   1.523   0.555 -0.1187 -0.1271 -0.1000
17578W        W33047   3.185   1.809   2.173  0.1781  0.0415 -0.1427
17579W        W33048  15.889  11.589   4.895 -0.1970 -0.2461 -0.0631
17580W        W33049  13.873   8.577  12.164  0.1362 -0.1363  0.0090
17581W        W33050   9.090  15.126   1.755  0.0910  0.0156 -0.1484
17582W        W33051  17.856  10.108  12.691  0.2776 -0.2674 -0.1494
17583W        W33052   9.635  10.604  12.507  0.0896 -0.0925  0.1919
17584W        W33053   7.324   2.578  13.901 -0.1991  0.0425  0.1871
17585W        W33054   8.649  15.638   0.950 -0.0683 -0.0604  0.2332
17586W        W33055   0.244  16.770   1.403 -0.4232  0.1974  0.2180
17587W        W33056  16.862  18.616  15.559 -0.0013 -0.1151  0.0125
17588W        W33057  18.587  10.456  11.200 -0.0742  0.1386  0.1724
17589W        W33058   1.115   6.966   3.317 -0.3823 -0.0278 -0.1031
17590W        W33059   4.538  18.182   6.110 -0.3278  0.2509  0.1136
17591W        W33060   9.983  17.184   2.153 -0.1936 -0.6981  0.2825
17592W        W33061  16.962   0.989  11.814  0.1470 -0.0427 -0.0636
17593W        W33062   8.876  12.676  14.235  0.2547 -0.2363 -0.1607
17594W        W33063   1.568  17.550  11.510 -0.1177 -0.3243  0.1153
17595W        W33064   6.777   9.304   4.300 -0.0288 -0.0670 -0.4170
17596W        W33065   2.838  16.160   1.751  0.1011  0.1591  0.0707
17597W        W33066   7.375   7.797  11.515 -0.3486 -0.1416  0.0889
17598W        W33067  11.221  15.594  15.091 -0.0121  0.2226  0.0311
17599W        W33068   6.074  17.462   1.738  0.0885 -0.0043  0.0046
17600W        W33069  15.045  14.549  15.253 -0.0917 -0.0946 -0.0942
17601W        W33070  15.015  18.107  10.594 -0.1048 -0.0834  0.1517
17602W        W33071  10.803  17.207  12.434  0.1287 -0.0013 -0.0268
17603W        W33072  12.954   6.534   2.213 -0.3902  0.2147  0.1683
17604W        W33073   2.419  16.272   1.957  0.2984  0.3481  0.0582
17605W        W33074   7.818  18.262  14.664  0.0750 -0.2529 -0.1347
17606W        W33075  13.219   0.300  12.231  0.2114  0.5490  0.0650
17607W        W33076  16.167  13.730   5.847  0.0187  0.2051  0.0791
17608W        W33077  11.429  18.185   2.811 -0.0217 -0.0118  0.1633
17609W        W33078   1.659  12.257   2.989 -0.1771  0.1153 -0.0453
17610W        W33079  16.641   1.002   1.928  0.1978  0.1605 -0.0191
17611W        W33080   6.863  14.607  11.295  0.3655 -0.3577 -0.2962
17612W        W33081   5.432   8.429  15.399 -0.4608  0.5664  0.0522
17613W        W33082   5.725  17.127  12.165 -0.2389 -0.2513 -0.1762
17614W        W33083   2.584   7.094   0.260 -0.3336 -0.1821  0.2714
17615W        W33084  17.732   3.872  12.521 -0.0408 -0.1268  0.0417
17616W        W33085   4.077   1.344  15.262  0.1412  0.0975 -0.1179
17617W        W33086   5.369   5.445  12.256 -0.0955 -0.0835  0.1075
17618W        W33087   3.338   0.917   4.376 -0.0862  0.1868 -0.1047
17619W        W33088   5.483   6.884   0.274  0.2969 -0.2100 -0.1724
17620W        W33089  12.937  10.291   5.802 -0.0087 -0.1439  0.0208
17621W        W33090  13.940   2.586  12.365 -0.0846 -0.0315  0.4335
17622W        W33091  11.793  16.862  11.166 -0.0108 -0.5226  0.1421
17623W        W33092  15.971   6.122   5.141  0.1462 -0.1972  0.0875
17624W        W33093  11.675  15.019  12.912 -0.1465  0.1397  0.3527
17625W        W33094   4.870   1.363   0.820 -0.0474 -0.2452 -0.1109
17626W        W33095  18.685  15.088   4.120  0.2476  0.0884 -0.2258
17627W        W33096  11.808   6.110   3.744  0.0425 -0.1599  0.0005
17628W        W33097  11.890  17.338   0.054  0.1190 -0.2203 -0.0437
17629W        W33098   3.537  12.062   4.718  0.4292  0.0423  0.1977
17630W        W33099   0.099   0.887   4.328  0.1449 -0.1089 -0.3024
17631W        W33100   9.671  14.294   3.514  0.0592  0.0501  0.2588
17632W        W33101   3.842   6.746  15.186 -0.0453  0.3258  0.2103
17633W        W33102  17.660   7.414  11.479 -0.0837 -0.3387 -0.1360
17634W        W33103   3.381  17.204  11.694  0.4629  0.1444 -0.1116
17635W        W33104   2.533   4.113  15.049 -0.0689  0.0165 -0.2352
17636W        W33105   1.142  10.569   0.226 -0.1132  0.2630 -0.1271
17637W        W33106  13.539  12.517   3.588  0.1266  0.1134 -0.1222
17638W        W33107   8.393  15.823  12.212 -0.0302  0.1047 -0.0139
17639W        W33108   0.233   4.340  12.919  0.1695  0.0796 -0.2726
17640W        W33109   5.669   7.519  11.165 -0.0365 -0.2339  0.2066
17641W        W33110  18.328   1.090  14.452  0.1006 -0.1302  0.2998
17642W        W33111   1.148   9.947   4.257  0.1947 -0.1857  0.1432
17643W        W33112   4.940  12.588  12.720 -0.3562 -0.0965 -0.1940
17644W        W33113  13.472   5.459  12.429 -0.1546  0.0240  0.0409
17645W        W33114   7.037  17.103  14.106 -0.5546  0.0583  0.1478
17646W        W33115   3.843   0.416  11.916  0.0398 -0.0249 -0.2185
17647W        W33116   5.209  12.592  13.906 -0.0428 -0.1669  0.0555
17648W        W33117  10.916   3.219   4.433  0.0603  0.0343 -0.0657
17649W        W33118  17.092  17.080   3.464 -0.0197 -0.2734 -0.1623
17650W        W33119   1.795   3.172   4.617 -0.0775 -0.2655 -0.1014
17651W        W33120  14.482   6.527   1.258 -0.0191  0.2172 -0.2938
17652W        W33121  10.437  16.612   4.383  0.0396  0.0582 -0.0449
17653W        W33122   2.561  17.742   3.862  0.1477 -0.1317 -0.4102
17654W        W33123  12.427   1.862   2.286 -0.1787  0.3309  0.0265
17655W        W33124  15.524  16.280  15.672 -0.1234  0.0815 -0.0050
17656W        W33125  17.988   0.125   0.628  0.2069  0.1275  0.0811
17657W        W33126   3.387   6.258   2.954 -0.2003  0.1874 -0.3096
17658W        W33127   2.476  15.033   6.171  0.0857  0.1216 -0.0968
17659W        W33128   3.121   3.234   3.425 -0.0329  0.0307 -0.1790
17660W        W33129   3.494   0.562  11.447  0.2048 -0.1662  0.3067
17661W        W33130  13.317   2.799  14.781  0.0327  0.0158  0.1481
17662W        W33131  18.464   3.580   3.341  0.3874  0.1491 -0.1911
17663W        W33132  18.695  10.787   3.773 -0.0645 -0.0841  0.2042
17664W        W33133  10.641   8.697  14.028 -0.0215  0.2309 -0.3121
17665W        W33134  16.685  16.397   5.299  0.1401  0.0452 -0.1174
17666W        W33135  13.612   3.992  15.226  0.1040  0.0983 -0.0233
17667W        W33136  14.159   0.423   0.308  0.0676  0.2652  0.1755
17668W        W33137   3.841  11.449   1.192  0.2400 -0.2989  0.1489
17669W        W33138   1.810  15.225   0.380 -0.5644  0.0481 -0.0395
17670W        W33139  17.700  10.578  15.156  0.0911  0.1559  0.1473
17671W        W33140  11.591   3.492  13.176  0.1389  0.0196 -0.0531
17672W        W33141  14.724   3.100   1.761 -0.0025 -0.1512 -0.0296
17673W        W33142   3.589  11.700  15.227 -0.3263 -0.4906 -0.0172
17674W        W33143  10.511  16.092  11.369  0.3518  0.2530  0.1399
17675W        W33144  14.466   5.210  12.265  0.3095  0.1365  0.0553
17676W        W33145   1.341   5.928   2.640 -0.2043 -0.2297 -0.0174
17677W        W33146  12.668   9.213   5.596 -0.0883 -0.0031  0.2187
17678W        W33147   5.413  12.581   3.893 -0.0217 -0.0005 -0.2673
17679W        W33148   0.541   6.212   3.191 -0.1140  0.1261  0.1005
17680W        W33149   0.627  15.997   4.310 -0.2060 -0.3090  0.2057
17681W        W33150   9.557  14.973  13.273  0.1082  0.1324 -0.4609
17682W        W33151  12.097   1.057   3.184  0.1226 -0.0625  0.1470
17683W        W33152   5.934   9.760   4.671 -0.1491 -0.2853 -0.6692
17684W        W33153   1.024  16.208   5.277  0.2166 -0.0934 -0.0851
17685W        W33154   7.828  13.611   3.767 -0.3308 -0.0428  0.2698
17686W        W33155  18.275   4.902  11.464 -0.1800  0.2986 -0.1300
17687W        W33156  14.866   1.600   5.675 -0.4601  0.3898 -0.3830
17688W        W33157   4.859  10.398   3.802  0.1265 -0.3204  0.0383
17689W        W33158  14.922   6.582  11.147  0.1915  0.1116 -0.2348
17690W        W33159  11.020   3.545   3.396 -0.2080 -0.2370  0.1551
17691W        W33160  12.919   2.245   4.903 -0.1784 -0.1983  0.1715
17692W        W33161  11.496   3.736   3.178 -0.3466 -0.3547 -0.1651
17693W        W33162   1.901  13.209   0.442  0.3489  0.0130  0.0984
17694W        W33163  15.401   6.795  13.348  0.0099  0.1021  0.2036
17695W        W33164  10.610  17.367   0.364 -0.0736 -0.2014  0.3666
17696W        W33165  15.889   6.092   3.208  0.1899 -0.1669  0.0959
17697W        W33166   5.601  10.429  11.134  0.1816  0.1342  0.1583
17698W        W33167   8.974  11.635  13.741 -0.1976 -0.2345  0.0233
17699W        W33168  13.246   5.826   5.183 -0.0036  0.2412 -0.1222
17700W        W33169   7.147   7.148   3.153 -0.2989  0.1167  0.0431
17701W        W33170   6.260  18.335   2.777 -0.1444  0.0701 -0.0666
17702W        W33171  10.656   2.954  12.847 -0.3599 -0.3106 -0.0208
17703W        W33172   8.697  10.977  13.509  0.1013 -0.1479 -0.0782
17704W        W33173   2.704  12.669   1.502 -0.2365  0.1230 -0.0721
17705W        W33174  12.379   8.089  14.977  0.1662 -0.0581 -0.0400
17706W        W33175  12.798  16.367   1.265  0.4080 -0.1435  0.0212
17707W        W33176   6.374  16.595  12.637  0.2169 -0.0005  0.1244
17708W        W33177  13.911  12.475   0.191  0.0849  0.3498 -0.0134
17709W        W33178   7.081  17.491  15.389  0.2051 -0.0381  0.1596
17710W        W33179   6.408  14.596  13.476 -0.2817 -0.3774 -0.1533
17711W        W33180   9.226   1.620  12.044 -0.0669 -0.2449  0.0707
17712W        W33181  11.658  14.476   1.478 -0.0471 -0.1201  0.0173
17713W        W33182  12.256  16.646   9.717 -0.1047 -0.0693  0.1632
17714W        W33183  17.006   9.782  13.274 -0.3032 -0.2406  0.0736
17715W        W33184   5.829   5.304  11.792 -0.1565 -0.0114 -0.1104
17716W        W33185  17.953   9.111   2.045 -0.0460  0.0786 -0.1552
17717W        W33186   4.228  11.226   0.976  0.1294  0.1102  0.3161
17718W        W33187  14.420   9.301  11.314  0.0063  0.1069 -0.0722
17719W        W33188   2.684  17.926  11.542 -0.1525  0.1255  0.2295
17720W        W33189   3.543   1.999   3.863 -0.0742  0.1782 -0.2118
17721W        W33190   2.824  14.234   4.866 -0.0607 -0.2444  0.1554
17722W        W33191   9.168   4.921   5.443 -0.0593  0.3799  0.2280
17723W        W33192   6.009   2.305  12.424  0.0941 -0.0819 -0.2976
17724W        W33193   2.773  17.582   2.003 -0.4501 -0.6460 -0.3274
17725W        W33194  18.436   8.188  14.030 -0.0676 -0.2678 -0.1935
17726W        W33195   8.435  17.196  15.322 -0.3291  0.0602 -0.3232
17727W        W33196  14.331   1.253   5.107  0.2000  0.0922  0.0496
17728W        W33197   8.293   9.120  14.983  0.2139 -0.2736  0.0064
17729W        W33198  16.354   9.545  12.616  0.1151  0.1206 -0.1135
17730W        W33199   4.145   4.842   2.669  0.1520  0.0545 -0.0967
17731W        W33200  12.351  13.530  11.718  0.2458  0.2588 -0.0561
17732W        W33201  15.781  13.988  12.558 -0.0453 -0.0216  0.2776
17733W        W33202   4.732   2.684   2.148 -0.1532  0.1524 -0.0551
17734W        W33203   0.816   1.349  15.497 -0.1635  0.1040  0.0012
17735W        W33204   2.339  13.680  10.301  0.1953 -0.1814  0.1918
17736W        W33205   1.219   4.709   4.912 -0.2556  0.1722 -0.3944
17737W        W33206  12.211   8.282  11.751  0.5074 -0.1012 -0.4414
17738W        W33207  12.772   3.524   3.770  0.1860 -0.2952  0.2741
17739W        W33208  17.553   2.256   2.845 -0.4207 -0.0988 -0.0690
17740W        W33209   3.755  15.770  11.857 -0.0135 -0.0533 -0.0899
17741W        W33210   1.813  13.211  10.736  0.1706  0.0877 -0.0133
17742W        W33211  16.714   3.790  11.206 -0.3359  0.1654 -0.1935
17743W        W33212   5.587  10.950  11.166  0.1475 -0.0066  0.2576
17744W        W33213  14.357  15.041   2.962  0.0858  0.2881  0.1096
17745W        W33214   7.932   7.581   1.593 -0.3378  0.1002  0.2235
17746W        W33215   3.389  17.236  15.473  0.2827  0.0485  0.1322
17747W        W33216   1.890   4.023   3.451  0.0229 -0.3097 -0.4321
17748W        W33217  14.695   0.291  13.895 -0.0135  0.0475  0.1187
17749W        W33218  13.338   0.157  12.728  0.0319  0.0025  0.0031
17750W        W33219  15.679   7.827  12.989  0.0204  0.4833 -0.0730
17751W        W33220  14.141  13.667  14.658  0.4979 -0.0413 -0.1817
17752W        W33221  11.890  11.038   5.875 -0.0655  0.0740 -0.4696
17753W        W33222  13.301  17.856   0.994 -0.2195 -0.2998  0.3948
17754W        W33223   6.338  15.779  15.113 -0.0038  0.2481  0.0370
17755W        W33224   0.325   8.585  14.088 -0.0616  0.0825 -0.0729
17756W        W33225   2.775   4.481   1.655 -0.1918  0.0107  0.0785
17757W        W33226  12.972   3.422   2.332 -0.1156  0.1851  0.0517
17758W        W33227   8.180   2.895   4.664 -0.2953 -0.1996 -0.0057
17759W        W33228   7.106  18.336  14.434 -0.0730  0.2658  0.1249
17760W        W33229  13.555   1.721  14.048 -0.0099  0.1500 -0.0645
17761W        W33230  15.594   2.447  14.817 -0.3340 -0.3777 -0.1310
17762W        W33231   1.582   7.402  14.821  0.0735  0.3331  0.3702
17763W        W33232   1.205  10.813   6.339  0.2515 -0.2011 -0.3756
17764W        W33233   3.042   3.948   9.697 -0.1443  0.0619 -0.0679
17765W        W33234   5.678   2.543   5.013  0.0057  0.1932 -0.0527
17766W        W33235  15.553  14.859  12.709 -0.0370 -0.2723  0.1590
17767W        W33236   7.104   5.328  15.363 -0.0317  0.0047 -0.0990
17768W        W33237   8.978  14.891  14.694 -0.1015 -0.0662 -0.0656
17769W        W33238   1.068   2.868  12.121  0.3533 -0.0048 -0.0034
17770W        W33239   2.002  17.554  14.396  0.4207 -0.0603  0.3842
17771W        W33240   9.306  14.784  12.843  0.3156 -0.0586 -0.2673
17772W        W33241   8.829  15.840   0.463  0.0563 -0.2272  0.2104
17773W        W33242   2.314  15.094   1.431 -0.0660 -0.0392  0.1122
17774W        W33243  15.224   3.306   0.363  0.0751 -0.0317 -0.1973
17775W        W33244  13.952  15.556  13.757 -0.1845  0.1405 -0.1298
17776W        W33245   7.700   4.827  10.949 -0.2390 -0.0770  0.2886
17777W        W33246  15.480  12.506   3.984 -0.1110 -0.0124 -0.1405
17778W        W33247  13.801   7.177   0.781 -0.0773 -0.3679  0.1236
17779W        W33248   1.542  17.282  12.141  0.1353  0.0404 -0.0205
17780W        W33249   5.553  12.746   4.955 -0.0541 -0.0073 -0.0385
17781W        W33250  12.355   3.386   3.455 -0.1829 -0.2844  0.1188
17782W        W33251   5.694   1.164   2.455 -0.0468  0.0770  0.2472
17783W        W33252  11.764  17.404   5.164  0.2802  0.1685 -0.2091
17784W        W33253   2.705   9.594  14.771 -0.0229 -0.1792 -0.0775
17785W        W33254   0.835   7.263   0.407  0.1513 -0.1522 -0.2833
17786W        W33255  18.373   7.455   1.858  0.1344 -0.1270  0.0523
17787W        W33256  13.371   3.360   1.978 -0.0331 -0.2854  0.0517
17788W        W33257   2.335  10.711   4.648  0.2639 -0.2101 -0.0905
17789W        W33258   2.819   9.073  14.946 -0.2381  0.0840 -0.4680
17790W        W33259   6.240  17.776  14.410 -0.0225 -0.0802  0.2540
17791W        W33260  15.956   9.863  13.797 -0.0824 -0.0525  0.5733
17792W        W33261   3.250  11.857   4.073 -0.2035  0.0288 -0.0511
17793W        W33262  17.790  17.105  11.017 -0.1182  0.1636  0.1073
17794W        W33263  12.278  11.388  12.342 -0.1131  0.0119 -0.0202
17795W        W33264  17.519  14.999   3.378 -0.2559  0.0392 -0.0816
17796W        W33265  17.468   8.005  14.122 -0.0607 -0.2275 -0.3007
17797W        W33266  12.697  11.588   1.393  0.0968 -0.1697 -0.2170
17798W        W33267   7.355   3.559   0.012  0.1042 -0.2942  0.0406
17799W        W33268   4.690   6.362  15.472 -0.0065  0.0172 -0.3536
17800W        W33269   3.289   3.032  13.508 -0.0118  0.0419 -0.4338
17801W        W33270  10.665  13.762   0.292 -0.2633  0.2310  0.0865
17802W        W33271   8.398  12.171  12.718 -0.0269  0.0288 -0.3379
17803W        W33272   7.868  17.340  12.108 -0.1568 -0.0674 -0.1445
17804W        W33273   9.778  10.216   4.635  0.2216  0.0722  0.0003
17805W        W33274   3.571   3.018   2.031  0.1152  0.0634 -0.2240
17806W        W33275   8.585   3.532  11.706  0.0237 -0.0939 -0.1325
17807W        W33276  12.510   2.398   2.309  0.2386 -0.1027 -0.2255
17808W        W33277   8.252  15.611  12.711  0.1334  0.0277  0.2426
17809W        W33278  15.079   5.003   5.476  0.1956  0.0674  0.2430
17810W        W33279  10.904   0.645   5.263  0.1945  0.0997  0.0376
17811W        W33280  18.738   2.027  15.336 -0.0645 -0.0721  0.0211
17812W        W33281   7.882  12.476  14.532  0.2785 -0.1959  0.0176
17813W        W33282   1.757   2.340  12.830 -0.1427 -0.1861 -0.2118
17814W        W33283  16.023   8.150   0.211  0.1462  0.0202  0.1194
17815W        W33284   0.156   1.597  12.546 -0.0805 -0.3918  0.0169
17816W        W33285  16.157   3.303  14.535 -0.1797 -0.2415  0.0834
17817W        W33286  13.824   2.684   3.016 -0.1156 -0.2688  0.0087
17818W        W33287   1.433  13.521   4.644  0.0267  0.0735  0.0686
17819W        W33288  13.906  14.982   0.033  0.0890  0.2113 -0.0768
17820W        W33289   9.142  15.880  13.836  0.2418 -0.1254 -0.0230
17821W        W33290  14.438   1.076   0.841  0.1558  0.0294  0.2382
17822W        W33291  10.878  10.512  12.979  0.1079 -0.2208 -0.1495
17823W        W33292   8.825  16.573  12.063 -0.0438 -0.1258  0.3615
17824W        W33293   5.215   4.715   4.806  0.0175 -0.0468 -0.1343
17825W        W33294  17.158  15.937   3.768 -0.0422  0.1978 -0.3177
17826W        W33295   8.228  17.571  13.609  0.4221  0.2164  0.0145
17827W        W33296   6.017  11.796  10.145  0.0103  0.3681  0.0617
17828W        W33297   8.537   1.262  13.967 -0.2578 -0.2213  0.2346
17829W        W33298  14.342   0.487   3.351 -0.0806 -0.1409 -0.2087
17830W        W33299  13.350  16.256  14.677 -0.0211  0.1848  0.0974
17831W        W33300   9.627   3.993   0.241  0.1595 -0.1295  0.0511
17832W        W33301  12.409   0.273   4.112  0.2784  0.1620  0.0895
17833W        W33302  14.850  16.276   2.255 -0.0298  0.1011 -0.0019
17834W        W33303   9.707   1.196  15.445  0.2084  0.1218 -0.3140
17835W        W33304   5.803   0.151   0.011 -0.0462  0.1961  0.2329
17836W        W33305   5.803   2.628  15.061 -0.0773 -0.2777 -0.0583
17837W        W33306  18.382  12.537  13.637 -0.2181  0.3089 -0.2743
17838W        W33307   5.443   8.409   4.162  0.3964 -0.0192  0.3437
17839W        W33308   2.638  15.625  14.715 -0.3116  0.2658  0.0807
17840W        W33309  18.378   9.125  12.385  0.0601  0.0429 -0.0077
17841W        W33310   8.931  14.228  12.019  0.2612  0.1191  0.0640
17842W        W33311  10.677  15.443   5.298 -0.3008 -0.0819 -0.1778
17843W        W33312  18.320  14.931   0.782 -0.3374  0.1363  0.2369
17844W        W33313   5.416  11.234   3.066  0.0030 -0.0932 -0.3031
17845W        W33314  17.698  10.186   5.107 -0.0968  0.0513  0.0883
17846W        W33315  11.591   7.610   2.909 -0.0870 -0.0262 -0.1547
17847W        W33316   7.459  12.385  11.622  0.1731  0.0290 -0.1189
17848W        W33317   1.824   1.846   2.956 -0.1103 -0.0072  0.0519
17849W        W33318   3.379  16.003  13.256  0.3662  0.0076 -0.0556
17850W        W33319   3.493   3.449  13.612 -0.1210 -0.2810 -0.1109
17851W        W33320  15.592   8.089  10.524  0.1563  0.1377  0.1176
17852W        W33321   7.657   3.817   3.167 -0.0543  0.3809 -0.1661
17853W        W33322  12.472   8.121   2.800 -0.2285 -0.0287  0.0790
17854W        W33323   6.606  16.106  13.360  0.0532  0.0933 -0.1867
17855W        W33324   5.823  16.085  11.352  0.0251 -0.3005  0.3307
17856W        W33325  13.421   1.258  15.178 -0.1213  0.3404 -0.0213
17857W        W33326  10.725  16.533  13.051  0.0994  0.1501 -0.0255
17858W        W33327   0.433   9.033   1.932 -0.1572  0.0513  0.3056
17859W        W33328   2.633  13.787   4.023 -0.1094 -0.1063  0.0563
17860W        W33329  16.835   5.389   3.715 -0.1023  0.2336 -0.2532
17861W        W33330  18.685   1.568   9.956  0.2526 -0.3085 -0.0828
17862W        W33331   8.265   5.600  12.044  0.0478 -0.0919 -0.0075
17863W        W33332   8.934   4.507   4.298  0.0376 -0.2822 -0.1377
17864W        W33333  11.338   2.039   2.945 -0.0331  0.3725  0.0384
17865W        W33334   1.344   5.731  14.037 -0.0314  0.1397 -0.2695
17866W        W33335   2.510  11.539   4.394 -0.2002  0.0299 -0.1619
17867W        W33336  17.309  13.887   5.388  0.0216  0.1107 -0.1462
17868W        W33337   4.272   0.164  11.716 -0.0307  0.5212 -0.1973
17869W        W33338   5.092   4.305   2.886 -0.1654  0.3901 -0.0608
17870W        W33339  14.004  18.732  15.338 -0.0187  0.4067 -0.0834
17871W        W33340  17.004   9.710   2.411 -0.1889 -0.1790 -0.0524
17872W        W33341  16.640   2.664   2.969 -0.3219 -0.0377 -0.0460
17873W        W33342  11.139   5.923  15.250  0.0260  0.0997  0.1174
17874W        W33343   1.555   6.489   3.442 -0.0583  0.2582  0.2521
17875W        W33344  14.035  14.512   0.878 -0.1568 -0.2849 -0.1854
17876W        W33345  17.788   4.190  14.156  0.0638  0.3009  0.2648
17877W        W33346   5.136  14.133  13.735  0.0477  0.3460 -0.0124
17878W        W33347   4.776   6.585   1.278  0.0660 -0.3444 -0.0440
17879W        W33348  10.986   2.814  15.106  0.2280 -0.0720  0.0478
17880W        W33349  17.138   8.609  10.958  0.2106 -0.3395  0.0639
17881W        W33350   5.882  12.805  13.949 -0.2005 -0.2471 -0.2172
17882W        W33351   1.684   4.426  12.437  0.0886  0.0288  0.1629
17883W        W33352  17.017   0.369  14.000  0.0502  0.3247 -0.2403
17884W        W33353   9.794   9.450   0.978  0.0656 -0.0722 -0.1666
17885W        W33354   5.741   9.209   4.731 -0.1226  0.2989  0.1078
17886W        W33355   8.319   9.633  15.054 -0.1070 -0.0860 -0.0775
17887W        W33356   4.629   1.935   5.833  0.3736  0.1043 -0.0346
17888W        W33357   8.390   1.321  13.021 -0.3542 -0.0783  0.0308
17889W        W33358  11.255   4.875   1.985  0.0123 -0.1036 -0.0677
17890W        W33359   7.295   7.180  10.674  0.2099 -0.1895  0.1169
17891W        W33360  18.093  13.045  15.668 -0.2923 -0.0515  0.1755
17892W        W33361  10.333   9.167  12.738 -0.1081 -0.3349 -0.1924
17893W        W33362  12.081   6.714  13.650 -0.0709  0.0934  0.0901
17894W        W33363  16.299   8.900   5.091  0.1865  0.0334 -0.0953
17895W        W33364   7.398  10.782   4.955  0.0468 -0.2092 -0.1383
17896W        W33365  18.775   6.951   1.390  0.2379  0.1537  0.3960
17897W        W33366   7.564   3.216  14.506  0.0013  0.3073  0.0632
17898W        W33367  17.295  11.423  11.431 -0.2443 -0.1022  0.1929
17899W        W33368  13.570  18.000   2.432 -0.0790 -0.1190  0.0689
17900W        W33369   5.128  17.893   4.115 -0.1865 -0.0292  0.1679
17901W        W33370  16.746  12.677  14.339  0.0334  0.1441 -0.1541
17902W        W33371  17.895   2.255   3.991 -0.1776 -0.1708  0.3021
17903W        W33372   3.391  13.666  14.922  0.1413 -0.0739 -0.1315
17904W        W33373   5.771   2.989  12.629 -0.0257  0.3325  0.2746
17905W        W33374  11.646  12.723   2.673 -0.0243 -0.1887  0.0216
17906W        W33375  12.701  13.842  11.442  0.0751 -0.0506 -0.1022
17907W        W33376   6.842  10.730  10.703 -0.1983  0.1715 -0.3587
17908W        W33377   6.330  11.506   0.911 -0.0006  0.2494  0.1587
17909W        W33378  10.880   2.634  14.222  0.2178 -0.0172  0.0583
17910W        W33379   1.780   4.956   4.906  0.1729  0.0955  0.1496
17911W        W33380  10.275   8.874   2.659  0.0000  0.1655  0.2992
17912W        W33381   2.818   6.166  15.257  0.1196  0.0975  0.2708
17913W        W33382   5.115   8.414  14.937 -0.0745 -0.0099  0.1966
17914W        W33383  17.724   6.066   1.149  0.0752 -0.0754  0.1216
17915W        W33384   6.303  10.154  10.778 -0.0658  0.3805 -0.0940
17916W        W33385  18.166  16.134   3.225 -0.0759  0.2157  0.0420
17917W        W33386  12.614   5.483  14.203 -0.0000  0.2077 -0.2098
17918W        W33387   2.058  11.414   0.682  0.2324 -0.1853 -0.1594
17919W        W33388  18.571   9.540  13.536 -0.1979  0.2048 -0.3282
17920W        W33389  17.519  11.262  14.765  0.1189 -0.0695 -0.1744
17921W        W33390  16.326   9.625  12.083  0.2343 -0.1836  0.2223
17922W        W33391   8.207  17.296   1.509  0.2558  0.2291  0.0616
17923W        W33392  16.543  10.758  15.348 -0.1334 -0.2152 -0.1757
17924W        W33393   6.160   0.129   1.741 -0.2585 -0.0496 -0.0224
17925W        W33394  18.236  14.502   5.566 -0.4284 -0.0590  0.3484
17926W        W33395   1.410  12.406   9.834  0.0917  0.1311  0.2373
17927W        W33396   2.990  16.212  11.489  0.0990 -0.0642 -0.2833
17928W        W33397  13.022   6.005   0.527 -0.0641 -0.0044  0.0835
17929W        W33398   9.771   7.982   4.043 -0.1619 -0.1040 -0.1366
17930W        W33399   2.803   3.604   2.751 -0.1771  0.1200  0.2247
17931W        W33400   2.636   9.221   3.762  0.2884 -0.0404  0.1104
17932W        W33401   1.928   6.061  10.314  0.0253  0.1053  0.2172
17933W        W33402  13.289  11.219  10.445  0.3695 -0.1295 -0.2555
17934W        W33403  11.943  10.163   4.076  0.1610  0.1880  0.4095
17935W        W33404   3.414   0.406   4.271  0.1101 -0.3048  0.0407
17936W        W33405  10.162   1.847  12.304  0.0638 -0.0488  0.0578
17937W        W33406  16.017   7.837   2.253 -0.1315 -0.0990  0.1951
17938W        W33407  13.575   5.976  14.704 -0.0396  0.2282 -0.0053
17939W        W33408   6.407   8.468  14.892  0.0320 -0.3164 -0.1227
17940W        W33409   4.828   5.169   2.240 -0.0554  0.2044  0.0197
17941W        W33410   9.678   4.374   0.659 -0.1107  0.2765  0.1475
17942W        W33411  17.364  11.879   1.205  0.1096 -0.1437  0.0871
17943W        W33412  10.499  14.470  12.092  0.0041  0.0922 -0.0775
17944W        W33413  17.693   6.032   0.648  0.0254  0.0957 -0.2930
17945W        W33414   2.289  18.439   5.835  0.3350  0.3080 -0.0718
17946W        W33415  12.622   2.393  13.398 -0.1303  0.0622  0.2818
17947W        W33416   4.694   1.370  13.730  0.1944 -0.2216 -0.2350
17948W        W33417  18.743  18.436   0.695 -0.1362  0.3782 -0.1944
17949W        W33418  13.292   2.659   4.806 -0.1061 -0.2981  0.0615
17950W        W33419   0.124   2.015  14.613  0.3200  0.3856  0.1231
17951W        W33420  10.889   0.919  13.854 -0.1465  0.4913 -0.1349
17952W        W33421  17.413   7.502   4.194  0.1283 -0.3615  0.1337
17953W        W33422  11.782   7.873   3.500  0.0950  0.2089 -0.1707
17954W        W33423   0.616   3.766   3.290  0.0381 -0.1076 -0.0061
17955W        W33424   0.690   4.921  10.717 -0.1046 -0.2508 -0.2677
17956W        W33425   0.647  12.778  11.909 -0.0811  0.2213 -0.0741
17957W        W33426   1.059  15.721   3.548  0.0590 -0.1158  0.2449
17958W        W33427  16.355  10.139  14.594  0.1955 -0.0925  0.2696
17959W        W33428   0.022  11.579   1.236  0.0774  0.4249 -0.0351
17960W        W33429   1.621   5.647  14.447 -0.0615  0.1787  0.0167
17961W        W33430   0.492   2.953  12.004  0.1399  0.1721 -0.0690
17962W        W33431   1.723   3.333  10.467 -0.1815  0.0714 -0.2048
17963W        W33432  10.645   3.088   4.952  0.1023  0.3252  0.4898
17964W        W33433   8.800  14.926  12.832 -0.1245  0.1005 -0.3896
17965W        W33434  13.045   2.347  14.496 -0.1137 -0.2265  0.1753
17966W        W33435   0.556  18.133   1.749  0.3627  0.1428  0.1290
17967W        W33436  10.833  11.773  10.931  0.0398  0.0812  0.0460
17968W        W33437  11.827   8.926   2.801 -0.0999  0.0751  0.0368
17969W        W33438  10.830  15.684   3.568  0.1068  0.1488 -0.1913
17970W        W33439   8.096   1.148   1.291 -0.3574  0.0257 -0.0537
17971W        W33440  11.110  18.333  13.023 -0.0590  0.0146  0.1048
17972W        W33441   6.931   6.260   3.336  0.1422  0.2107  0.3051
17973W        W33442   8.079   8.525   4.882 -0.2469 -0.0028 -0.1193
17974W        W33443   4.735  10.252   5.196 -0.0329 -0.3940  0.1925
17975W        W33444  11.209   1.509  13.253 -0.0353 -0.0131  0.1358
17976W        W33445  17.844  14.682   0.728  0.0367  0.0164  0.2758
17977W        W33446   5.357   7.085   3.042  0.1088 -0.0594  0.1845
17978W        W33447  14.522   7.187   5.085  0.0091 -0.0007  0.0499
17979W        W33448  17.981  13.356   2.764  0.1901 -0.0572  0.1526
17980W        W33449   4.554   7.265  15.309 -0.1097  0.3072 -0.2135
17981W        W33450   1.643  14.207   1.345  0.0225 -0.2089 -0.1214
17982W        W33451  18.186   9.314  14.582 -0.1215  0.1929  0.0422
17983W        W33452   1.854  14.178  12.635  0.1129 -0.2228 -0.0930
17984W        W33453  17.702  12.806   0.584  0.2824  0.2161  0.3706
17985W        W33454   8.778   3.908  11.292 -0.0253  0.1605 -0.1357
17986W        W33455  10.437   8.438   2.889 -0.1035 -0.1337 -0.2993
17987W        W33456   9.102  16.320  14.663  0.4097 -0.0901  0.0180
17988W        W33457   9.025   7.044  10.859 -0.0590 -0.0650 -0.2215
17989W        W33458   2.457  13.305  14.181  0.0538 -0.0543 -0.3158
17990W        W33459  15.562   3.603   3.517  0.2354  0.0340  0.0023
17991W        W33460   0.740   6.488  12.030  0.0951  0.0664 -0.2129
17992W        W33461   1.565  11.628  13.308  0.0021  0.1507  0.3253
17993W        W33462   4.837  12.332   2.146 -0.0453  0.1204  0.1925
17994W        W33463  14.718  14.799  14.161 -0.0041 -0.0687  0.3078
17995W        W33464  15.175  13.969   5.253 -0.0966  0.3150 -0.0212
17996W        W33465  17.444   3.274  15.195 -0.2353  0.0772  0.1563
17997W        W33466  11.575   8.521  15.526 -0.1303  0.0557 -0.0044
17998W        W33467   6.491  10.711   2.305  0.4077  0.0136  0.1418
17999W        W33468   1.881  10.926   4.671  0.1305 -0.0411  0.0708
18000W        W33469   1.590   5.263  13.720  0.0133 -0.2144  0.0429
18001W        W33470   7.392  14.620   2.888 -0.2319  0.3619  0.2537
18002W        W33471  14.813  14.301  14.326  0.0318  0.0809 -0.3473
18003W        W33472  12.842  17.818   2.878  0.1096 -0.2758 -0.2173
18004W        W33473   9.765  13.076   3.634  0.1691  0.0462 -0.3482
18005W        W33474  15.713   0.664  12.563  0.0967  0.0560  0.4394
18006W        W33475  11.641   0.362  13.963 -0.3175  0.2242 -0.1809
18007W        W33476  13.672   3.201  12.289 -0.0907 -0.0122  0.1211
18008W        W33477   8.591   7.099  11.874 -0.2022  0.0511  0.3417
18009W        W33478  10.541  15.084   0.308 -0.0248 -0.1384 -0.0334
18010W        W33479   7.219  14.319   3.581  0.2012 -0.1061 -0.0223
18011W        W33480  18.143  14.346   3.930 -0.0962 -0.2559 -0.3403
18012W        W33481   7.743  10.352  11.623  0.2451  0.1223 -0.0252
18013W        W33482  14.425   5.425   4.259 -0.1234  0.1555 -0.0241
18014W        W33483  11.538  16.091  11.264 -0.2262 -0.0731 -0.0140
18015W        W33484   9.896  18.437   1.045 -0.0796  0.1721  0.0869
18016W        W33485   9.303   9.542  14.440 -0.2411  0.0131  0.0134
18017W        W33486   6.728  12.767  13.662  0.2295  0.1047  0.0347
18018W        W33487   2.135   0.220   0.772 -0.2179  0.1458  0.1971
18019W        W33488   6.766  15.774  12.710 -0.2036  0.2537  0.2382
18020W        W33489  12.008  16.065   5.185  0.0621 -0.0553  0.1494
18021W        W33490  17.367  17.349  13.924  0.0828 -0.0222 -0.0644
18022W        W33491  10.703   4.558  10.957 -0.0384  0.4246 -0.1498
18023W        W33492   3.159  15.466   0.875  0.1223 -0.0866 -0.0756
18024W        W33493  13.953  17.625   1.552  0.3714 -0.1436 -0.0057
18025W        W33494   6.233  10.034  13.220  0.0038  0.0022  0.0762
18026W        W33495  16.333   1.632   2.952 -0.1446 -0.1384  0.0947
18027W        W33496   8.577   6.443   4.277 -0.0214 -0.0951 -0.0826
18028W        W33497   3.142   9.302   0.069  0.1268  0.1015 -0.1448
18029W        W33498  12.616   3.782   2.258  0.1670  0.1210 -0.0367
18030W        W33499  16.524   4.839   1.088 -0.3079 -0.2338 -0.0760
18031W        W33500   6.356   3.418   5.688 -0.2569  0.0147 -0.2080
18032W        W33501  10.459   9.657   1.706  0.4436  0.2141  0.0244
18033W        W33502  11.448   3.574   3.658  0.2472  0.0638  0.1584
18034W        W33503  10.905   7.433   3.381  0.4433 -0.1857 -0.1063
18035W        W33504   3.927  13.603  10.813 -0.0181 -0.1355  0.2561
18036W        W33505  14.883   6.710   2.091  0.0199  0.1260 -0.1469
18037W        W33506  15.634  12.161  13.179  0.0039 -0.2438 -0.0357
18038W        W33507  12.915   5.611  10.343  0.1120  0.2383 -0.3438
18039W        W33508  17.091   6.124  14.773 -0.1337 -0.0716 -0.2589
18040W        W33509  15.773  10.143   5.141 -0.1730 -0.3067 -0.1441
18041W        W33510  18.027   8.937   3.965 -0.1717  0.1017  0.1881
18042W        W33511  16.875  17.200  15.047 -0.2819  0.1255 -0.0364
18043W        W33512   0.754   4.182  15.340 -0.0141 -0.0030 -0.1746
18044W        W33513  16.929   1.872   0.939 -0.2214  0.2521 -0.0838
18045W        W33514   6.274  13.014   0.868 -0.0153 -0.1140  0.3298
18046W        W33515   1.921  18.688  11.128 -0.2859 -0.1107  0.1955
18047W        W33516   9.843  18.043   1.312  0.1159 -0.0248  0.1742
18048W        W33517  14.243   3.879   2.544  0.1751 -0.1000  0.1674
18049W        W33518   1.187  11.893  14.083 -0.2384 -0.3721  0.1234
18050W        W33519  15.795   9.106   4.468 -0.1481  0.0643 -0.1209
18051W        W33520   6.967  14.203  15.458 -0.1227 -0.0084  0.4916
18052W        W33521   6.362   7.485  13.777 -0.0710  0.0956 -0.1812
18053W        W33522   7.738  16.928   3.884  0.0902 -0.0513  0.0229
18054W        W33523   9.619   2.561   4.768 -0.1719  0.2101  0.0113
18055W        W33524  13.537   1.133   2.864  0.1303  0.1686 -0.0634
18056W        W33525   2.762  13.770  12.568  0.3327  0.2527 -0.0522
18057W        W33526   9.369   0.226  12.037  0.1151 -0.1247 -0.0129
18058W        W33527  14.351   8.687  11.982  0.2641  0.1083  0.0160
18059W        W33528   1.212   9.301   0.807 -0.2630 -0.1422 -0.2369
18060W        W33529  18.365   8.652  12.734  0.2322 -0.1804 -0.0994
18061W        W33530   8.386  18.570   2.581 -0.0957  0.0178 -0.0389
18062W        W33531   3.126  11.621  14.287 -0.1552 -0.2232  0.4506
18063W        W33532  17.722   8.013   4.532  0.2304  0.0581  0.4127
18064W        W33533  15.182  16.775  14.327  0.0335 -0.0542 -0.0531
18065W        W33534  11.460   9.419   1.414  0.0098 -0.1714  0.1731
18066W        W33535  13.144   6.689  10.875  0.3288  0.2818  0.1610
18067W        W33536   5.245  12.672  15.564  0.0951 -0.2559  0.2096
18068W        W33537   4.209  12.764  13.058  0.2027  0.1177  0.1127
18069W        W33538  15.782   7.951   0.626  0.1187  0.2857  0.1383
18070W        W33539  13.662   0.207   2.157  0.0172  0.2069 -0.0095
18071W        W33540  14.620   1.984  10.648  0.0540 -0.0863 -0.1439
18072W        W33541   5.544   6.994  12.921  0.1184  0.0321  0.1043
18073W        W33542   2.148   9.002  11.997 -0.2487  0.0082 -0.2060
18074W        W33543   1.054  11.509  11.359  0.0320  0.1170 -0.1290
18075W        W33544   8.854   2.251   3.645 -0.2774 -0.0057  0.1546
18076W        W33545   2.350   2.514   1.395  0.1586 -0.4878  0.1778
18077W        W33546   8.576  10.686   5.020 -0.1533 -0.2688  0.1408
18078W        W33547   8.326  15.782   1.381 -0.1490  0.1039 -0.0406
18079W        W33548  18.086   7.273  15.126 -0.2263 -0.3715 -0.1131
18080W        W33549   8.225   6.686  13.880  0.0126  0.1584 -0.0238
18081W        W33550   4.499  12.828  12.613  0.1610  0.1331 -0.1807
18082W        W33551  15.415  12.629   6.081  0.0440  0.0455  0.0221
18083W        W33552  10.596   2.254   2.104 -0.0379 -0.0613 -0.1213
18084W        W33553  16.475   7.900  15.558 -0.3016 -0.2095  0.0891
18085W        W33554  16.213   4.303   3.548 -0.2518  0.0933  0.0015
18086W        W33555  15.333  11.757  11.718 -0.0782 -0.3980  0.3795
18087W        W33556  14.199  15.370   0.356 -0.1173 -0.2530 -0.1450
18088W        W33557  13.472  14.904  11.653  0.0195 -0.0762  0.1674
18089W        W33558  10.218   4.619   5.303 -0.3537  0.4221  0.2346
18090W        W33559   9.580   3.361  14.376 -0.0675  0.3257 -0.0381
18091W        W33560   1.672   3.807   0.124 -0.2222 -0.1867  0.1420
18092W        W33561   4.590   1.798   4.540  0.0843  0.2224  0.2165
18093W        W33562   6.420   7.322   0.239  0.0739  0.1546 -0.0186
18094W        W33563   1.067   7.371   5.349  0.2967 -0.0990 -0.0870
18095W        W33564  10.781  13.236   5.270  0.1409  0.0891 -0.3440
18096W        W33565   4.592   0.977  14.584  0.1438  0.1742 -0.1303
18097W        W33566  17.449   6.195  12.855 -0.0525 -0.1675  0.1033
18098W        W33567  12.656   0.521   1.895  0.4427 -0.0334  0.1601
18099W        W33568   1.177  15.198   3.842 -0.4294  0.2737 -0.1788
18100W        W33569   3.932   6.339   4.391 -0.0474  0.1978  0.2895
18101W        W33570   0.802   6.241  13.331  0.3198  0.3221 -0.0302
18102W        W33571   0.433   2.944  14.368 -0.1196  0.1656  0.1754
18103W        W33572  17.761  18.555   0.997 -0.0246 -0.1412  0.3184
18104W        W33573   4.739   8.385   3.009  0.0801  0.0679  0.1382
18105W        W33574  13.845   0.955   5.230 -0.0553  0.2007  0.1671
18106W        W33575  16.200   9.936   4.308  0.5818  0.0961 -0.1753
18107W        W33576   9.905  12.110   2.848 -0.0950  0.2475  0.1956
18108W        W33577   2.216  12.565  10.552 -0.0287 -0.1748  0.0937
18109W        W33578   0.468  18.101   4.770 -0.3429 -0.1280 -0.1550
18110W        W33579  17.245  16.269   2.756 -0.1538  0.1087  0.1145
18111W        W33580  13.368  16.345  15.178 -0.1625  0.1046  0.1452
18112W        W33581  14.162  15.909  10.914 -0.2437  0.1418 -0.3107
18113W        W33582   4.386  15.734   0.514 -0.0105 -0.0648  0.2298
18114W        W33583  14.203   3.251   0.592  0.2639  0.1629  0.1183
18115W        W33584   6.351   2.997   1.493 -0.3433 -0.0432  0.0990
18116W        W33585  14.858  18.211  14.941 -0.1431 -0.3023 -0.1299
18117W        W33586   0.594  17.149   2.142  0.0904  0.0549 -0.0431
18118W        W33587  18.186   9.712   4.486  0.0969 -0.0665 -0.0896
18119W        W33588  17.370  13.482  11.711  0.1185  0.0667  0.0845
18120W        W33589  10.379  10.610   3.904  0.4580 -0.0753 -0.1357
18121W        W33590  14.592  11.951   5.323 -0.4428  0.0417 -0.1239
18122W        W33591   5.792  10.061  14.658  0.0397  0.1994 -0.0699
18123W        W33592  18.279   9.146  11.322 -0.2395 -0.1025  0.2063
18124W        W33593  14.378  16.429   1.107  0.0987 -0.2916  0.3021
18125W        W33594   0.341   7.480   2.246 -0.1439 -0.0088  0.1484
18126W        W33595   7.127   9.566  13.990 -0.2527  0.2748  0.0889
18127W        W33596  10.349  12.136   2.371  0.0597 -0.3632 -0.1016
18128W        W33597   9.932   9.949   3.331  0.2967  0.0705 -0.1116
18129W        W33598   8.226  16.334  13.282 -0.0249 -0.1709 -0.1400
18130W        W33599  12.020  18.732  11.039 -0.0936  0.3191  0.0993
18131W        W33600  12.960   7.558   1.455  0.1319 -0.2142  0.6379
18132W        W33601   1.635  16.642  12.752  0.2144 -0.1282  0.1926
18133W        W33602  14.918  17.834   1.026 -0.0420  0.0594  0.1646
18134W        W33603  15.546   9.772  12.851  0.0865 -0.4516 -0.1923
18135W        W33604  10.323  14.490   9.476 -0.1694  0.0386 -0.3622
18136W        W33605   9.119   7.372   1.259 -0.3071  0.2593  0.3493
18137W        W33606  17.069   0.483   2.739  0.1265  0.0752 -0.0210
18138W        W33607   0.059   0.745   1.507  0.1289 -0.1088  0.0340
18139W        W33608  18.765   7.106   4.714 -0.0182  0.0361 -0.0506
18140W        W33609   2.167  11.990   1.721 -0.0088 -0.0413 -0.0172
18141W        W33610   5.207   2.682  11.982 -0.0620  0.2507 -0.0993
18142W        W33611  13.541  14.285   4.231 -0.0604  0.1408 -0.0730
18143W        W33612   3.097   2.309  14.098 -0.1242  0.0360 -0.0142
18144W        W33613   1.848  10.084  14.510 -0.3625  0.2662 -0.0007
18145W        W33614  18.469  10.069  12.535  0.0035 -0.0481 -0.1938
18146W        W33615   8.842  16.280  11.312 -0.1595 -0.3456 -0.2643
18147W        W33616   9.402   4.116  11.815  0.3577 -0.1581  0.3111
18148W        W33617  17.691   6.168  15.261 -0.0114 -0.0800  0.3719
18149W        W33618  13.960   1.966  13.152  0.2561 -0.1292 -0.0118
18150W        W33619   3.277  10.851  13.615  0.0290 -0.3158  0.1472
18151W        W33620  15.731   6.501   1.807 -0.0362  0.1475 -0.1455
18152W        W33621   3.876   0.297   5.586  0.0426  0.0797  0.0494
18153W        W33622  10.084   6.942   1.941  0.4004  0.0456  0.0102
18154W        W33623   7.310   3.535  11.311  0.0172  0.1796  0.1654
18155W        W33624  16.298   4.710   0.288 -0.1185  0.0157 -0.3326
18156W        W33625  12.914   1.682   3.698 -0.0219  0.0312 -0.1235
18157W        W33626   3.330   3.546  14.055 -0.2105 -0.1332 -0.2225
18158W        W33627   1.871  10.503  15.337  0.0436  0.0047 -0.2292
18159W        W33628  14.562  11.046  12.580  0.0252 -0.0197 -0.0259
18160W        W33629   7.104   1.888   3.655  0.0415  0.0637 -0.0596
18161W        W33630   1.116   6.191  13.961 -0.0277  0.0758 -0.2850
18162W        W33631   1.227   5.430   4.439 -0.2252  0.2579  0.1130
18163W        W33632  18.003   3.415  12.331  0.2791  0.3333 -0.0204
18164W        W33633   0.888  17.976   3.418 -0.0344  0.2174  0.0399
18165W        W33634  10.330   9.006   4.340  0.1120  0.0260 -0.1916
18166W        W33635   3.434  10.459  15.384 -0.2097 -0.0029 -0.1652
18167W        W33636   3.702  10.903  12.624  0.3961 -0.0303  0.2782
18168W        W33637   5.063  14.519   5.393 -0.0183  0.1662 -0.2041
18169W        W33638   5.906  17.026   4.664 -0.1376 -0.5345 -0.1074
18170W        W33639   1.594  10.555  14.727  0.0674  0.2369 -0.2704
18171W        W33640  14.382  13.881   0.385 -0.2250 -0.0147  0.2064
18172W        W33641   4.222  12.502  13.664  0.0206 -0.2195 -0.0947
18173W        W33642  17.080   6.437   3.429 -0.0960 -0.1138 -0.1904
18174W        W33643   8.900  15.155  11.686 -0.1350 -0.2313 -0.1115
18175W        W33644   9.119   7.958   9.734  0.0198 -0.0563 -0.1933
18176W        W33645   5.620  13.975   4.782 -0.1099 -0.0228 -0.1543
18177W        W33646  18.387   9.536   2.944 -0.5893 -0.1611  0.0736
18178W        W33647   0.088  14.000  12.560  0.0249  0.1241  0.2646
18179W        W33648  15.250  12.508  13.050  0.2289 -0.2994 -0.1920
18180W        W33649  15.650   6.477   0.861 -0.0931 -0.2821  0.0889
18181W        W33650   6.742  15.089   1.350 -0.4042  0.2889  0.1604
18182W        W33651   1.451  11.419   4.088 -0.2195  0.0425  0.0813
18183W        W33652   5.171   8.393  11.605  0.1246  0.0636  0.2458
18184W        W33653   9.923  14.832  12.949 -0.2027  0.2926  0.1315
18185W        W33654   5.784  12.633   1.397  0.3597  0.2225 -0.0273
18186W        W33655   6.789   2.295   3.922 -0.2429  0.1224 -0.0441
18187W        W33656   5.643  10.880   1.206  0.0782 -0.1383  0.1003
18188W        W33657   0.925   9.044   5.152 -0.0859 -0.1256 -0.1966
18189W        W33658   1.840   4.211  13.418 -0.1582  0.1578 -0.0077
18190W        W33659   0.403   3.688  15.584 -0.1237  0.3618  0.3076
18191W        W33660   3.371   6.603   4.455 -0.2587  0.1535  0.1356
18192W        W33661   7.447   1.625   0.832 -0.1869  0.2495  0.3253
18193W        W33662   0.545   1.545  10.367 -0.0324 -0.2209 -0.0962
18194W        W33663  12.942  11.480   2.322  0.1012 -0.3833  0.1023
18195W        W33664  11.444   5.713   5.326 -0.0262  0.2229  0.3257
18196W        W33665   2.820   3.478   4.824  0.0398  0.0113 -0.2910
18197W        W33666   9.303  12.884  15.517 -0.0064  0.1701 -0.0978
18198W        W33667   1.473  10.974  10.882  0.0180  0.1567  0.1800
18199W        W33668  13.265   8.867   3.493 -0.0691  0.0744 -0.0938
18200W        W33669   9.462   7.208   0.413 -0.0149  0.1059  0.1520
18201W        W33670  17.892   4.979  11.868  0.0502 -0.1834  0.3647
18202W        W33671   5.766   7.861  14.001 -0.2289  0.1354 -0.0769
18203W        W33672   5.547   8.411   2.006  0.1766 -0.0588  0.2740
18204W        W33673   0.840  15.553   1.077 -0.3946  0.1259 -0.1007
18205W        W33674   9.887   9.711   2.829 -0.0920 -0.2056  0.0784
18206W        W33675   2.130  13.658   3.558 -0.1274 -0.0365  0.0408
18207W        W33676   4.175   8.054  15.319  0.1777  0.0383  0.1068
18208W        W33677  11.495   2.167   2.496  0.1128 -0.3148  0.2011
18209W        W33678   5.571   6.135  11.616  0.3382  0.2058 -0.0835
18210W        W33679  13.594  16.029  11.405 -0.4540 -0.1956  0.0043
18211W        W33680   8.782  17.380   3.494 -0.4439 -0.1505  0.0090
18212W        W33681   0.291  11.175  13.888  0.2976  0.0683 -0.0632
18213W        W33682   4.691   8.521   1.530 -0.1804 -0.2053 -0.2502
18214W        W33683   3.138  14.890   3.767 -0.0660 -0.1737  0.2692
18215W        W33684   5.585   8.998   4.166 -0.3756 -0.0267  0.0489
18216W        W33685  12.527  16.507  13.505 -0.3821  0.1683  0.2064
18217W        W33686  18.699   7.683   4.445  0.2028 -0.4745  0.3184
18218W        W33687  13.327  12.291   3.983  0.0873 -0.1409  0.1161
18219W        W33688  17.300  16.246   4.657  0.2516  0.0553  0.1431
18220W        W33689   6.310  14.906   1.254 -0.0342 -0.0283 -0.1466
18221W        W33690   1.320   4.059   2.754  0.1002  0.2790  0.0648
18222W        W33691  17.303   5.737   0.492 -0.3624  0.2827  0.1853
18223W        W33692   8.437   2.096   9.833 -0.0955 -0.1147 -0.2603
18224W        W33693   6.749  15.673   3.223 -0.2127  0.0132  0.1144
18225W        W33694  16.960   3.161   0.751  0.0751  0.0424 -0.2606
18226W        W33695  13.513  15.434  12.098  0.3389  0.1398  0.0439
18227W        W33696   7.251   3.133  13.989  0.1124 -0.2251 -0.2293
18228W        W33697  10.552   0.519  11.980 -0.1953  0.1236  0.2968
18229W        W33698   1.381   8.574   1.427  0.0118  0.2044  0.1172
18230W        W33699  15.088  11.122  12.668  0.2415 -0.4108  0.0292
18231W        W33700   1.140  16.621   1.227 -0.0598 -0.0014 -0.0975
18232W        W33701  13.623   3.714  12.307  0.0937  0.3828  0.3568
18233W        W33702   2.727   7.956  15.528  0.2847  0.1922  0.1361
18234W        W33703   7.480  17.529   1.065 -0.0196  0.0334 -0.0362
18235W        W33704   5.131   0.879   4.707 -0.0026 -0.1069  0.0025
18236W        W33705   5.383  14.219   0.064 -0.3880 -0.6445 -0.0490
18237W        W33706  10.822   3.959   1.548  0.1979  0.1794 -0.1223
18238W        W33707  18.119  17.204   2.264 -0.3632 -0.0051  0.0874
18239W        W33708  14.867   3.775  12.719  0.0480 -0.1162  0.0484
18240W        W33709  14.073  16.361   1.500  0.0143 -0.0429  0.1664
18241W        W33710   4.618  10.643  14.109  0.1241 -0.0817  0.1831
18242W        W33711  14.624   1.205   1.262  0.0889  0.1823  0.1444
18243W        W33712   9.510  18.366  13.652 -0.2324  0.1822  0.1932
18244W        W33713  15.941  16.984   4.548 -0.0204  0.1130 -0.0599
18245W        W33714   6.336  16.528  13.816 -0.3354  0.0844  0.0346
18246W        W33715   2.745  12.731   2.064  0.0443 -0.3124  0.3416
18247W        W33716   4.664   5.473  15.401  0.0059  0.0889  0.0584
18248W        W33717  12.769  10.208  13.175  0.2450  0.0729 -0.2515
18249W        W33718  14.767   8.329   0.607  0.0879 -0.0436  0.1758
18250W        W33719  11.142  17.759  11.302  0.3333  0.0421  0.0120
18251W        W33720   3.626   6.980  12.238 -0.3736 -0.0174 -0.1268
18252W        W33721   0.029   5.904   5.025 -0.0453 -0.3751 -0.0530
18253W        W33722  16.953   9.059  15.127  0.1000 -0.2762 -0.4270
18254W        W33723  15.002   8.942   1.938 -0.3781 -0.5271  0.1338
18255W        W33724  15.601   4.084   3.268  0.2480 -0.3684 -0.0532
18256W        W33725   0.767   4.746   3.149 -0.1756  0.0317 -0.0311
18257W        W33726  14.342   4.242   1.700 -0.2388 -0.0038 -0.2245
18258W        W33727   3.342   6.649   0.736 -0.1845 -0.0046  0.0215
18259W        W33728  10.806   9.729   2.526  0.0698  0.0400  0.1436
18260W        W33729   9.493   0.839   0.833 -0.0613  0.0313  0.0543
18261W        W33730  11.163  11.785   1.790  0.0420  0.2021  0.0366
18262W        W33731   2.745  15.053  11.987  0.2266  0.2900  0.0882
18263W        W33732  18.759   0.921  15.654  0.2694  0.0452 -0.1057
18264W        W33733  12.420   6.424  12.274 -0.1342 -0.0419  0.0171
18265W        W33734   1.115   0.948  14.365 -0.0086 -0.0054 -0.1772
18266W        W33735  10.318   6.199   4.181 -0.1104  0.0203  0.3199
18267W        W33736   5.724  17.502   3.114  0.0075 -0.4619 -0.0429
18268W        W33737   6.864  15.609  11.614 -0.0637 -0.0612 -0.0312
18269W        W33738   9.014  18.322   1.823 -0.0729  0.0097  0.1042
18270W        W33739  14.078  10.713   5.603  0.0295  0.1037 -0.2696
18271W        W33740   8.521   8.872   0.706  0.2069  0.1692  0.0581
18272W        W33741   9.043   2.132  15.126 -0.0546  0.4120  0.3428
18273W        W33742   5.003  11.088   5.392 -0.1015 -0.2344 -0.1557
18274W        W33743  17.149   8.452  13.275  0.0990  0.1453  0.1475
18275W        W33744  16.838  13.576   6.440 -0.2698  0.5080 -0.3196
18276W        W33745   7.562   0.092   3.687  0.0004 -0.3032  0.1853
18277W        W33746  16.999  15.996   5.608 -0.0299  0.0434 -0.0640
18278W        W33747  12.458  14.712   2.547  0.1723 -0.0134  0.5853
18279W        W33748   8.248  10.061  13.613  0.0682 -0.1799  0.1191
18280W        W33749   5.159  10.943  13.849 -0.0531  0.0128 -0.0412
18281W        W33750   2.796  13.168  11.086 -0.0918 -0.1843 -0.1506
18282W        W33751  15.699  15.463  13.591  0.1597 -0.1052 -0.3087
18283W        W33752   0.315   8.513  15.380 -0.2512 -0.0073 -0.0157
18284W        W33753  15.059  13.628   2.733 -0.2810  0.0991  0.2968
18285W        W33754  13.607  17.660   3.288 -0.1619 -0.2052 -0.2436
18286W        W33755  16.331  15.127  11.679  0.0014 -0.0524  0.0242
18287W        W33756   0.517  12.825   1.834  0.0283 -0.2030  0.0770
18288W        W33757  11.243   5.847  12.304 -0.0567  0.4086  0.0181
18289W        W33758  13.564  10.894  14.257 -0.0123 -0.2559 -0.0243
18290W        W33759   9.071  13.236   5.125 -0.5168  0.0650 -0.0923
18291W        W33760   3.257  14.549   0.857 -0.2175 -0.1713 -0.2079
18292W        W33761  16.922  18.587   4.514  0.1330  0.1211 -0.2066
18293W        W33762   3.608  11.113  15.596 -0.0305 -0.0133 -0.4528
18294W        W33763   7.521  12.234  12.206 -0.3232 -0.1459  0.0360
18295W        W33764   3.587  18.199  11.742 -0.1225  0.0573  0.0242
18296W        W33765  12.011   6.574  14.922 -0.0856 -0.0587  0.0335
18297W        W33766  14.962  16.104  15.206 -0.2441 -0.2444  0.3820
18298W        W33767   9.751  11.175  11.504 -0.3122 -0.2448  0.1471
18299W        W33768  17.900  18.202   5.539 -0.1410  0.0200  0.0451
18300W        W33769  14.741   0.780  10.044 -0.1728 -0.3303 -0.0160
18301W        W33770   1.714  11.552   9.897 -0.0403  0.1293  0.0928
18302W        W33771   7.550   0.205  14.148  0.3074 -0.1077  0.0469
18303W        W33772   1.010  17.963  11.026  0.2747 -0.1170  0.1970
18304W        W33773  15.526  13.512   0.103  0.1671 -0.2174 -0.0383
18305W        W33774   5.738  17.346   0.240  0.0198 -0.2865  0.0864
18306W        W33775  12.102   5.410   1.431  0.0941  0.1364 -0.0078
18307W        W33776   5.843   0.850  13.853 -0.0791 -0.0798  0.1104
18308W        W33777   8.523  10.904   1.803 -0.0433  0.0953  0.1631
18309W        W33778   6.281  17.992   3.113 -0.2707  0.2054  0.1132
18310W        W33779   0.686  10.494  11.068  0.1396  0.1322 -0.1193
18311W        W33780   3.412   0.323   2.078  0.3256  0.1717  0.0817
18312W        W33781   6.477   9.303   3.060 -0.5353  0.1052  0.0638
18313W        W33782  12.681  14.445  13.236  0.1570 -0.0255  0.3640
18314W        W33783  18.133   2.777   5.523 -0.0123 -0.1915  0.2726
18315W        W33784  14.922   4.173   1.080  0.0516  0.1928  0.0863
18316W        W33785  14.286   0.038   1.872 -0.2439  0.1506 -0.2003
18317W        W33786  13.355   4.003  14.124 -0.3334 -0.0974  0.1453
18318W        W33787  11.923   3.276   4.833  0.0699  0.1064  0.0849
18319W        W33788  15.603  15.204   5.024  0.2029 -0.0524  0.0370
18320W        W33789   1.933   2.073  15.257  0.1995 -0.1315  0.0897
18321W        W33790  14.860   5.626   1.843  0.0119  0.2132 -0.1574
18322W        W33791   8.167   5.877  14.458 -0.0868  0.2654  0.1652
18323W        W33792  13.559   7.145   4.508  0.4198  0.0240 -0.1275
18324W        W33793  15.047  15.853   1.178  0.1744  0.3353 -0.3116
18325W        W33794   0.878  10.885   5.331  0.2083 -0.1995 -0.0482
18326W        W33795   7.743   6.782   5.190 -0.2059  0.3959  0.2459
18327W        W33796  10.343   6.026  10.602 -0.0895  0.0452 -0.2168
18328W        W33797   4.820   6.090   1.543 -0.0494 -0.0467  0.0605
18329W        W33798   7.020   4.194  12.101 -0.0874  0.1624 -0.1419
18330W        W33799  18.751   1.551   0.850 -0.1174 -0.2059  0.0345
18331W        W33800  10.736   4.874  11.955  0.0072 -0.1812 -0.0787
18332W        W33801  15.092   0.287  10.764  0.1214  0.1185  0.0133
18333W        W33802  15.343  14.199   4.239 -0.0871  0.1274  0.2971
18334W        W33803  16.238   2.563  13.092  0.0863  0.2519 -0.1279
18335W        W33804  15.166   7.527  10.952  0.2090  0.0771  0.0723
18336W        W33805   4.487  10.300  12.449  0.2202  0.0679 -0.0674
18337W        W33806  16.757  12.876  11.777  0.1243 -0.1530  0.0363
18338W        W33807  10.176   4.575   3.456 -0.0385 -0.1254  0.1699
18339W        W33808   2.948   0.488   2.313 -0.0502  0.0112 -0.0684
18340W        W33809  14.911   3.020  10.528  0.2111 -0.0871  0.3066
18341W        W33810  15.132  17.475   3.504 -0.1046 -0.0290 -0.0678
18342W        W33811  10.325   2.182   0.471 -0.1143  0.0976 -0.3355
18343W        W33812  15.183   2.993   4.535 -0.0728 -0.4245  0.1729
18344W        W33813  17.283   2.977   2.494 -0.2115  0.1443 -0.4293
18345W        W33814   2.305  18.353   2.874  0.0113 -0.0877 -0.0784
18346W        W33815   6.519   2.265   4.367 -0.1352 -0.1177  0.0922
18347W        W33816  10.714   8.841  11.727 -0.0507  0.0649 -0.1572
18348W        W33817   9.125   8.590  12.079  0.0022  0.1667  0.1487
18349W        W33818   3.387   5.577  15.317 -0.0852  0.3004  0.0172
18350W        W33819   1.848  18.564   2.824  0.1152  0.2778 -0.2996
18351W        W33820   5.727   0.414   1.207 -0.0819  0.2317  0.1503
18352W        W33821  16.461   0.551  13.281 -0.0498  0.0537  0.0702
18353W        W33822  10.039   5.480   5.735 -0.1128  0.2628 -0.4123
18354W        W33823  13.064   5.218  15.205 -0.0988 -0.0068 -0.0554
18355W        W33824   4.654   8.799   0.718 -0.0801  0.2480 -0.0731
18356W        W33825  13.840   0.621   3.653  0.2408  0.0194  0.0933
18357W        W33826  13.419   8.650   5.506  0.3085 -0.2634 -0.2248
18358W        W33827   8.546   5.158  11.303  0.0157  0.0878 -0.2337
18359W        W33828   1.813  18.070   0.427  0.1350  0.0834  0.0398
18360W        W33829   6.739  10.076  13.452  0.0859  0.3107  0.1081
18361W        W33830   3.720  15.631   2.667 -0.0845  0.1023  0.0884
18362W        W33831  17.022   7.434   4.689 -0.0143  0.0241 -0.0005
18363W        W33832  16.961   9.418   5.061  0.0227 -0.0515 -0.0427
18364W        W33833  13.359   6.924   0.623 -0.0521 -0.1192 -0.1064
18365W        W33834   7.662   5.320   0.910  0.1720 -0.0267 -0.0995
18366W        W33835  15.884   7.554  11.284 -0.3700  0.0020  0.0430
18367W        W33836  17.369  18.283   0.966  0.0682  0.1945 -0.5401
18368W        W33837  18.453  18.153   2.706 -0.1109  0.2737  0.2562
18369W        W33838   2.425   7.061   3.007 -0.2427  0.2451  0.3026
18370W        W33839   1.499  14.769   5.067  0.1099  0.1086  0.2134
18371W        W33840   3.620   3.877   1.918 -0.0229  0.0482  0.4190
18372W        W33841   1.694   3.672  12.256  0.0677 -0.0052  0.0406
18373W        W33842   7.136   7.948   0.596 -0.1092  0.0441 -0.0693
18374W        W33843   7.910   7.353  13.371 -0.0581  0.1344  0.1837
18375W        W33844  14.495  10.204  12.812 -0.2266 -0.1602  0.3819
18376W        W33845  15.970   9.338  12.906  0.1338  0.1508 -0.0146
18377W        W33846  13.699  12.584  12.536 -0.1097 -0.1127  0.2349
18378W        W33847  16.375  11.386   4.373  0.1939  0.1070  0.1413
18379W        W33848   0.772  15.934  10.687  0.2777  0.1340  0.3116
18380W        W33849  13.138   2.327  14.967  0.2341  0.0463 -0.4570
18381W        W33850   5.299   3.448  10.994  0.1932  0.1255  0.0118
18382W        W33851  14.672   1.083   5.491 -0.2188 -0.0809  0.0671
18383W        W33852   3.975   2.139  13.489 -0.1784  0.2701 -0.0028
18384W        W33853   8.809   7.602  11.696 -0.1571 -0.1489 -0.0112
18385W        W33854  16.072   4.387  13.084 -0.1429  0.0968 -0.0803
18386W        W33855   8.142   4.159  12.232  0.0334  0.0108  0.0174
18387W        W33856   9.943   5.627   4.970 -0.1244 -0.1299 -0.1873
18388W        W33857   0.206   9.814  13.549 -0.1785  0.1636  0.1154
18389W        W33858   9.276   4.154  11.028 -0.0820  0.1578  0.1238
18390W        W33859   9.205   6.785  14.925  0.3127  0.0249  0.1340
18391W        W33860   0.559  16.406  12.184 -0.1160  0.4502  0.1118
18392W        W33861  16.613  14.511   4.018 -0.0811  0.2153  0.1205
18393W        W33862  12.633   2.684  12.251  0.2623  0.3068 -0.2249
18394W        W33863   9.367   8.021  11.087  0.0268  0.1720  0.2773
18395W        W33864   9.943   7.943  14.690  0.2463 -0.0592 -0.0125
18396W        W33865  16.784  18.036   0.115  0.0375 -0.1672  0.2108
18397W        W33866   1.817   2.405   5.723  0.0764  0.0585  0.1660
18398W        W33867   4.378   1.662   2.198  0.2707  0.0083  0.3253
18399W        W33868   2.750   8.499  10.238  0.0836  0.2015 -0.2276
18400W        W33869  11.368   5.500  12.729 -0.0919  0.0578  0.0938
18401W        W33870  11.582  16.382   4.040 -0.2841  0.1638  0.0294
18402W        W33871   1.412  17.966  11.323 -0.2748 -0.0772 -0.0209
18403W        W33872   5.009  17.311  14.200  0.3579 -0.2562 -0.3340
18404W        W33873   1.417  13.857   1.688 -0.4632  0.3722  0.0183
18405W        W33874   7.654   1.012   2.604  0.2648 -0.3724  0.4242
18406W        W33875  12.239  10.309   1.742  0.1126  0.3582  0.0037
18407W        W33876   9.109  18.062  13.201 -0.1834 -0.0175 -0.1195
18408W        W33877  12.197   4.796  14.654  0.1970  0.1860 -0.0996
18409W        W33878  14.279   7.130  10.721 -0.1837 -0.0410 -0.1927
18410W        W33879  11.177  16.227   3.783 -0.1002  0.1757  0.2346
18411W        W33880  15.678   2.576   2.416 -0.1008  0.0477  0.2706
18412W        W33881   4.317  12.784  15.310  0.2487 -0.0364  0.0696
18413W        W33882  16.291   8.438  14.834  0.0213 -0.0253  0.2824
18414W        W33883   3.285  16.786  13.790  0.3759 -0.1337 -0.0838
18415W        W33884  12.562   2.159   4.038  0.0675 -0.2670 -0.4008
18416W        W33885  14.064   5.096   0.507 -0.3536  0.2759  0.1111
18417W        W33886   6.280  17.359   3.823  0.0481 -0.1122  0.1394
18418W        W33887   5.754   0.912  14.931  0.1261  0.2795  0.0802
18419W        W33888  16.578  13.115  14.603  0.0217  0.3297 -0.5066
18420W        W33889   8.605   1.118   0.965 -0.3930  0.1377 -0.0962
18421W        W33890  15.610   6.810  10.826 -0.1144  0.1380 -0.0192
18422W        W33891  13.478  10.574  13.819  0.3193 -0.0241 -0.0070
18423W        W33892   2.054   7.689  15.612  0.0418 -0.0488 -0.0849
18424W        W33893   6.114   9.118  13.377 -0.2137 -0.0583 -0.2328
18425W        W33894   3.688   1.952   4.747 -0.0246 -0.0817  0.4363
18426W        W33895  18.536  15.920  14.782 -0.1792 -0.1706 -0.2431
18427W        W33896  11.081  14.351  12.022  0.0156  0.1247 -0.4424
18428W        W33897   3.758   6.297  13.750 -0.5432 -0.3685 -0.1364
18429W        W33898   5.192  18.458  14.981  0.0840 -0.0488  0.1862
18430W        W33899  18.486  17.419   4.953 -0.0693 -0.0808  0.2132
18431W        W33900  16.665   0.580   3.465  0.2071  0.0018  0.1873
18432W        W33901   5.525   8.268  14.491  0.0355  0.2823  0.3655
18433W        W33902  11.717  11.372   4.229  0.0585 -0.3825  0.1192
18434W        W33903  11.313   1.643   1.272  0.3626  0.1546  0.0618
18435W        W33904   5.118   6.154  15.605  0.0337 -0.3715 -0.3708
18436W        W33905   2.608  13.899   2.647 -0.1268  0.0620  0.0090
18437W        W33906  15.360   7.603   2.092 -0.0258 -0.0762  0.0193
18438W        W33907   9.307   8.917  15.288  0.0951  0.3724  0.1465
18439W        W33908  10.062   1.108  11.345 -0.1051  0.0763 -0.1434
18440W        W33909  12.197   0.444  13.151  0.2837  0.3786  0.0915
18441W        W33910  10.480   8.789   6.179  0.1339 -0.1999 -0.0684
18442W        W33911  13.099  13.270  12.383 -0.1157  0.0824 -0.0120
18443W        W33912   9.568   7.336  11.656  0.2772 -0.0702  0.2896
18444W        W33913   8.110   7.522  10.775 -0.0960 -0.5492  0.2927
18445W        W33914  16.358   5.794   3.347  0.0088 -0.0539 -0.0706
18446W        W33915  13.611   8.286   2.853  0.0355  0.1042  0.1820
18447W        W33916  11.415   7.453   2.142 -0.1417 -0.1281 -0.1040
18448W        W33917  12.737  10.380   0.402  0.0690  0.0486 -0.0271
18449W        W33918   8.510   7.462   0.963 -0.0782  0.3455 -0.0059
18450W        W33919   5.103   3.450   2.585  0.0720  0.0047 -0.2920
18451W        W33920  15.833  12.287   0.365  0.2269 -0.0759  0.3983
18452W        W33921  18.577   9.027  14.764  0.2266 -0.2858  0.0733
18453W        W33922  14.971   6.268   5.300 -0.3877  0.0071 -0.0694
18454W        W33923  10.399  14.093   0.570  0.5175  0.0209 -0.0643
18455W        W33924   2.987   7.068  10.478  0.1295  0.0623  0.3503
18456W        W33925   2.018   7.799   0.399  0.2074 -0.3722  0.3200
18457W        W33926   5.299  16.725   5.477  0.0264  0.4855 -0.1104
18458W        W33927   4.009  17.284  11.472  0.1985 -0.3276 -0.0402
18459W        W33928  18.296  14.248   1.880  0.3210  0.0184  0.0475
18460W        W33929  12.847   0.785   3.945  0.0039 -0.3949  0.1380
18461W        W33930   0.778  11.046   4.005  0.2202  0.0441  0.2445
18462W        W33931   2.606  15.286   5.189  0.0525 -0.1183 -0.0781
18463W        W33932   8.064   8.349   2.185 -0.3783  0.2490  0.0138
18464W        W33933   0.829  18.313   3.879 -0.2353  0.4161  0.1095
18465W        W33934   3.838  18.322  10.100  0.0106 -0.2818  0.0071
18466W        W33935   1.027   1.322   3.306  0.2214 -0.3665 -0.0471
18467W        W33936  13.411   2.084   5.081  0.4397  0.0838 -0.2434
18468W        W33937   0.364   4.438   2.983 -0.0112 -0.0601  0.2845
18469W        W33938  13.540  11.271   1.028  0.0242  0.2967  0.2627
18470W        W33939   4.389   0.134  12.807  0.0694 -0.1742 -0.1105
18471W        W33940  14.875   0.706   3.082 -0.3919  0.0475  0.2213
18472W        W33941  11.501   6.465   2.582  0.2349 -0.1021 -0.0113
18473W        W33942  11.972   6.612   4.984 -0.2748 -0.0848  0.1038
18474W        W33943  11.396   7.040   4.521  0.0471  0.1074  0.0663
18475W        W33944   5.695   2.789  13.087 -0.1385  0.0380  0.2454
18476W        W33945   5.774  12.850  15.382 -0.2311  0.2436  0.0819
18477W        W33946   4.033   0.154   4.769 -0.1971 -0.1408  0.1810
18478W        W33947   3.476  17.315   5.235 -0.0202 -0.3285  0.0659
18479W        W33948   0.314  15.009  10.011  0.3379  0.0296  0.0487
18480W        W33949  12.079   8.276  14.347 -0.0410  0.3501  0.1151
18481W        W33950  10.212  14.086  13.340  0.1251  0.0613  0.1016
18482W        W33951   3.496   0.232  12.855 -0.1079 -0.1119  0.1909
18483W        W33952   2.811   8.989   2.018  0.1461  0.2542  0.2778
18484W        W33953  12.716  13.196   3.854  0.1488  0.4547  0.2895
18485W        W33954   4.759   9.999  14.164  0.1530  0.0097  0.2226
18486W        W33955  16.080   2.113  12.176  0.2363 -0.2311  0.0774
18487W        W33956  10.854   3.943  14.852  0.1749 -0.1370  0.1745
18488W        W33957  18.056  15.891  13.981  0.0541 -0.1607 -0.1304
18489W        W33958  12.359   5.331  10.500  0.1955  0.0506 -0.0805
18490W        W33959  10.493  17.389   3.894  0.1131  0.0515 -0.0029
18491W        W33960   0.543  16.424  14.861  0.1652  0.3190 -0.0539
18492W        W33961   6.711   0.254  11.117 -0.0662 -0.2803 -0.2507
18493W        W33962   4.557  17.004  14.251 -0.0647  0.0460 -0.0505
18494W        W33963   8.157   3.283   2.459  0.1233  0.0609 -0.1121
18495W        W33964   1.856  11.245  10.746  0.0298  0.4441 -0.2904
18496W        W33965  11.037   3.861   3.825 -0.3026  0.3437 -0.0504
18497W        W33966  15.964   4.662   0.697  0.2120 -0.0514  0.1702
18498W        W33967   1.565  15.491  10.376 -0.1925  0.0919  0.1091
18499W        W33968  13.866   3.584  12.735  0.0951 -0.0523 -0.0719
18500W        W33969   2.065  18.587   1.051  0.1157 -0.0851 -0.1277
18501W        W33970  13.972  10.865   0.821 -0.0579  0.1083 -0.6946
18502W        W33971  14.991  17.620   1.957 -0.3837  0.1654  0.0773
18503W        W33972   7.682   6.448   3.265  0.3114  0.0496  0.1303
18504W        W33973  10.753  14.897  12.453 -0.1816  0.1276  0.1702
18505W        W33974  14.718   1.004   2.126 -0.0061  0.3414 -0.2961
18506W        W33975   9.136   4.883   2.592  0.1160 -0.2663 -0.0279
18507W        W33976  14.726  16.367  13.799  0.1689 -0.3177 -0.3710
18508W        W33977   9.077  12.727   3.064  0.2101 -0.2492  0.1102
18509W        W33978   0.645  14.859  15.030  0.1413 -0.0241  0.0690
18510W        W33979   4.233  13.658   3.853 -0.2173 -0.1838  0.0467
18511W        W33980   6.430   1.613  12.873 -0.0110  0.0809  0.0436
18512W        W33981   0.961   1.182   0.292  0.0886 -0.1691  0.0672
18513W        W33982   0.948   3.193   6.024  0.1036 -0.0099 -0.3361
18514W        W33983  11.935   5.074  13.150  0.1845  0.0728  0.0699
18515W        W33984   5.992   2.021   4.577  0.1140  0.0533  0.4158
18516W        W33985   7.322  16.731  15.218  0.0653  0.4303 -0.0242
18517W        W33986  16.111   5.597  14.820  0.0704  0.2215  0.0085
18518W        W33987   7.663   6.320   4.114  0.0411  0.1437  0.2266
18519W        W33988  11.375  18.127  11.007 -0.1137 -0.1849 -0.0318
18520W        W33989  16.222   5.048  14.511 -0.0384 -0.1532  0.2496
18521W        W33990  14.839  12.821  11.223  0.1190 -0.2003 -0.0917
18522W        W33991   6.028  10.841   4.555  0.2811  0.3427  0.0796
18523W        W33992   8.921  12.049   1.377  0.1098 -0.1034 -0.0224
18524W        W33993   5.080  17.437   4.301  0.2249  0.1450 -0.2451
18525W        W33994  11.913  17.793  11.455 -0.1477 -0.2342 -0.1736
18526W        W33995   6.059   2.130   5.059  0.4540 -0.2031  0.3200
18527W        W33996  18.283  16.995   0.020 -0.1631 -0.0088  0.0899
18528W        W33997   8.687   9.695  14.407 -0.0946  0.1037 -0.2217
18529W        W33998  17.606  16.842  11.512 -0.3278 -0.0223 -0.1458
18530W        W33999   0.820   0.542   3.078  0.0729 -0.0849  0.0979
18531W        W34000   7.276  11.867   1.755  0.1684 -0.0674 -0.0784
18532W        W34001   2.257  16.114   5.787 -0.0478 -0.1907  0.2736
18533W        W34002   5.899   0.674   4.187 -0.0839 -0.1007  0.1440
18534W        W34003   6.229  17.230   6.041 -0.0176  0.2398  0.0001
18535W        W34004  12.249  18.572  11.530  0.1229  0.0190  0.2738
18536W        W34005  15.858  18.386   0.072 -0.0093  0.4537  0.0444
18537W        W34006  10.983  18.564  11.860 -0.0660 -0.0082  0.1769
18538W        W34007   2.765   7.411   2.812 -0.1021 -0.0258 -0.1112
18539W        W34008   3.453  13.509  12.250 -0.2155 -0.0219 -0.2200
18540W        W34009   8.242   4.625  12.603 -0.1514 -0.1699  0.1901
18541W        W34010   9.621  12.102   4.794  0.0273 -0.1183 -0.2225
18542W        W34011   3.421   0.195  15.312 -0.0582 -0.1219  0.2135
18543W        W34012   4.377  11.461  13.345  0.0751  0.3225 -0.3133
18544W        W34013   0.640  17.871  14.662 -0.0720  0.1347 -0.0404
18545W        W34014  14.678  12.385  14.723  0.2605 -0.1190  0.1322
18546W        W34015   0.464   8.280  10.948  0.1153 -0.3058  0.0003
18547W        W34016  10.635  15.968   1.871  0.1389  0.0423  0.0668
18548W        W34017  15.251  17.501   5.287 -0.2054 -0.0159  0.1168
18549W        W34018   2.774  16.574   2.222 -0.0068  0.0976  0.0364
18550W        W34019   4.571  17.226   4.298  0.1258  0.1390  0.2865
18551W        W34020   2.391  14.789  14.991  0.3338 -0.0930 -0.1618
18552W        W34021  12.749  15.533  13.887  0.1041  0.1166 -0.0630
18553W        W34022   1.833   7.403  11.788  0.0163 -0.0865  0.1918
18554W        W34023  17.396   3.980   2.316  0.0661 -0.4151  0.3056
18555W        W34024  18.360   5.058  14.060 -0.0393 -0.0750 -0.0787
18556W        W34025   1.040   3.047   1.896 -0.1362  0.2588  0.0272
18557W        W34026   1.088  16.124   1.741  0.2952 -0.1035  0.0354
18558W        W34027  10.223   6.630   0.533  0.0606  0.4198  0.1253
18559W        W34028   8.425  16.882  14.366 -0.2818 -0.1634 -0.1194
18560W        W34029  14.736  12.881   3.714 -0.0924  0.1135 -0.1445
18561W        W34030  13.843   1.347  10.743  0.1045  0.0520 -0.3115
18562W        W34031   6.995   3.608   2.344 -0.1657 -0.1502  0.1344
18563W        W34032  15.307   8.024  14.497  0.1070 -0.0221 -0.1018
18564W        W34033   4.887   9.636   4.431 -0.3496 -0.0046  0.1939
18565W        W34034  10.843  16.471   0.058 -0.0975 -0.1864  0.0241
18566W        W34035  18.470  14.601   2.202  0.1371  0.2610 -0.1550
18567W        W34036   2.948   3.307   0.523 -0.1595  0.3230  0.0670
18568W        W34037  11.803   6.099   4.280  0.0030 -0.0487 -0.2022
18569W        W34038   8.235   1.881   4.414 -0.3307 -0.1234 -0.1562
18570W        W34039   1.702   8.033   1.963 -0.1922 -0.1156  0.0843
18571W        W34040   8.964   2.427  11.046 -0.1527  0.4932 -0.1825
18572W        W34041   8.355   2.928  11.770  0.0708 -0.0787 -0.1372
18573W        W34042   9.357   6.140  11.953 -0.0172  0.2680 -0.0920
18574W        W34043  15.594   2.784  10.798 -0.1039  0.0321 -0.1606
18575W        W34044  16.509   8.985   1.295  0.2072  0.0691  0.1164
18576W        W34045  15.715  11.358   3.508 -0.1119 -0.2388 -0.2463
18577W        W34046   7.999   3.948  13.444  0.2862  0.0707  0.5888
18578W        W34047  18.359  17.892  14.670  0.2257 -0.1079 -0.2196
18579W        W34048   4.863   3.609   0.563 -0.0016  0.0361  0.1870
18580W        W34049   0.737  13.166  12.209 -0.0010  0.0076 -0.0131
18581W        W34050   4.463   7.858  13.801 -0.2150  0.0927 -0.2870
18582W        W34051   0.988   5.556   0.150  0.0878 -0.1152  0.2896
18583W        W34052   2.121  10.951   0.081  0.0239  0.1887 -0.0871
18584W        W34053   8.619   3.084  13.453 -0.1363 -0.1104 -0.0444
18585W        W34054  17.503   4.766   3.692 -0.1151  0.1482 -0.0210
18586W        W34055   8.282  16.097  12.820 -0.1582 -0.2460  0.2975
18587W        W34056   0.184  15.056   3.574  0.0321  0.0633 -0.2926
18588W        W34057  15.963   0.734  13.451  0.0758  0.1281  0.1620
18589W        W34058   2.775   5.797   0.506  0.1600 -0.1933 -0.1496
18590W        W34059  15.197   5.451   3.257 -0.2331 -0.0292  0.2043
18591W        W34060   9.345   1.802   0.508  0.1479 -0.1608  0.3160
18592W        W34061   1.713  10.843   1.149 -0.0046 -0.1953  0.1105
18593W        W34062  14.248   0.389   1.566 -0.0918 -0.1094  0.2201
18594W        W34063   6.792  15.460   4.291 -0.4185 -0.1173  0.3998
18595W        W34064  12.291   8.298  13.902  0.0321 -0.3691 -0.2352
18596W        W34065  17.738   7.079  14.780  0.1754  0.0910 -0.0108
18597W        W34066  15.900  16.540   3.329 -0.4432 -0.2527  0.2479
18598W        W34067  14.178   4.292  11.764  0.0362  0.1529  0.0142
18599W        W34068   8.840   4.094  10.771 -0.1437 -0.2172  0.3395
18600W        W34069   6.227   0.952   3.938  0.1859  0.1281  0.0197
18601W        W34070   0.148   4.766   3.382  0.1131 -0.1297  0.3545
18602W        W34071  14.042  15.126  12.854  0.1507 -0.1122  0.1023
18603W        W34072   4.094   1.141  10.816 -0.1063 -0.0728  0.0740
18604W        W34073   5.972  10.945  10.673 -0.2644 -0.0596 -0.0019
18605W        W34074   9.654   3.095   3.198 -0.2076 -0.1842 -0.2113
18606W        W34075  10.111  10.604  10.957 -0.0468 -0.1623 -0.0971
18607W        W34076  12.460  12.707  11.468  0.0833 -0.0437  0.1578
18608W        W34077  10.478  18.663  13.835 -0.3430  0.3354 -0.3537
18609W        W34078  12.246   0.726  14.361 -0.0865  0.4278 -0.0685
18610W        W34079   6.022   6.890   4.791  0.1031 -0.1734  0.3447
18611W        W34080  16.917  15.945   0.049 -0.1923 -0.2268  0.3628
18612W        W34081  11.687   4.811  13.958  0.0213 -0.0061  0.1548
18613W        W34082   5.023   9.154  11.074 -0.2308  0.1821  0.0131
18614W        W34083  17.497  14.253   4.948  0.1182 -0.0123  0.0942
18615W        W34084   1.652   0.610   1.904  0.1304  0.2141 -0.2044
18616W        W34085  16.410   8.430   2.601  0.0251  0.1946 -0.1580
18617W        W34086   0.897  18.735   4.650  0.2053 -0.0088 -0.0631
18618W        W34087  18.595  13.599   5.600  0.1747 -0.5395  0.1565
18619W        W34088  14.372  16.936   4.896 -0.5974 -0.3963 -0.1412
18620W        W34089   8.496  17.359   0.786  0.1680 -0.0755  0.0652
18621W        W34090   8.945   6.617  10.511  0.5179  0.2663 -0.1362
18622W        W34091  11.026   7.984  15.159  0.0492 -0.4380 -0.4037
18623W        W34092   1.817   3.073   0.993  0.3428 -0.1833 -0.1292
18624W        W34093   8.611   9.834  15.432 -0.4050 -0.3528 -0.0877
18625W        W34094  17.823   4.153  10.390 -0.2797 -0.2555  0.3430
18626W        W34095  11.218   4.663   2.443 -0.1377 -0.0030  0.2244
18627W        W34096  11.547   0.658   3.938 -0.3050 -0.2612 -0.2553
18628W        W34097  18.165   0.369   5.081 -0.1674  0.2835  0.0734
18629W        W34098   5.105  13.737  12.361  0.0414  0.1186  0.0947
18630W        W34099   3.505   7.694  13.806 -0.0013 -0.4484 -0.1686
18631W        W34100   7.657  15.497   9.804 -0.4036  0.0934  0.2752
18632W        W34101  11.206   1.339   2.411  0.1855  0.0888 -0.4101
18633W        W34102   6.110   4.165  11.795  0.0034  0.2894 -0.2882
18634W        W34103  18.677   5.901   3.018  0.0843 -0.2696 -0.0219
18635W        W34104  11.990  15.978  15.300  0.0697  0.0570 -0.0292
18636W        W34105  17.411   8.825   3.672 -0.1686  0.2365 -0.2819
18637W        W34106   3.798   6.269   3.269 -0.1624 -0.1393  0.2088
18638W        W34107  10.867   7.645  15.510  0.0652  0.1974 -0.0328
18639W        W34108  14.368   6.075  15.290 -0.1092  0.0752 -0.0154
18640W        W34109  17.900  11.448  15.080  0.3026  0.3438  0.1193
18641W        W34110  10.019   8.002   2.273 -0.0069  0.1515 -0.1153
18642W        W34111  13.931  10.407  11.428  0.0186  0.1538 -0.0338
18643W        W34112  13.590   0.783  15.267 -0.0927  0.3984 -0.0730
18644W        W34113  12.094   6.779   0.512 -0.1954  0.2283 -0.2389
18645W        W34114  18.363   7.020   2.208 -0.1468 -0.0104  0.0606
18646W        W34115   9.105  16.094  15.141  0.2636 -0.2052  0.1296
18647W        W34116   1.555   2.789   1.914  0.3533 -0.0510 -0.2000
18648W        W34117  12.816  16.526  15.123 -0.1332  0.0576  0.1706
18649W        W34118   0.916  17.385  10.929  0.0245 -0.0841  0.2214
18650W        W34119   9.777   9.397  14.935  0.2594  0.0591  0.1148
18651W        W34120  15.474   3.206  11.916 -0.1876 -0.5157 -0.2092
18652W        W34121  14.580   1.642   0.116 -0.2000  0.1380  0.0615
18653W        W34122   0.401   0.647  11.832  0.1665 -0.2278 -0.3120
18654W        W34123  18.064   5.989  15.558 -0.2539 -0.1572  0.1375
18655W        W34124   4.989   7.467  15.142  0.1548  0.3772  0.0398
18656W        W34125  14.224  11.981   1.065 -0.1860 -0.0935  0.0786
18657W        W34126   0.622   7.987   3.917 -0.1710 -0.2018  0.1701
18658W        W34127   2.903  18.003   4.102  0.0234 -0.3396 -0.1301
18659W        W34128   6.164  10.664   0.830  0.2555 -0.2551  0.1454
18660W        W34129  16.881   8.520  10.419  0.0582 -0.2012 -0.1847
18661W        W34130   2.103   0.905   9.785  0.1526 -0.1669  0.4807
18662W        W34131   0.864   1.156  13.923  0.1516  0.2076  0.1865
18663W        W34132  17.198   4.367  13.854 -0.0210 -0.0842 -0.1944
18664W        W34133  12.295  16.691   4.830  0.0288 -0.0770 -0.0832
18665W        W34134   5.489  13.044   4.134  0.1197  0.0408  0.0546
18666W        W34135   7.569  14.620   3.751  0.1655 -0.0301  0.1130
18667W        W34136   2.781   7.723  11.229  0.2022 -0.3432  0.0873
18668W        W34137   0.791   2.301  13.471 -0.1068 -0.2283 -0.3361
18669W        W34138   6.301   4.546   0.103  0.1424  0.4493 -0.1772
18670W        W34139  14.279   3.896  10.513  0.0461  0.2501  0.1217
18671W        W34140   2.553  10.523  14.719  0.0783 -0.1631 -0.0494
18672W        W34141  12.849   6.377   0.014 -0.2671  0.0574 -0.2113
18673W        W34142   2.681   6.112   5.646 -0.2708  0.0902  0.1754
18674W        W34143  12.688  10.696   3.055  0.2371 -0.0509 -0.1370
18675W        W34144   0.125   0.370   2.899  0.2653 -0.2977 -0.1019
18676W        W34145  11.927  12.856  12.215 -0.0458 -0.1013  0.1708
18677W        W34146  18.333   0.680   1.522 -0.3846 -0.3794 -0.0448
18678W        W34147   6.796  17.292   2.001 -0.1791 -0.1070  0.1392
18679W        W34148   5.387   1.121  12.508 -0.3072 -0.0216  0.3648
18680W        W34149   2.585   8.437  15.281  0.0110 -0.1010 -0.1573
18681W        W34150  12.791  10.063  14.392  0.1190  0.2957 -0.2536
18682W        W34151   9.666   5.598   2.166  0.0701 -0.1396  0.1015
18683W        W34152  17.768  15.383   4.710 -0.4115 -0.1545  0.2872
18684W        W34153   3.867   8.479  13.524 -0.0630  0.0525 -0.0906
18685W        W34154  18.462  15.070   2.445  0.2236 -0.0448 -0.1742
18686W        W34155   6.986   8.870  12.112 -0.0442  0.2747 -0.0663
18687W        W34156  15.576   4.228   9.533 -0.1946 -0.0149 -0.4472
18688W        W34157  13.641   7.230  12.159  0.1137  0.2010 -0.0496
18689W        W34158  16.657  10.386  12.186 -0.0219  0.0336 -0.2203
18690W        W34159  13.756   0.159  13.679 -0.1057  0.3248 -0.0392
18691W        W34160   3.000   8.584  14.973  0.1650 -0.0803 -0.3751
18692W        W34161   8.591  16.450  13.916 -0.1162 -0.3622  0.1294
18693W        W34162  18.678  16.660  15.520 -0.2089  0.0819 -0.0465
18694W        W34163  17.768   6.493   1.740  0.3153 -0.0764  0.3250
18695W        W34164  11.590  13.192  12.820  0.0564 -0.1438 -0.3140
18696W        W34165   2.720  17.366  12.248  0.3012  0.1326 -0.1994
18697W        W34166   3.519   0.329   5.144  0.2646 -0.1862 -0.0602
18698W        W34167  12.983   0.221   2.691 -0.2758  0.3875  0.0711
18699W        W34168  15.891   9.575   1.079 -0.1092  0.5808 -0.2293
18700W        W34169  14.116  17.981   2.331 -0.2410 -0.1559 -0.0155
18701W        W34170  16.559  12.740   4.101 -0.2026 -0.0265 -0.2076
18702W        W34171   2.586  10.784  12.810  0.3195  0.3009  0.2364
18703W        W34172   9.743  14.151   2.985  0.1924  0.1688  0.2519
18704W        W34173  17.718   6.981   0.252  0.0931 -0.3634  0.1582
18705W        W34174  13.030  16.264   1.696  0.1252 -0.1253  0.1032
18706W        W34175   8.845   8.553   2.134  0.3232  0.1696  0.1237
18707W        W34176  13.801   2.346   0.749  0.0250  0.2402  0.2673
18708W        W34177   8.771  17.843  12.650 -0.1279 -0.1435  0.2461
18709W        W34178  13.539  15.026  14.430 -0.1892 -0.1604  0.0493
18710W        W34179  14.070  12.559  13.483 -0.3077 -0.3661 -0.4238
18711W        W34180  13.332   4.504  11.114  0.1799 -0.2515  0.0524
18712W        W34181   4.866   5.954  14.670 -0.2553 -0.2532  0.4440
18713W        W34182  16.283  10.539   1.298 -0.0885  0.2555  0.1317
18714W        W34183   7.536  10.861   2.687 -0.1954 -0.0960 -0.2551
18715W        W34184  12.948  14.359   1.142 -0.1113 -0.1736  0.2054
18716W        W34185   9.245   2.154  10.751 -0.1431 -0.0577  0.1035
18717W        W34186  15.254   1.250  15.496 -0.0328 -0.0613  0.4586
18718W        W34187  15.528  12.716   1.574  0.4406  0.2649  0.0318
18719W        W34188   8.999  10.073  10.038  0.2696 -0.0700  0.1131
18720W        W34189   9.923  13.645  13.444 -0.0656 -0.1630 -0.1004
18721W        W34190  12.830  18.528  13.519  0.0521  0.3452  0.1606
18722W        W34191   6.125   4.257   5.308 -0.1069  0.1877  0.0512
18723W        W34192   1.829   6.286   1.030  0.0747  0.3527 -0.3316
18724W        W34193  17.816  14.301   0.434  0.0053 -0.2353  0.1758
18725W        W34194   5.417   2.351  13.310 -0.3422  0.0408  0.3037
18726W        W34195   6.564   6.864  12.409  0.0055  0.1486  0.3162
18727W        W34196  11.511  17.242  15.446 -0.0311 -0.0060  0.2249
18728W        W34197   0.667   2.652  14.720  0.1607  0.1433  0.0489
18729W        W34198  14.868  10.267  15.038  0.0166  0.2342 -0.2228
18730W        W34199  16.307  14.438  14.393 -0.2141  0.1759 -0.0939
18731W        W34200   6.286  11.943  11.942  0.2723  0.1068 -0.3932
18732W        W34201  16.665  10.912  11.289 -0.1643  0.0581  0.0439
18733W        W34202  18.534  12.030  12.368 -0.3426 -0.0052  0.0571
18734W        W34203  14.953   9.467   0.683 -0.0519  0.0678 -0.1645
18735W        W34204  17.768  10.348   0.262 -0.0897 -0.0370 -0.2303
18736W        W34205  15.223  10.920   2.452  0.1364 -0.0034 -0.2240
18737W        W34206   0.655   2.123  14.596  0.1525 -0.2669 -0.1499
18738W        W34207  18.686  13.051   3.741  0.4908 -0.2944 -0.5502
18739W        W34208   6.168  17.424  15.095  0.1262  0.0431  0.2371
18740W        W34209   1.184   6.171   0.262  0.0289 -0.1691  0.1523
18741W        W34210   1.945   9.909   3.851  0.2036 -0.1354  0.0002
18742W        W34211   3.280   4.893   4.650 -0.2425 -0.2936 -0.1280
18743W        W34212  17.455  14.493   3.378 -0.0308  0.0873 -0.2982
18744W        W34213  17.318  13.453   0.404  0.2881  0.2717 -0.0397
18745W        W34214   6.366   9.929  15.122  0.0774 -0.1489  0.1543
18746W        W34215   5.305   5.155   0.215 -0.1954  0.4848 -0.1363
18747W        W34216   7.967  17.545  14.080 -0.1704 -0.1604  0.1101
18748W        W34217   7.497  17.938   4.388  0.0983 -0.1394 -0.1532
18749W        W34218  17.990   0.377  12.091 -0.4371 -0.1573  0.0632
18750W        W34219   4.102   6.361  11.788  0.0067  0.0190 -0.2115
18751W        W34220  15.315  16.526   5.144 -0.4834  0.0935 -0.0025
18752W        W34221   9.690  15.454   4.664  0.0728 -0.0374  0.2681
18753W        W34222  17.214  12.248   2.271 -0.3493 -0.4192 -0.2271
18754W        W34223  10.071   9.061  10.994  0.2633  0.2581  0.1249
18755W        W34224   6.168   4.545  14.773  0.0653 -0.1792 -0.0838
18756W        W34225   1.216  12.496  12.835  0.0204 -0.1155  0.1223
18757W        W34226   4.987  15.555   1.272  0.0502 -0.0720 -0.0291
18758W        W34227  13.412  16.864   2.138 -0.0874 -0.0104 -0.2589
18759W        W34228  16.824   3.337   5.895 -0.4446  0.2403  0.0864
18760W        W34229   9.636   0.464  14.571 -0.0413 -0.2919  0.0867
18761W        W34230  15.205  17.971  11.559  0.2877  0.0375  0.0628
18762W        W34231  14.379  17.133   4.084  0.2417 -0.3251 -0.1365
18763W        W34232   2.151   8.813   1.423  0.1214 -0.6826 -0.1851
18764W        W34233  16.745  16.048  15.115  0.0077  0.1138 -0.2432
18765W        W34234   7.456   7.166   4.180 -0.2434 -0.0321 -0.1182
18766W        W34235  18.255   2.415   0.854 -0.0429  0.1935  0.3734
18767W        W34236   7.986  17.991   1.115  0.1874  0.0115 -0.0600
18768W        W34237   1.743   6.530  14.890  0.2335  0.4319  0.1550
18769W        W34238   1.216  11.364   3.639 -0.2075 -0.1231  0.1670
18770W        W34239  10.725   1.715   4.736 -0.3048  0.0311 -0.2248
18771W        W34240  11.678   5.976  13.038 -0.0093  0.1157  0.3470
18772W        W34241  17.538  17.021   3.087  0.1467 -0.0461  0.1312
18773W        W34242  11.273   9.913   4.567 -0.3758 -0.2142  0.3579
18774W        W34243   7.452  11.095  14.234 -0.0289 -0.2373  0.2701
18775W        W34244   2.001  14.033   2.713  0.1166 -0.1680  0.1035
18776W        W34245  14.510  13.686   4.023  0.1494  0.0447 -0.0821
18777W        W34246  16.134   5.396  11.683  0.2583 -0.0726  0.0066
18778W        W34247  10.544   9.231  15.508  0.1590 -0.1513  0.1964
18779W        W34248  16.909   0.135  14.481  0.0355  0.4901  0.0517
18780W        W34249  13.409  14.904  15.439 -0.3344  0.1955  0.1304
18781W        W34250   2.129  16.757  12.677 -0.0123  0.0155  0.0306
18782W        W34251  10.875   2.390  13.825 -0.2812  0.0372  0.2156
18783W        W34252  18.244  18.715   2.588 -0.2085 -0.1031 -0.1151
18784W        W34253  18.435  17.218  13.385  0.1526 -0.0720 -0.1089
18785W        W34254   5.680   0.985   1.967 -0.1566 -0.1679  0.0067
18786W        W34255   7.086   1.940  15.224  0.0357 -0.4676  0.1012
18787W        W34256   5.154   1.420  11.711 -0.0595  0.2009  0.0138
18788W        W34257   3.370  15.863   4.035  0.1433 -0.0357 -0.2696
18789W        W34258  10.933   9.036  14.244 -0.1304  0.0256 -0.2200
18790W        W34259  13.314  17.660  11.794  0.0424 -0.0470 -0.2619
18791W        W34260  11.891  17.421   2.750  0.4740  0.0601  0.2152
18792W        W34261   7.516   7.860  12.077 -0.3901 -0.1775  0.0383
18793W        W34262  16.636  12.512   0.217  0.0560  0.1142 -0.3895
18794W        W34263   3.711  17.879  12.113  0.0024  0.1103 -0.1422
18795W        W34264  14.161   0.261  12.239 -0.0749 -0.4762 -0.0113
18796W        W34265  12.096   3.122   3.742 -0.0053 -0.1612 -0.1890
18797W        W34266  13.778  10.377   4.207 -0.0581 -0.1416 -0.0170
18798W        W34267   3.928   3.750   4.192 -0.1315  0.0723 -0.0872
18799W        W34268  16.915   8.774   9.973 -0.0123  0.1628 -0.2919
18800W        W34269   7.703  15.260  15.318 -0.0798  0.0087 -0.0219
18801W        W34270   9.167   5.822   1.604 -0.1473 -0.0322 -0.2983
18802W        W34271  17.643  11.954  11.945 -0.0163 -0.2062 -0.0427
18803W        W34272   1.176   7.909   4.144 -0.0095  0.3098 -0.2541
18804W        W34273   4.925   5.441  14.640 -0.1109  0.1121  0.0950
18805W        W34274  14.601   3.866   3.484  0.2016 -0.1130 -0.0273
18806W        W34275  16.697   9.412   0.684 -0.1810 -0.3321 -0.1892
18807W        W34276   1.027  15.083   1.410  0.1504 -0.1175  0.0263
18808W        W34277  13.648   6.606  10.953  0.1375  0.0246 -0.0591
18809W        W34278   1.124   6.713   4.679 -0.1954  0.1310 -0.0759
18810W        W34279   0.258  12.028   0.796 -0.1294  0.0659 -0.1662
18811W        W34280   8.109   8.725   3.205 -0.1267  0.0352 -0.2007
18812W        W34281  12.313  17.811  15.372  0.1269 -0.0053  0.1327
18813W        W34282   1.096  12.832  12.035  0.3184  0.1544  0.1014
18814W        W34283   4.755   0.662   2.184  0.2967 -0.4180 -0.2628
18815W        W34284  12.174   6.431  10.742  0.2746  0.0124  0.0456
18816W        W34285   3.793  12.026   2.428  0.2275  0.2770  0.3506
18817W        W34286   6.800  11.937   0.116 -0.0382 -0.1667  0.0233
18818W        W34287   9.397   6.819   3.218 -0.2467 -0.0606  0.1434
18819W        W34288  10.463   0.526  14.025 -0.4129 -0.1769 -0.0619
18820W        W34289   1.726   2.454  11.347  0.0667  0.0607  0.2061
18821W        W34290  12.171   1.131  15.053  0.0060 -0.0207  0.0498
18822W        W34291   5.381  10.134  13.643  0.1391 -0.2281 -0.2953
18823W        W34292  15.781  10.303   3.640  0.3012  0.1223  0.1709
18824W        W34293   1.611   4.760  13.874  0.3266 -0.1258  0.0877
18825W        W34294   2.758  10.802  12.346 -0.0697 -0.0693  0.1100
18826W        W34295  18.401  15.504  12.018 -0.2281 -0.0843 -0.0348
18827W        W34296   4.165  10.160   2.737 -0.0042  0.1288  0.0388
18828W        W34297   4.095  11.669   2.173 -0.2049  0.2310 -0.0981
18829W        W34298   0.333  16.466   2.353  0.3990  0.1904 -0.2667
18830W        W34299  11.580   2.256  11.710 -0.1260  0.1049  0.3577
18831W        W34300   2.367   1.415   4.647  0.2788  0.1622  0.1271
18832W        W34301   3.637  11.134  10.487  0.0846  0.0322 -0.4050
18833W        W34302   5.237  10.344  12.219  0.3575 -0.0429 -0.2634
18834W        W34303  11.226   9.842  14.186 -0.1209 -0.1030  0.0653
18835W        W34304  12.239   8.598   1.072 -0.5439  0.2614 -0.1443
18836W        W34305   2.915   3.812  14.232 -0.1849  0.2970  0.0305
18837W        W34306   2.229   9.812  12.176  0.5375 -0.0440 -0.0789
18838W        W34307  16.506   8.504   1.075 -0.2720 -0.0888  0.0452
18839W        W34308   1.360   4.656  14.394  0.1652  0.1962  0.0175
18840W        W34309  17.641   4.498  13.770  0.0258 -0.0331  0.4087
18841W        W34310   5.658   9.242   3.307  0.4146 -0.0405 -0.0778
18842W        W34311   4.579  13.673  15.377 -0.0065  0.3918  0.2153
18843W        W34312   8.965   5.194  10.962 -0.1882 -0.1562 -0.0224
18844W        W34313  17.137  14.209  15.473  0.2324  0.0851 -0.0581
18845W        W34314  14.952  18.388   2.018  0.0683 -0.0663  0.1688
18846W        W34315  16.642   8.583  10.880 -0.0327 -0.0434  0.1336
18847W        W34316  15.859   8.809   2.531 -0.0450 -0.2037 -0.0061
18848W        W34317  10.102   7.463  14.996 -0.4554  0.0859  0.1363
18849W        W34318   8.760  11.619   4.515 -0.2915 -0.0143 -0.1403
18850W        W34319   6.214   7.706   3.764 -0.0323 -0.3397 -0.1668
18851W        W34320  10.895  15.939  14.623 -0.3740 -0.1445  0.0643
18852W        W34321  11.748  16.900  12.374 -0.1665  0.0180 -0.2643
18853W        W34322   8.428  12.185   1.296 -0.1687 -0.4811 -0.1486
18854W        W34323   2.738   8.126  13.795  0.2967 -0.2187 -0.1818
18855W        W34324   8.687  18.059  13.678 -0.1216  0.0348  0.1650
18856W        W34325   6.219  13.553   2.850 -0.2633 -0.0055  0.1327
18857W        W34326   5.982  11.758   0.228 -0.1447 -0.1566  0.1352
18858W        W34327   4.827  10.031   2.686 -0.0261  0.0095  0.0483
18859W        W34328  13.149  16.739   3.477  0.0228  0.5594 -0.2808
18860W        W34329  16.210  13.775   2.652  0.0492  0.1701 -0.1610
18861W        W34330   3.287   7.971  12.064  0.1164  0.1279 -0.0070
18862W        W34331   4.427   5.766   0.978 -0.0141  0.0569 -0.2431
18863W        W34332  11.041   7.390  14.398  0.2629  0.0979  0.1599
18864W        W34333   5.818  16.447   1.420 -0.1132  0.3213 -0.3012
18865W        W34334   0.475  16.746   0.521  0.2887 -0.1638  0.0392
18866W        W34335   1.056  14.244   1.689  0.1857 -0.1886  0.1042
18867W        W34336  18.363  12.683   1.204 -0.3385  0.0667  0.1692
18868W        W34337   2.249   2.173   3.889 -0.0756 -0.1099 -0.0343
18869W        W34338   1.725  11.486  12.335  0.0690  0.0231  0.0288
18870W        W34339   6.507  10.519   3.821 -0.0401 -0.1460 -0.0356
18871W        W34340  12.789  10.181   3.342  0.1576  0.2345 -0.0129
18872W        W34341   9.488   0.918  11.403 -0.0811 -0.0034  0.0469
18873W        W34342  13.122  17.763   3.672 -0.2625  0.1554  0.1253
18874W        W34343   5.282  15.385  12.126 -0.0149 -0.3043 -0.1794
18875W        W34344   8.138  13.673  11.759 -0.2138 -0.1729  0.0208
18876W        W34345  14.086   3.793  15.251  0.1655  0.3205 -0.0416
18877W        W34346   1.776   6.713   0.745 -0.0406 -0.2530  0.4131
18878W        W34347  12.901  11.207  15.109 -0.0158  0.0740  0.1136
18879W        W34348   2.031  18.026  14.184 -0.1991 -0.2304 -0.2413
18880W        W34349   4.085  14.092  14.874 -0.2535  0.3001 -0.2592
18881W        W34350   6.107   3.192  13.070 -0.0057 -0.0143  0.6478
18882W        W34351   7.681   0.376   0.250  0.1271  0.0662 -0.1420
18883W        W34352  14.356  12.572  15.537 -0.0595  0.0394  0.0466
18884W        W34353  15.894  17.360  14.390 -0.0999  0.1216  0.0413
18885W        W34354  17.494   8.869   4.423 -0.2232 -0.0554 -0.2481
18886W        W34355   7.215  14.790   3.331  0.2876  0.1204 -0.0802
18887W        W34356  17.598  15.630  11.801 -0.0623  0.1096 -0.0916
18888W        W34357   1.868   5.016   0.029  0.1461  0.0346  0.0343
18889W        W34358  16.376   7.114   1.709  0.2320  0.0197  0.0125
18890W        W34359   7.075   9.870  12.701  0.0005 -0.1851  0.2168
18891W        W34360  10.070  16.815  15.475 -0.0603 -0.0206  0.2913
18892W        W34361   5.532   5.920   0.273  0.3808  0.2753 -0.1286
18893W        W34362  14.888   4.852   3.720 -0.0630 -0.0040 -0.1982
18894W        W34363  15.207   2.427  13.238  0.0850 -0.2929  0.0756
18895W        W34364   1.283  13.500  15.558  0.2349  0.1286 -0.0600
18896W        W34365   5.589  10.078   1.959  0.2889 -0.0879 -0.2669
18897W        W34366   5.697   1.305   5.340  0.1975  0.0515 -0.1760
18898W        W34367   8.846   2.866   2.088  0.1871  0.1767  0.0579
18899W        W34368  10.201  17.635   1.275  0.1203 -0.0490 -0.1393
18900W        W34369  13.328  18.309  14.306  0.1901  0.1958  0.0242
18901W        W34370   4.170  16.601  10.063 -0.1301  0.2850  0.1108
18902W        W34371  11.958   3.347   0.787  0.1940 -0.0632 -0.1387
18903W        W34372   1.978  16.402   1.358 -0.0876  0.1832 -0.1256
18904W        W34373  17.918   9.635  14.251  0.0167 -0.0865 -0.1710
18905W        W34374  10.075  15.055   1.921  0.0704  0.1673 -0.0326
18906W        W34375   6.725   0.860  13.096 -0.0086  0.2625 -0.2722
18907W        W34376   3.646  13.082   0.924  0.0544  0.1309 -0.2991
18908W        W34377   1.334   4.414  13.542 -0.3113 -0.1151  0.3315
18909W        W34378  17.574   3.195   3.639 -0.1116 -0.1271  0.3119
18910W        W34379   5.241   2.920  10.928  0.0288 -0.1711 -0.0330
18911W        W34380   1.804   9.591  14.157  0.2306  0.1630  0.3009
18912W        W34381  10.220  11.020  12.593 -0.0515 -0.2198  0.0758
18913W        W34382   7.709  14.223  13.374 -0.2578 -0.0702 -0.0449
18914W        W34383  11.949  13.501  13.073  0.0163 -0.3001  0.0125
18915W        W34384   0.688   0.242   9.748  0.0323 -0.3109  0.1252
18916W        W34385   1.469  10.081   3.813  0.2850  0.0097 -0.1616
18917W        W34386  11.471  17.067   2.389 -0.0827 -0.0357  0.1682
18918W        W34387  14.737   9.051  13.642  0.1819  0.0849 -0.2243
18919W        W34388  10.248   4.294  11.308  0.0232  0.0974 -0.2104
18920W        W34389   7.463   3.132  13.140 -0.1267 -0.2393 -0.3162
18921W        W34390   2.607   4.596   0.141  0.1813 -0.0572 -0.0099
18922W        W34391   7.499   8.800  15.674 -0.0698 -0.0057  0.0763
18923W        W34392  10.043   5.577  13.557 -0.2589  0.0847  0.1588
18924W        W34393   5.815   6.906   1.333  0.0873 -0.3983 -0.3214
18925W        W34394  14.544  17.145  12.200  0.1183 -0.1470  0.0632
18926W        W34395  14.485   4.090  10.917  0.0837 -0.1965 -0.1927
18927W        W34396  17.694  12.594   5.827  0.2444  0.1656  0.1752
18928W        W34397   0.625  17.338   4.855 -0.3233 -0.1795 -0.0719
18929W        W34398   4.992  12.258  13.511 -0.1995  0.1845 -0.1737
18930W        W34399   9.178  16.932   2.739  0.1039  0.0063  0.0981
18931W        W34400  13.282  11.714  10.455 -0.1579 -0.3628  0.0328
18932W        W34401  16.884  18.220   1.319 -0.4659  0.0841 -0.0562
18933W        W34402   0.644   9.715   2.941  0.1880  0.0548  0.0566
18934W        W34403  13.812  18.002  12.707  0.1448 -0.2203 -0.2037
18935W        W34404  17.897  10.400   4.502  0.1443  0.0935 -0.2006
18936W        W34405  15.423   5.424   0.534  0.0269  0.2520 -0.2404
18937W        W34406   6.896   6.137   1.085 -0.1505  0.1895  0.2919
18938W        W34407   0.410   0.570  13.637  0.4945  0.2951 -0.2271
18939W        W34408   8.683   1.998   1.344  0.0677 -0.1544 -0.0226
18940W        W34409  10.244   7.374   4.010 -0.1254  0.3243  0.0673
18941W        W34410  17.490   2.488   0.614 -0.0615 -0.3266  0.0222
18942W        W34411  15.784   6.000   1.679 -0.0237 -0.0825 -0.0715
18943W        W34412  17.537   8.172   0.896 -0.2803  0.3835  0.2173
18944W        W34413  10.176   8.368  13.383 -0.0779  0.0996 -0.1353
18945W        W34414  11.959  10.236   5.797  0.0815 -0.0414  0.0014
18946W        W34415  12.921   2.418   2.663 -0.0768  0.5068  0.2227
18947W        W34416   4.164  12.195   2.100 -0.3472  0.2137 -0.2700
18948W        W34417   6.813  16.579   0.045 -0.1598  0.5435 -0.1651
18949W        W34418   9.387  12.431   0.629  0.3707 -0.1006  0.1239
18950W        W34419   0.075   9.561  14.028 -0.0368  0.0799 -0.3382
18951W        W34420  15.677   2.810   4.672  0.1176 -0.1423 -0.2480
18952W        W34421   2.575  10.683   4.090  0.2155 -0.2105 -0.1503
18953W        W34422  17.106  11.741  11.835  0.1535  0.2445 -0.3891
18954W        W34423  15.622  15.410   2.593  0.3612 -0.0772 -0.0820
18955W        W34424   9.043   4.495   3.777  0.1387 -0.3068  0.0340
18956W        W34425  13.018  11.946   2.493  0.0532 -0.0700  0.2621
18957W        W34426  12.878  15.527   5.442  0.2392  0.1461  0.0994
18958W        W34427  11.138  13.097   1.006  0.0404 -0.0395 -0.1799
18959W        W34428   8.911   3.006   2.736  0.0411  0.0385 -0.0216
18960W        W34429  12.181   8.465  12.902 -0.4411  0.2204 -0.1375
18961W        W34430   4.095  10.100  10.562 -0.0343  0.3167  0.1071
18962W        W34431  16.790   8.521   3.901 -0.3352  0.0128 -0.2776
18963W        W34432  13.499   9.273   2.742  0.2032  0.0200  0.2152
18964W        W34433   8.120   8.939  11.675  0.4079  0.3139 -0.0797
18965W        W34434   1.897  14.527  15.014  0.1409 -0.1776  0.1209
18966W        W34435  15.060   3.297  12.706  0.2296  0.0807 -0.1332
18967W        W34436  13.502  14.787  11.080 -0.2315 -0.0990  0.1361
18968W        W34437  17.475   8.610   2.640 -0.0813 -0.3635  0.0660
18969W        W34438  18.245  13.907   5.504  0.3045 -0.0147 -0.0745
18970W        W34439  18.050  11.712   5.446  0.2925 -0.1489 -0.2626
18971W        W34440  10.626  13.470  13.858  0.0017 -0.3062 -0.1187
18972W        W34441   3.065   6.761  13.706  0.0810 -0.0366 -0.0377
18973W        W34442   6.565   7.697   3.311  0.1121  0.1827  0.1681
18974W        W34443   7.522   0.356  15.414 -0.0178 -0.1174  0.0819
18975W        W34444  18.387   6.419   0.883  0.2306  0.1909  0.1497
18976W        W34445  10.727  12.127   3.281  0.2726 -0.4492  0.0177
18977W        W34446   9.377  10.297  12.199 -0.2453 -0.2186 -0.1694
18978W        W34447   0.278   0.990   5.469  0.3952 -0.1932 -0.0272
18979W        W34448  16.494   7.385  11.199 -0.0915 -0.2521  0.2967
18980W        W34449  13.365   1.244  11.709  0.1743  0.0136 -0.3769
18981W        W34450  16.624   8.410   2.050 -0.0335  0.1775 -0.1435
18982W        W34451  17.690   9.117  10.114  0.4870 -0.1085 -0.2201
18983W        W34452   5.920  15.138   2.690 -0.2467 -0.1518 -0.1696
18984W        W34453  17.393   1.085   1.448  0.1911  0.0504 -0.1513
18985W        W34454   0.167   8.145   1.513  0.0845  0.0776  0.0260
18986W        W34455   7.891   7.084  10.470 -0.0793 -0.0282 -0.2812
18987W        W34456   6.175  14.226  14.300  0.1421  0.0347 -0.4259
18988W        W34457  10.640   8.980   2.323  0.0140 -0.1785  0.2669
18989W        W34458   4.086   1.860   0.542  0.0595  0.2329  0.3660
18990W        W34459  10.959   7.748  11.851 -0.0916  0.1349  0.0273
18991W        W34460   2.702  15.185  13.914 -0.1886  0.0191  0.2153
18992W        W34461   9.198   8.944  11.666 -0.1069  0.2182 -0.1946
18993W        W34462   4.339   8.512  11.101 -0.0731  0.1148 -0.0307
18994W        W34463  17.387  14.626   2.485  0.4012 -0.1825  0.3492
18995W        W34464  18.555  12.264  11.376  0.1585 -0.2625  0.1414
18996W        W34465   0.533   1.627   2.986 -0.1383  0.1434  0.0717
18997W        W34466   1.411   8.376  14.103  0.1598 -0.1484  0.1364
18998W        W34467  15.723   8.498   3.683  0.2229 -0.1694 -0.0840
18999W        W34468  14.659  15.455  13.578  0.5128 -0.0845 -0.1297
19000W        W34469   2.302  17.739  13.169  0.4308  0.0995 -0.1020
19001W        W34470  13.286  17.167  15.648  0.3875 -0.1717 -0.0902
19002W        W34471  12.259  12.097   3.119 -0.2803  0.0236  0.1117
19003W        W34472  14.783   2.038   1.695 -0.0803 -0.1617  0.5267
19004W        W34473  14.711   9.392   9.914 -0.1032  0.1575  0.1987
19005W        W34474  14.109   0.269   2.277 -0.4498 -0.2541 -0.3567
19006W        W34475   7.070  17.913   3.621 -0.1112 -0.2455 -0.1818
19007W        W34476   7.943  10.327   3.471 -0.0353  0.2095 -0.3600
19008W        W34477   2.417  10.036   2.466 -0.1221  0.1218 -0.0348
19009W        W34478  12.481   8.407  14.580  0.2255 -0.0707  0.2215
19010W        W34479   9.203   3.765  14.420  0.0917 -0.1451  0.0838
19011W        W34480   5.471  10.615  12.593 -0.2124  0.0508 -0.0864
19012W        W34481  13.682  16.302   3.727  0.1200 -0.2160 -0.0517
19013W        W34482   7.905  18.506  13.008  0.1671 -0.0261 -0.0187
19014W        W34483  16.587  14.090  12.077  0.4716 -0.0888  0.4411
19015W        W34484   8.518   3.624   3.708 -0.0005 -0.2056  0.0396
19016W        W34485  15.343   7.251   1.185 -0.2285  0.1122 -0.2164
19017W        W34486  10.734  13.954   1.047  0.2336 -0.2591 -0.0629
19018W        W34487   2.701  11.613  13.818 -0.0200  0.0526  0.0193
19019W        W34488  15.929   4.491   1.873  0.2674  0.0495 -0.2161
19020W        W34489  17.731   5.790  13.984 -0.3814 -0.1083  0.2598
19021W        W34490  12.428  14.236  11.270 -0.0895 -0.0354 -0.3091
19022W        W34491  12.273  16.851  15.369 -0.0618  0.0157  0.1499
19023W        W34492   7.948  11.879  11.348 -0.0405 -0.0224 -0.0155
19024W        W34493   6.393   3.045  14.276 -0.1412  0.1530  0.0133
19025W        W34494  16.756   2.575   4.762 -0.1636  0.1015  0.0702
19026W        W34495   6.496   4.206   2.132  0.0047  0.1466  0.4021
19027W        W34496  14.309  11.648   1.919 -0.5790  0.0001 -0.1815
19028W        W34497  13.331  13.037   3.310  0.1293 -0.0413  0.2058
19029W        W34498   7.117  13.620  12.254  0.2244 -0.2144  0.1264
19030W        W34499   2.618  15.291   5.704 -0.1486  0.0521 -0.0940
19031W        W34500  15.473   8.302   0.099  0.2139  0.1658  0.0611
19032W        W34501   2.506   6.803  12.452 -0.1055  0.0477  0.0136
19033W        W34502  18.289  13.710   4.384 -0.2396  0.2322  0.0048
19034W        W34503   2.682   0.090  13.917 -0.1385  0.2379  0.0300
19035W        W34504  15.376  13.419   2.443 -0.0135 -0.0615  0.2981
19036W        W34505   5.002   1.201  10.732 -0.2079  0.0485  0.0617
19037W        W34506  17.782  17.528   1.231  0.1299 -0.1203 -0.1327
19038W        W34507   3.623  10.266  12.126  0.1029  0.1595 -0.0094
19039W        W34508   7.436  12.572   9.608 -0.2673  0.2025 -0.1228
19040W        W34509   4.115   4.101  10.654  0.0341  0.1516  0.1838
19041W        W34510   4.092   4.894  10.556 -0.2434 -0.0451  0.0875
19042W        W34511  12.574   6.159   0.401 -0.0374 -0.4538  0.3402
19043W        W34512  16.523  15.964   2.810 -0.1403 -0.0145 -0.1383
19044W        W34513  17.559   0.455  15.537  0.2891 -0.0274 -0.0220
19045W        W34514  12.576   7.402   6.223  0.3778 -0.0409  0.2944
19046W        W34515   9.104  14.609   1.843  0.0101  0.0215  0.1526
19047W        W34516  11.494   0.047  15.554  0.0337 -0.2383 -0.2746
19048W        W34517  13.361  13.651   1.913  0.0022  0.0391  0.0638
19049W        W34518  15.037   2.617   1.739 -0.1227  0.1112 -0.0883
19050W        W34519   9.306   4.011  13.956 -0.4010 -0.0949  0.4598
19051W        W34520   1.843  12.429  13.574  0.1053  0.2199 -0.4411
19052W        W34521  13.516   5.367  12.924  0.0249  0.0972  0.0459
19053W        W34522   3.125   7.351   1.862  0.0809  0.1717  0.0059
19054W        W34523  17.632  15.368   3.046 -0.1046  0.3648  0.1423
19055W        W34524   3.349   1.076  11.409 -0.3188  0.2098 -0.2156
19056W        W34525  14.101   5.282   3.148 -0.2128  0.0574 -0.0669
19057W        W34526  11.272   8.828  12.531  0.0723  0.1748 -0.2978
19058W        W34527   5.287  16.843  14.143 -0.0462 -0.4577 -0.2716
19059W        W34528   6.422  10.938  10.892 -0.2185  0.1805  0.2625
19060W        W34529  12.324   4.031   2.635 -0.2042 -0.3010 -0.1816
19061W        W34530   3.057   7.419   4.724 -0.1423 -0.0549 -0.0047
19062W        W34531   4.577  17.938   3.685 -0.1805  0.3562  0.1305
19063W        W34532   0.920  10.787   1.869 -0.0878  0.2416 -0.3246
19064W        W34533  17.214  10.474   0.966 -0.0545 -0.1257 -0.2095
19065W        W34534  17.997   9.147  14.100  0.1914 -0.0601 -0.1900
19066W        W34535   0.719   4.956  15.094 -0.1469  0.0714  0.2707
19067W        W34536   7.866   7.064   1.578  0.1725  0.4863  0.0993
19068W        W34537   2.211   0.231  10.807  0.2827 -0.1135  0.2832
19069W        W34538  15.357   2.156   3.199  0.0749  0.0148  0.2918
19070W        W34539   6.390  12.344   9.269  0.3837  0.0459  0.0138
19071W        W34540  11.227  11.436   2.164  0.0895  0.1424  0.1462
19072W        W34541   4.317   7.676   4.119  0.2268  0.1326 -0.2822
19073W        W34542   5.415  12.788   0.512 -0.1485 -0.0752  0.0465
19074W        W34543  10.043   8.889   5.194 -0.1904  0.2211  0.5176
19075W        W34544  14.999   2.817   5.080  0.0022  0.0634 -0.2030
19076W        W34545  16.044  13.468  11.489 -0.2438  0.3567  0.1919
19077W        W34546  10.129  14.425   3.775 -0.1139  0.1122 -0.0787
19078W        W34547   8.236   8.658  12.691  0.0911  0.1918  0.0550
19079W        W34548   8.036  15.687  15.563 -0.3031 -0.0324 -0.0528
19080W        W34549  12.321  16.671  12.275 -0.2582 -0.2576  0.1672
19081W        W34550   9.726  15.867   4.269 -0.2960 -0.0835 -0.2073
19082W        W34551   9.712   6.951  13.004 -0.2494 -0.0578 -0.0367
19083W        W34552   0.818  12.929  15.247 -0.2144 -0.1390  0.4377
19084W        W34553  18.456   3.271   0.507  0.1990 -0.2046  0.0516
19085W        W34554  12.866   5.235   0.199  0.3156 -0.0121 -0.2611
19086W        W34555  11.079   0.196  13.127  0.0998  0.2368 -0.1536
19087W        W34556  14.489   9.709   0.395 -0.0607 -0.1703  0.1268
19088W        W34557   6.300  15.321   3.905 -0.1819 -0.0142 -0.1176
19089W        W34558   6.707  11.814   1.468 -0.2103  0.2544 -0.1135
19090W        W34559  12.567  15.548  12.629 -0.2671 -0.1642 -0.0362
19091W        W34560  14.937   3.474  12.284 -0.0325 -0.1381 -0.0411
19092W        W34561   7.299   7.241  15.651  0.0738 -0.0359  0.2298
19093W        W34562  14.821  13.884  12.347  0.0498  0.2086  0.0795
19094W        W34563   1.218   6.181  12.401  0.1532  0.0593  0.2429
19095W        W34564   1.477   8.127  13.032  0.0391 -0.0623 -0.1116
19096W        W34565  17.460  15.980   1.231  0.2150 -0.2548 -0.1721
19097W        W34566   0.238   9.609  15.602 -0.1054  0.1402  0.1967
19098W        W34567   7.331   5.383   0.548 -0.0470 -0.4848 -0.4862
19099W        W34568  17.741  10.053   3.551 -0.0260 -0.3958  0.0185
19100W        W34569   5.288  15.571  13.991  0.0935  0.1840  0.3302
19101W        W34570  15.476  17.099  15.120 -0.3310  0.1657  0.2578
19102W        W34571   4.858   0.531  14.382 -0.1232 -0.2406  0.3875
19103W        W34572  14.534   2.052   0.988 -0.1238 -0.1246 -0.0786
19104W        W34573   6.176   7.813  10.582 -0.0557  0.1940 -0.0142
19105W        W34574  10.444  14.539   5.176 -0.0360 -0.1286 -0.1441
19106W        W34575   5.115   9.564   2.723 -0.0704 -0.0465 -0.0527
19107W        W34576  17.066   3.057   5.030  0.0010  0.1488 -0.0119
19108W        W34577  16.570   7.364   4.489 -0.2136  0.1425 -0.0165
19109W        W34578   1.830  14.595   5.936 -0.4124 -0.0473 -0.2782
19110W        W34579   4.560  10.037   4.791 -0.0012  0.1610  0.0931
19111W        W34580   7.843  11.896  15.461 -0.2991 -0.2794  0.2540
19112W        W34581  10.958   7.015   4.187  0.0095 -0.0757 -0.0600
19113W        W34582   2.761  17.319   4.145  0.0197  0.0784  0.3095
19114W        W34583   6.032  14.475  13.862 -0.0136  0.0750 -0.2132
19115W        W34584  13.955  14.918   2.474 -0.1073 -0.0576  0.4522
19116W        W34585  11.558  11.765   3.927 -0.2167  0.1303  0.2604
19117W        W34586   2.008  16.682  11.532 -0.0552  0.1336  0.0413
19118W        W34587   3.041  15.808   1.243 -0.0606 -0.0121  0.2070
19119W        W34588  13.541   6.584   2.900 -0.1077 -0.1769  0.1800
19120W        W34589  16.343  14.684  15.548  0.0264 -0.3114  0.1311
19121W        W34590   2.297  13.473   1.705 -0.2254 -0.0711 -0.2064
19122W        W34591   7.745   8.609  10.896 -0.3136  0.0162 -0.1473
19123W        W34592   2.027  11.196   6.117  0.0447 -0.1990  0.2490
19124W        W34593   9.415   9.416  11.612  0.1197  0.0900  0.0368
19125W        W34594   9.323   0.348   1.123  0.2244  0.1072 -0.1196
19126W        W34595  16.201   8.088  14.342  0.0413  0.3181  0.1105
19127W        W34596   5.481   3.416  14.236  0.0480  0.0579 -0.0749
19128W        W34597  10.986   9.430   3.693  0.0325  0.2792  0.3765
19129W        W34598  11.479  14.751   3.217 -0.0229  0.1908 -0.0629
19130W        W34599   0.801   7.058   3.678  0.1428 -0.3477 -0.0944
19131W        W34600  10.451   6.055  13.586  0.3940  0.1951 -0.0260
19132W        W34601   6.059   7.712   3.281  0.1775 -0.2926 -0.1087
19133W        W34602   3.525  12.232   4.248 -0.5804  0.1120  0.3593
19134W        W34603   1.443  10.167   2.574 -0.3169 -0.0359 -0.0185
19135W        W34604  18.698   7.140   5.177 -0.5859 -0.0222 -0.2660
19136W        W34605  15.564  17.154  12.944 -0.0971  0.0711 -0.2562
19137W        W34606   6.811  16.119  13.931 -0.0965  0.0872 -0.2889
19138W        W34607   1.377   9.267   3.117  0.1607  0.2585  0.1194
19139W        W34608  14.620  14.143   1.711 -0.2794 -0.0867  0.0270
19140W        W34609   7.054   0.792   3.497 -0.1551  0.1352  0.0380
19141W        W34610  13.464   8.212  14.347  0.0286 -0.0230  0.2837
19142W        W34611  13.470  13.138   1.731  0.3075 -0.3573 -0.3921
19143W        W34612  17.545  14.489   5.752 -0.1018  0.4372  0.3152
19144W        W34613   7.810  13.686  13.433  0.1117 -0.0694 -0.0650
19145W        W34614   5.435  15.982   4.760  0.0484  0.0451  0.2128
19146W        W34615   9.121   4.455   2.800 -0.1542  0.1264  0.2112
19147W        W34616   9.082  17.057  12.051 -0.1232  0.2904 -0.1090
19148W        W34617  13.268   3.853  13.684  0.3001  0.3986 -0.1405
19149W        W34618  12.245  10.792  12.540  0.1155  0.1929  0.1070
19150W        W34619   7.197   8.282  14.639  0.2078  0.1504 -0.1828
19151W        W34620  16.793   5.117  11.518  0.2736 -0.1398 -0.0848
19152W        W34621  13.796  16.176  15.468  0.0991  0.1598  0.1435
19153W        W34622  14.348  12.121   6.211  0.2874 -0.3506  0.0937
19154W        W34623   4.463   6.079  14.340  0.1057  0.1170  0.0679
19155W        W34624   0.391  12.936   0.220  0.1784 -0.1236 -0.0691
19156W        W34625  10.294  15.113  12.712  0.0842 -0.1041 -0.1325
19157W        W34626  16.176  11.764   5.958  0.2304 -0.0352 -0.0340
19158W        W34627  17.223   5.091  14.977 -0.1136 -0.0749  0.2538
19159W        W34628   1.202  14.418  15.186 -0.2671  0.0727 -0.3295
19160W        W34629  10.795  15.045   0.807  0.2225 -0.2261 -0.2235
19161W        W34630   9.691   0.454   3.425  0.2211  0.0785 -0.0018
19162W        W34631  15.839   4.678   3.859 -0.1746 -0.0866 -0.4510
19163W        W34632   8.532   6.168   1.378  0.1830 -0.2631  0.3134
19164W        W34633  15.678  11.138   4.586 -0.2591 -0.1734 -0.3553
19165W        W34634   0.997   8.937  12.936 -0.3273  0.0548 -0.1523
19166W        W34635  11.991   0.319  13.614  0.1635 -0.0638  0.6746
19167W        W34636  12.757   2.503   1.841 -0.0242 -0.1929  0.0748
19168W        W34637   6.496  14.948   4.214 -0.4022  0.0635 -0.2185
19169W        W34638  12.989   8.159   4.954  0.2283 -0.2424  0.0502
19170W        W34639   0.069  10.565  14.834  0.0535 -0.0682 -0.0034
19171W        W34640   7.770   3.524  13.285  0.0708  0.0118  0.2249
19172W        W34641   7.295  17.430   5.196  0.3012  0.0288 -0.0568
19173W        W34642   3.794   5.885  11.040  0.0926 -0.2500  0.2232
19174W        W34643   0.186   8.686  13.412 -0.0763 -0.1224  0.3268
19175W        W34644  17.864  10.230  15.485 -0.0723 -0.2225 -0.1429
19176W        W34645   8.610   9.984  14.835 -0.0355 -0.1465  0.7018
19177W        W34646   3.262   6.832  15.044 -0.0597  0.2238 -0.3115
19178W        W34647   0.945  15.759   2.080  0.3837  0.0406 -0.2356
19179W        W34648  14.690  12.464  12.871  0.0555  0.0404  0.1113
19180W        W34649  11.977  16.450  14.329  0.0599 -0.3015  0.2095
19181W        W34650   0.655   2.808  15.277  0.3661  0.1499 -0.4688
19182W        W34651   8.189  10.814   0.748 -0.3698 -0.0729  0.3223
19183W        W34652  17.179   1.611   0.590  0.0418 -0.0546 -0.0203
19184W        W34653   2.452   7.296  11.213 -0.0525 -0.3782 -0.0025
19185W        W34654  15.245   1.690   4.784  0.0180  0.0862  0.0791
19186W        W34655  10.685   3.459  12.638  0.3930 -0.3208  0.0700
19187W        W34656  15.157   1.013   3.411 -0.1289  0.0322 -0.4894
19188W        W34657   8.034   3.421   2.971 -0.0576 -0.1112  0.0407
19189W        W34658   5.132  10.736  13.370 -0.0170 -0.0528 -0.1666
19190W        W34659   6.293  15.802  13.961  0.3013 -0.2154 -0.2449
19191W        W34660   9.083   7.791  12.063  0.0328 -0.0795 -0.1276
19192W        W34661  13.215   7.453   2.582  0.2029 -0.0076  0.2368
19193W        W34662   8.785   2.476  14.450 -0.1640  0.0104 -0.0520
19194W        W34663   2.902   0.484  15.241  0.1580 -0.0283  0.5313
19195W        W34664   3.697   8.946   3.836 -0.0397  0.0964  0.0007
19196W        W34665  18.745  17.002   3.010  0.1228 -0.1723  0.1339
19197W        W34666   1.054   2.627  13.827  0.0712 -0.0898 -0.0112
19198W        W34667  12.147   4.603   0.997 -0.1546  0.0604 -0.0191
19199W        W34668   0.320   7.160  13.664 -0.6756  0.0516  0.1898
19200W        W34669   7.336  11.386  11.538  0.4254  0.2671 -0.2409
19201W        W34670   9.985  18.253   3.128  0.0101  0.0347 -0.0887
19202W        W34671   5.360  16.893  15.185  0.1178  0.1865 -0.1410
19203W        W34672   1.272   7.159   4.914 -0.2328 -0.2814  0.0389
19204W        W34673  10.490   7.335  12.477  0.0575 -0.3109  0.2944
19205W        W34674  17.407  15.492   1.117 -0.0335  0.0315 -0.2117
19206W        W34675  14.157  16.422   3.612  0.1970  0.1930  0.0436
19207W        W34676   4.018   5.421   2.883  0.1662 -0.2556 -0.0138
19208W        W34677   3.664   4.691   0.230  0.1834 -0.0164  0.0764
19209W        W34678   6.087   9.681  10.838 -0.0001  0.1089  0.0604
19210W        W34679   0.980   8.765   4.255 -0.2865 -0.2290 -0.1131
19211W        W34680   1.076   3.435  13.892  0.1182 -0.0890  0.4988
19212W        W34681  11.714  13.493   0.188  0.2491 -0.0539 -0.0944
19213W        W34682  18.431  14.902  12.603  0.3457  0.0545 -0.1594
19214W        W34683   6.885   5.170  14.942 -0.0193 -0.1111  0.0359
19215W        W34684   4.129  10.241   2.228 -0.3083 -0.0711 -0.0296
19216W        W34685  10.826  18.642  14.999  0.0612  0.4678 -0.0126
19217W        W34686  14.800  10.473  15.495 -0.2153 -0.3055  0.4730
19218W        W34687  15.794   4.300   1.070 -0.0917 -0.0547 -0.0357
19219W        W34688  18.735   4.750   1.361  0.1700 -0.0939 -0.0777
19220W        W34689  12.942  14.848  11.786  0.2693  0.3420 -0.0123
19221W        W34690   8.984  13.566   3.071  0.0131 -0.0940  0.2707
19222W        W34691  14.855   2.855  14.700 -0.0196  0.1599  0.2427
19223W        W34692   3.098   4.738  14.393  0.0946 -0.1884 -0.0894
19224W        W34693   8.572  15.518  14.278  0.0922 -0.0542 -0.0909
19225W        W34694  10.237   4.112  10.340  0.2355  0.0990 -0.0034
19226W        W34695  13.745   1.551   4.935 -0.1196  0.2361  0.0072
19227W        W34696   3.199   3.773   1.596 -0.1722  0.2751 -0.2642
19228W        W34697  11.595  17.586   0.348  0.2832 -0.0680 -0.1739
19229W        W34698   3.172   4.233  11.140  0.1487  0.0297  0.1858
19230W        W34699  10.733  14.185  14.982  0.1371  0.1777  0.3403
19231W        W34700  10.171   6.899   3.785  0.0028 -0.1142 -0.1358
19232W        W34701   4.069   1.442  12.229  0.0050 -0.4160  0.3544
19233W        W34702   7.706  17.368   2.131  0.3075 -0.0256  0.2847
19234W        W34703   1.288   5.415   2.530 -0.2925  0.0044 -0.4202
19235W        W34704   8.541   2.278   3.280  0.0232 -0.1941  0.1488
19236W        W34705  10.764  16.936  13.437  0.0870  0.2746  0.3647
19237W        W34706   7.546   3.941   5.490 -0.5943  0.0774  0.0286
19238W        W34707  15.744  13.798   0.853 -0.0734 -0.2723 -0.1298
19239W        W34708   7.287  13.451   3.078  0.1350  0.3026 -0.0664
19240W        W34709  16.833   3.279  12.174 -0.2995 -0.0360 -0.0835
19241W        W34710  12.593   4.667  13.776  0.1760  0.1080 -0.0001
19242W        W34711  15.269  10.418   2.174  0.0247  0.1463 -0.2065
19243W        W34712   7.379   7.768   1.707 -0.0590  0.1727 -0.1809
19244W        W34713  16.219   9.365   0.201 -0.1061  0.1804  0.2198
19245W        W34714  17.113  14.071  10.812 -0.1651  0.1689  0.2429
19246W        W34715  14.761   3.974  10.541 -0.1082  0.0093 -0.0132
19247W        W34716   8.713  11.179   2.664  0.2875  0.1366 -0.2344
19248W        W34717  16.352  17.106   4.163  0.2469  0.1933 -0.0595
19249W        W34718  10.011  13.026  15.062 -0.5335 -0.0455  0.0421
19250W        W34719   2.044   1.809   3.375 -0.0918 -0.1050 -0.1893
19251W        W34720   2.531  11.420   0.071 -0.1033  0.1225 -0.2053
19252W        W34721   1.450  14.917   1.089 -0.2118  0.1781 -0.1659
19253W        W34722   3.222   0.216  13.247  0.2730 -0.0226  0.0371
19254W        W34723  12.118  12.408   2.691 -0.0699 -0.1469 -0.0529
19255W        W34724  12.775   7.290  15.523 -0.0048  0.4754  0.0854
19256W        W34725   3.988  14.265   0.194  0.0174 -0.1124  0.4250
19257W        W34726  15.034  10.034  13.994  0.1466  0.2858 -0.2152
19258W        W34727  13.461  16.795   0.325 -0.2787  0.0392  0.1783
19259W        W34728   2.498   7.120   4.197  0.0482 -0.3132 -0.0918
19260W        W34729  11.861   3.874  10.726 -0.2907  0.1199 -0.0473
19261W        W34730  14.005  15.801   2.432  0.2693 -0.2088 -0.2444
19262W        W34731   4.853   1.517  12.827 -0.1466  0.0363  0.2995
19263W        W34732  18.582  18.391   2.262  0.1651 -0.1602  0.0509
19264W        W34733   0.889   4.298  13.733  0.1885  0.0508  0.2700
19265W        W34734   4.658   0.865   4.460  0.3099 -0.3491 -0.1991
19266W        W34735  14.075  12.519   1.881  0.2787  0.1536  0.0615
19267W        W34736   9.444  13.715  11.394 -0.0509 -0.0832  0.0476
19268W        W34737  12.854  15.438  14.856 -0.4016 -0.5343 -0.1787
19269W        W34738   4.417   5.680  11.478 -0.0577 -0.2582  0.1546
19270W        W34739   3.061   2.285   3.645 -0.1880  0.1870 -0.1669
19271W        W34740  16.790   7.337  15.421 -0.3085 -0.0819  0.0506
19272W        W34741   6.983  11.172   0.715 -0.0937 -0.0014 -0.0107
19273W        W34742   6.636   2.869   3.438  0.0017  0.0890  0.3477
19274W        W34743   3.586  14.730  13.985 -0.0648 -0.2033  0.1230
19275W        W34744   4.693  16.283  13.469 -0.5942  0.3218  0.1268
19276W        W34745   3.310   3.608   2.887 -0.0716  0.0412 -0.0811
19277W        W34746   9.179  14.131   4.754  0.0061  0.0014 -0.0843
19278W        W34747  17.203  17.361   3.011  0.0756  0.1844 -0.0792
19279W        W34748  11.295   7.996   1.380 -0.0602  0.3980 -0.3272
19280W        W34749  10.886   9.765   4.822  0.1138  0.3644  0.1202
19281W        W34750   7.469   5.150  14.498  0.1001 -0.2066 -0.2418
19282W        W34751  14.679  17.723  13.207 -0.1367 -0.3773 -0.0761
19283W        W34752   2.083  18.205  14.818 -0.1040 -0.2610 -0.1609
19284W        W34753   9.572   9.772  13.040  0.0443  0.1353 -0.1679
19285W        W34754   1.586  14.307   4.795  0.0699  0.1690 -0.2333
19286W        W34755  14.579  12.430   1.949  0.1575  0.1006 -0.0093
19287W        W34756   2.696   3.103  10.814 -0.0385  0.1305 -0.0543
19288W        W34757  11.444   9.177   2.641 -0.1934  0.2582 -0.2201
19289W        W34758   8.582  11.778  11.569 -0.2003  0.3562  0.0722
19290W        W34759  12.995   6.695  12.967  0.1796 -0.0409  0.0653
19291W        W34760   9.352   8.479   0.034  0.1973 -0.0843  0.1499
19292W        W34761   6.226   9.108  13.844  0.0354  0.3287 -0.0203
19293W        W34762   1.747   6.841   1.912 -0.1329  0.1436 -0.4275
19294W        W34763   4.242  18.437  12.929 -0.2497 -0.0446 -0.5965
19295W        W34764   1.494   6.542   0.360  0.1726 -0.0305 -0.0818
19296W        W34765   3.672  13.177  11.607 -0.0563 -0.1017  0.0347
19297W        W34766   4.374   5.559  10.570 -0.0516  0.1763  0.1095
19298W        W34767   8.302  13.638   4.025  0.0391 -0.2666  0.1513
19299W        W34768   0.074   8.831   1.014  0.1260 -0.1345  0.0770
19300W        W34769   4.563  16.190   4.116 -0.1613 -0.2197 -0.0847
19301W        W34770  18.672  15.402   3.021 -0.0066  0.0615  0.2214
19302W        W34771   2.275  11.234   4.708  0.1318  0.2028  0.0826
19303W        W34772   1.238  11.343  15.356  0.0487  0.1866 -0.0044
19304W        W34773   8.366  13.825  14.102 -0.2312 -0.0850 -0.3566
19305W        W34774   8.291  10.684   4.582 -0.0615  0.0861  0.0274
19306W        W34775   2.714  18.748  11.640 -0.2823 -0.5640 -0.0945
19307W        W34776   6.005   2.288   4.154 -0.0868  0.0919 -0.0457
19308W        W34777  13.111   7.303  13.703 -0.1880  0.3950 -0.0787
19309W        W34778  16.572  16.124   5.838  0.1166 -0.0456 -0.0915
19310W        W34779   6.341  15.643  12.124 -0.1541  0.0483  0.1176
19311W        W34780   1.193  16.260  11.153 -0.3006 -0.0530  0.1771
19312W        W34781   9.772   4.095  10.685 -0.1083  0.0173  0.3105
19313W        W34782   1.666   6.833   0.020 -0.2210 -0.0954 -0.0287
19314W        W34783   8.848   0.962   3.863 -0.1285 -0.2888 -0.1856
19315W        W34784   9.653   4.053   2.456 -0.0589 -0.3574  0.0880
19316W        W34785   2.913  13.607  11.354 -0.3448 -0.0551  0.2444
19317W        W34786   6.970   4.739   4.758 -0.3447  0.1167  0.0947
19318W        W34787   0.265  13.434  12.358  0.0547  0.1723  0.0431
19319W        W34788   6.965  15.860   0.652 -0.1332 -0.0936 -0.1610
19320W        W34789  11.559  12.842  11.350 -0.1983 -0.2407  0.1277
19321W        W34790  16.301   1.930   3.387 -0.2269  0.0066  0.0010
19322W        W34791   5.245  18.145   0.831 -0.1545  0.0534 -0.2082
19323W        W34792   7.687  14.017   1.186 -0.1332  0.0165  0.2409
19324W        W34793   0.721   4.132   1.458 -0.0174  0.0895  0.0446
19325W        W34794   1.489   8.653  14.560  0.1213 -0.1336 -0.1197
19326W        W34795   8.069  17.411  11.309  0.1014  0.0056  0.0816
19327W        W34796   9.314  11.962  12.876  0.2311  0.0191  0.1501
19328W        W34797  18.057   6.334   3.758 -0.0503  0.0420  0.1354
19329W        W34798   9.252  10.575  13.937 -0.3601  0.1996  0.3336
19330W        W34799  11.807   6.086  10.523 -0.0578 -0.2599  0.0420
19331W        W34800   6.854  10.753   0.334  0.1485  0.1214  0.2668
19332W        W34801  10.190   3.063   3.315 -0.0530 -0.3756 -0.2119
19333W        W34802   3.969  11.287   2.817  0.0044 -0.2215  0.1525
19334W        W34803   9.177  16.685   4.292  0.0993  0.1648  0.1835
19335W        W34804  14.545   9.112   2.749  0.2442 -0.2020 -0.0199
19336W        W34805  10.530  14.338  13.705 -0.1279  0.1311  0.2031
19337W        W34806  10.209   5.417   0.152  0.0929  0.3299  0.1567
19338W        W34807   8.933   3.057  13.924  0.1350  0.1914 -0.0082
19339W        W34808   6.909   9.445  12.912 -0.0939  0.3036 -0.2738
19340W        W34809   0.200  10.231  10.217 -0.0579  0.2075 -0.0084
19341W        W34810  16.008   5.041  12.931 -0.1277  0.0178  0.0765
19342W        W34811   7.003   7.527   4.180  0.0230  0.0405  0.0817
19343W        W34812  12.163   2.146  12.211 -0.5229  0.1303 -0.2291
19344W        W34813   0.094  18.713   5.421 -0.0760  0.0639 -0.1380
19345W        W34814   5.354   9.304   2.214  0.1102  0.2397 -0.3347
19346W        W34815  11.071  17.750   1.198 -0.0774 -0.0999 -0.0651
19347W        W34816   2.944  12.381  14.554 -0.3136 -0.4571  0.1574
19348W        W34817  16.698  16.518  12.848  0.2446 -0.1518 -0.1181
19349W        W34818   3.211   7.740   1.580  0.0268 -0.0378  0.1632
19350W        W34819   2.585   7.091  11.975 -0.1082 -0.0642  0.1274
19351W        W34820  11.907   4.905  12.174  0.1023 -0.0159  0.1418
19352W        W34821  14.615  18.158  15.368 -0.0423  0.1497 -0.0671
19353W        W34822   1.066   2.497   2.074 -0.1793 -0.0842  0.0399
19354W        W34823  11.364   2.054   1.529 -0.2436 -0.1461  0.1077
19355W        W34824  17.889  17.150   0.850 -0.3596  0.2456 -0.2787
19356W        W34825  15.548   7.352  13.257 -0.1116  0.2509  0.1213
19357W        W34826   4.956   9.839   0.621 -0.1457  0.1948 -0.1452
19358W        W34827   9.962  12.780   2.487  0.1618 -0.3177 -0.3444
19359W        W34828   8.296  10.606  13.616  0.2169 -0.1112 -0.1414
19360W        W34829  15.998  18.158   5.366  0.1691 -0.1491 -0.1950
19361W        W34830  14.656   6.086  14.829 -0.0010  0.2793  0.0135
19362W        W34831  15.894   2.891   3.543  0.4615  0.2704  0.1009
19363W        W34832  15.316  16.791   4.428  0.1746 -0.0253 -0.1040
19364W        W34833  12.283   2.008  15.052 -0.0772  0.4044  0.1429
19365W        W34834  16.113  16.310   0.998  0.0974  0.1444  0.1743
19366W        W34835  18.201   1.015   2.271  0.0020  0.3183  0.2406
19367W        W34836   3.619  12.208   5.167 -0.0193 -0.0826 -0.1939
19368W        W34837  13.115   2.174   0.179  0.0658 -0.1002 -0.0728
19369W        W34838   6.239  18.223   4.892 -0.1712  0.1223  0.0726
19370W        W34839  15.829   3.187  10.592 -0.2001 -0.1646 -0.2001
19371W        W34840  12.613  13.910   5.189  0.0038  0.0235 -0.1270
19372W        W34841  13.528   5.222  14.968 -0.2523  0.5797  0.4303
19373W        W34842  12.759  18.397   5.154 -0.1014  0.0549  0.3023
19374W        W34843   2.947   4.552  14.890  0.1624 -0.1272 -0.0182
19375W        W34844  18.546   3.815  12.967 -0.2550 -0.2544 -0.1225
19376W        W34845   9.532   2.377   4.310  0.2898  0.1153  0.3117
19377W        W34846  13.369   0.665  12.512  0.0908  0.2350  0.4021
19378W        W34847  17.477   0.506  14.251 -0.2375 -0.0668 -0.0489
19379W        W34848   8.391  13.246   2.087 -0.0088 -0.0089  0.1113
19380W        W34849   7.989  11.951   4.344 -0.1009  0.1393  0.0372
19381W        W34850  16.586   2.297   5.155  0.2691  0.0395  0.2638
19382W        W34851   7.831   2.879  12.599  0.1649 -0.2194 -0.1587
19383W        W34852   6.908   0.687   3.045  0.1081  0.2414  0.0842
19384W        W34853   7.381   0.952   4.817 -0.0671  0.0232 -0.2808
19385W        W34854   6.685  17.686   3.500  0.2088 -0.2687 -0.1512
19386W        W34855   6.268  11.048  14.284 -0.4557 -0.0015 -0.0511
19387W        W34856  16.572   6.685   2.160  0.1899 -0.2346  0.3825
19388W        W34857  10.185  18.743   3.504  0.1624 -0.0459  0.0992
19389W        W34858   2.135   5.491   0.132  0.2148 -0.0938  0.1853
19390W        W34859  16.378   2.082  13.130  0.0529  0.1616 -0.3490
19391W        W34860   9.398  18.657  10.679  0.2166  0.0462 -0.3779
19392W        W34861  11.277  18.104   3.807  0.1652 -0.0676 -0.3900
19393W        W34862  10.165  14.926  15.139  0.0840 -0.2097  0.2365
19394W        W34863  12.991   4.879  11.146 -0.2320  0.0243  0.1644
19395W        W34864   4.491   7.418   1.166  0.1554 -0.4778 -0.1850
19396W        W34865  16.546   9.867  12.979 -0.1702 -0.0643  0.1324
19397W        W34866   5.404   7.349   0.452  0.1451 -0.2164  0.1908
19398W        W34867   0.894  17.289   1.758 -0.1776  0.2911  0.0368
19399W        W34868  12.888   0.907  14.378 -0.2075 -0.0790 -0.0993
19400W        W34869  13.402   1.319  12.250 -0.1556 -0.0587 -0.1469
19401W        W34870   4.358   3.920   1.581 -0.0340  0.1533  0.1183
19402W        W34871   3.730  16.054  14.048 -0.0464 -0.4879 -0.1382
19403W        W34872  17.776   0.506   0.984  0.0364  0.0175  0.3267
19404W        W34873  18.053  16.669  12.729 -0.0945  0.0730 -0.1245
19405W        W34874   2.924  10.728  10.940  0.0134 -0.2239 -0.1908
19406W        W34875   5.161   2.068   3.385  0.5160  0.1630 -0.1332
19407W        W34876   4.429   7.374   2.356  0.1947 -0.1548  0.2141
19408W        W34877   5.080  11.559   3.862  0.1173  0.0770  0.0141
19409W        W34878  14.483  10.007  15.504  0.0615  0.0546 -0.1893
19410W        W34879  10.900  16.790   4.614 -0.1372  0.0541 -0.0224
19411W        W34880  18.778   0.052   4.932 -0.3077 -0.0411 -0.1238
19412W        W34881  12.120   0.317   1.418  0.1335  0.0629  0.0370
19413W        W34882   2.603   9.760  12.570  0.0562 -0.2358 -0.2627
19414W        W34883   4.364   3.720   4.444  0.0640 -0.1384  0.1560
19415W        W34884   2.554   2.886  11.243  0.0895 -0.0393 -0.0189
19416W        W34885  17.407   2.042   0.975 -0.1580 -0.1981 -0.1158
19417W        W34886  13.459   5.125   0.527 -0.1329 -0.0632 -0.0089
19418W        W34887  12.974   8.552   2.183  0.2774 -0.1138 -0.1966
19419W        W34888   2.200  14.036  14.176  0.3454  0.1878 -0.4081
19420W        W34889  10.740  18.532   5.292  0.2164  0.3736 -0.1045
19421W        W34890  11.775   1.597   4.571  0.1181  0.0360 -0.0478
19422W        W34891  14.582   5.982  14.333  0.0838  0.2441 -0.2308
19423W        W34892  18.384   4.878   0.393 -0.1217  0.1759  0.1062
19424W        W34893   6.068   2.795  12.256 -0.3571 -0.0021  0.2005
19425W        W34894  14.046   6.425  11.244  0.2734 -0.1812  0.0689
19426W        W34895  14.385   1.726  14.444 -0.0462 -0.0461 -0.4539
19427W        W34896   7.513  15.913   9.570 -0.1013  0.1223  0.0244
19428W        W34897  10.458  15.244   5.760 -0.1418 -0.3972  0.3020
19429W        W34898  15.082   3.778  14.488 -0.1331  0.0845  0.1967
19430W        W34899  15.314  10.908  13.056 -0.0126 -0.0183  0.0379
19431W        W34900  18.118   5.870  10.339 -0.0549 -0.0662  0.0887
19432W        W34901   2.580  10.355  11.070 -0.2109  0.0736  0.2716
19433W        W34902  17.910  10.944   3.231 -0.1150  0.2604  0.4589
19434W        W34903   8.118   7.531  14.759 -0.1109  0.1253 -0.0280
19435W        W34904   1.422  13.020   1.261  0.5154 -0.2410  0.0809
19436W        W34905   4.427   7.878  14.825  0.0956 -0.0856 -0.0773
19437W        W34906   2.295   2.319  11.975  0.1561 -0.0526  0.2897
19438W        W34907   8.712  15.349  12.608  0.2113 -0.0930  0.0749
19439W        W34908   7.797  17.282   3.083 -0.0868  0.1902  0.1604
19440W        W34909  16.468   1.398   6.151  0.0947  0.0102  0.2929
19441W        W34910   3.888   0.861  12.179 -0.0799  0.0065  0.1100
19442W        W34911  12.915   0.395  14.797  0.2341  0.1554 -0.3415
19443W        W34912   6.113   1.845   9.915  0.0611  0.3062  0.2393
19444W        W34913   6.476   3.535   1.566 -0.2775 -0.0851 -0.0408
19445W        W34914  16.407  14.048   5.163  0.0691  0.0892 -0.4060
19446W        W34915   1.215   6.950   2.819  0.1564  0.1925 -0.2579
19447W        W34916   8.360   3.866  11.962 -0.0371  0.1393  0.1531
19448W        W34917   0.197   7.983   3.001  0.1187 -0.3377 -0.2265
19449W        W34918   2.207  16.019  14.144  0.1255 -0.4572 -0.0685
19450W        W34919  15.797   4.546  14.541 -0.1447 -0.5824 -0.1086
19451W        W34920  13.482   7.106   1.171 -0.2122 -0.2646  0.2127
19452W        W34921  12.729   0.685   0.743  0.0504 -0.2785 -0.2425
19453W        W34922  14.439   7.843   1.381  0.4276  0.0212  0.1769
19454W        W34923  13.020   1.489  11.948  0.0042 -0.0394 -0.1615
19455W        W34924  12.811   4.009   2.864 -0.0017  0.0967  0.2138
19456W        W34925   2.423  14.931   2.088 -0.1039  0.1292  0.0339
19457W        W34926   3.111  12.779   0.354  0.0933  0.1901 -0.0426
19458W        W34927   5.936  13.373  13.060  0.3639  0.2769 -0.0332
19459W        W34928   8.887   8.354  13.829  0.0501  0.2585  0.0168
19460W        W34929  13.158  11.536   2.814  0.0478 -0.2046 -0.2467
19461W        W34930   6.984  10.984  12.986  0.0503 -0.1805  0.0426
19462W        W34931   1.647   9.673   2.360 -0.0014  0.3376 -0.0931
19463W        W34932   0.215  13.218   1.749  0.0660 -0.4435  0.0908
19464W        W34933   5.405   6.605  12.482 -0.3316  0.0931 -0.0378
19465W        W34934   4.174  12.222   0.879  0.1754  0.4682 -0.2011
19466W        W34935   8.466  11.850   4.122  0.0881  0.3198  0.1837
19467W        W34936  12.247   1.890  11.111 -0.0560  0.0893  0.0078
19468W        W34937   6.251  14.995   5.296  0.0217 -0.1475 -0.2173
19469W        W34938  10.562   3.022   1.679  0.0073 -0.0374 -0.1592
19470W        W34939   7.101   8.062  13.602 -0.0633  0.1002 -0.0982
19471W        W34940  13.724   9.502   2.296  0.1517  0.1908 -0.2396
19472W        W34941  15.310   0.630  12.330 -0.0251  0.0988  0.0497
19473W        W34942   2.624   4.403  12.888 -0.0059  0.0333  0.0823
19474W        W34943  10.166   3.980  14.057  0.3246  0.3102  0.0496
19475W        W34944   6.838   8.564   4.026 -0.2738  0.1743  0.0120
19476W        W34945  14.365  10.741   4.521 -0.0667 -0.0985  0.0538
19477W        W34946  15.905   0.467   0.086 -0.0057 -0.1878 -0.1644
19478W        W34947   2.250   6.589   2.903  0.0614 -0.1944 -0.1249
19479W        W34948   1.281  17.974   4.526 -0.0257 -0.0987  0.1310
19480W        W34949  10.029  15.320   2.753  0.0383  0.0367 -0.3329
19481W        W34950   4.956   5.514  11.580 -0.0894  0.2314 -0.0114
19482W        W34951  10.670   8.142   4.049 -0.3724 -0.0197 -0.1779
19483W        W34952   5.758   7.801  14.702 -0.1188 -0.0787 -0.1914
19484W        W34953   1.333  18.565   0.836  0.2236 -0.3664  0.2774
19485W        W34954  10.967  16.421  15.242 -0.1601 -0.1692  0.3579
19486W        W34955   0.825  14.053   4.361  0.1778  0.3251  0.3622
19487W        W34956  17.038   5.172   4.835  0.1889  0.1744 -0.1034
19488W        W34957  14.300  16.469  12.871  0.1865 -0.0118 -0.0015
19489W        W34958   4.613   7.403  14.822 -0.0803 -0.3844  0.1674
19490W        W34959  10.708  13.959  11.306  0.2234  0.3115  0.1173
19491W        W34960   4.050  12.604  10.810  0.2109  0.0411 -0.1135
19492W        W34961   1.845  15.927  10.683 -0.3998  0.0244  0.0141
19493W        W34962   6.658  16.744  12.242  0.1329  0.1404  0.1740
19494W        W34963   3.566  10.533  13.792  0.4093  0.0619 -0.1644
19495W        W34964   2.523   8.079  12.169 -0.1698 -0.0063  0.1205
19496W        W34965  13.832  13.449   0.694  0.1946  0.3290 -0.2151
19497W        W34966  13.624   9.592  11.857  0.0613  0.0676  0.1967
19498W        W34967  18.575  14.457  13.642 -0.1367 -0.1097  0.1553
19499W        W34968   1.429   8.855  11.083 -0.0955 -0.0675  0.0267
19500W        W34969  15.977   2.438   1.408  0.0594  0.1337 -0.0721
19501W        W34970   6.451   6.459  13.745  0.0716 -0.1306  0.1822
19502W        W34971   8.141  11.741   1.960  0.0715 -0.0597 -0.3109
19503W        W34972  12.287  14.288   2.169  0.0337 -0.2066  0.2410
19504W        W34973   6.475   0.698  11.933 -0.1523  0.0988  0.0656
19505W        W34974   5.827   6.450   1.576 -0.0415 -0.2110  0.0706
19506W        W34975  15.773  14.075   2.747 -0.1803 -0.0357 -0.1254
19507W        W34976  17.066  15.971  12.296 -0.0183 -0.0445  0.4965
19508W        W34977  18.631   3.854  15.260 -0.1728  0.0660  0.2570
19509W        W34978  10.037   1.783  11.297  0.0216 -0.1059  0.0310
19510W        W34979  11.070  18.155  14.124 -0.1055  0.0326 -0.1408
19511W        W34980  18.249  12.779  14.584 -0.0744 -0.2052  0.2278
19512W        W34981   4.541  13.332   4.346  0.0973  0.1559  0.4095
19513W        W34982   1.294  15.718  13.167  0.2673 -0.0306 -0.2407
19514W        W34983   5.014   6.489  11.218 -0.4316  0.3790 -0.0986
19515W        W34984   6.610   6.241  11.348 -0.0813  0.4860 -0.1131
19516W        W34985   2.269   4.210   0.214  0.0038 -0.0671  0.0191
19517W        W34986  14.094  17.755  15.642  0.1071 -0.2775 -0.3565
19518W        W34987   5.470   9.933   1.025 -0.1643  0.2126 -0.1535
19519W        W34988  17.309  12.227  13.563 -0.1442 -0.1201 -0.1106
19520W        W34989  14.734  18.513   2.816  0.1953 -0.2020  0.1165
19521W        W34990  13.293  17.728  10.695  0.2431 -0.2527 -0.1786
19522W        W34991   7.571   7.495   3.283  0.0210  0.2323 -0.0329
19523W        W34992   2.785  11.747   4.005  0.0120 -0.2684 -0.3222
19524W        W34993  16.273   0.484  11.924  0.0837 -0.0708 -0.1728
19525W        W34994  15.560  14.978   1.195  0.1732  0.0521 -0.2924
19526W        W34995  10.576   0.424  12.988 -0.1176  0.4715  0.2354
19527W        W34996   2.801   6.153   9.613  0.0969 -0.0490  0.0298
19528W        W34997   4.554  16.770   3.999  0.1680 -0.1472  0.1094
19529W        W34998  11.052  10.549  11.500 -0.2492  0.0586 -0.1055
19530W        W34999   4.802   8.693  11.790  0.2059  0.1660  0.0815
19531W        W35000   8.001  14.699  12.503 -0.0211 -0.0793  0.0428
19532W        W35001   7.860   5.678   4.082  0.4770  0.0829  0.2370
19533W        W35002   5.246   0.296   1.039 -0.1246  0.2139  0.1751
19534W        W35003   2.289  13.404   4.172 -0.3116 -0.1766  0.2184
19535W        W35004  13.958   9.787   4.557 -0.1266 -0.0475  0.3442
19536W        W35005   9.921  16.639   4.093 -0.0319  0.1814  0.3556
19537W        W35006   3.094  13.105  13.877  0.1219  0.1195 -0.1141
19538W        W35007  14.902   7.646   1.151  0.0543 -0.1354  0.2603
19539W        W35008  11.141   3.698  13.654 -0.2284 -0.2028 -0.2633
19540W        W35009  10.128   2.178  10.118  0.1111 -0.1036 -0.2846
19541W        W35010  13.377   1.524   3.445 -0.0160 -0.1631 -0.1035
19542W        W35011  11.900  10.377  14.217 -0.0429 -0.0051  0.1226
19543W        W35012  11.461  18.246  14.388  0.0134 -0.1150 -0.2837
19544W        W35013  14.398   8.537   0.791 -0.2777 -0.0764  0.2541
19545W        W35014  11.553  14.613  13.481 -0.2140  0.1575 -0.1392
19546W        W35015   4.224   1.550   4.233 -0.1791  0.1353 -0.2322
19547W        W35016   4.398  17.455  14.119 -0.1161 -0.0180 -0.3233
19548W        W35017   7.492   4.880  13.265  0.3195  0.1255 -0.0610
19549W        W35018   8.402  11.223  14.742  0.0246 -0.0663  0.4862
19550W        W35019  18.409  11.727  11.436  0.2380 -0.0410  0.2525
19551W        W35020   8.688   6.119   9.663  0.0777 -0.0168  0.2852
19552W        W35021   7.338   2.053  13.867 -0.0345  0.2446  0.0172
19553W        W35022  11.344   0.489  12.227  0.1737  0.2396 -0.3190
19554W        W35023   7.253   4.766  11.969 -0.2185 -0.1420  0.1019
19555W        W35024  16.289  15.628   1.933 -0.1568  0.4242 -0.1127
19556W        W35025   9.005   1.541  11.520 -0.1328  0.1150 -0.1286
19557W        W35026   5.716   8.375   0.198 -0.0915  0.1260  0.4162
19558W        W35027  17.647   4.282  12.223 -0.0465  0.0308  0.0834
19559W        W35028   6.318   8.244   4.492  0.2284  0.4576 -0.0143
19560W        W35029  15.329   1.888   4.319 -0.0876  0.0005 -0.1391
19561W        W35030  12.487   5.792   0.714 -0.1495  0.3203  0.2688
19562W        W35031   0.842   8.571  10.814 -0.1219  0.2585  0.1613
19563W        W35032   0.985  11.849  12.880  0.0618  0.0267 -0.2950
19564W        W35033   2.878   3.024   1.184  0.1547 -0.3931 -0.2310
19565W        W35034   0.035   3.228   3.645 -0.2852 -0.1168  0.1126
19566W        W35035  18.588  17.854   3.086 -0.1191  0.4063 -0.0353
19567W        W35036   7.431   4.259   1.924  0.1475  0.0962  0.1118
19568W        W35037  13.470  11.089   4.480 -0.0806  0.0369  0.1088
19569W        W35038   8.707  17.707  12.183  0.3430 -0.1541  0.2203
19570W        W35039   2.700  18.322   0.701  0.0529  0.3141 -0.0794
19571W        W35040  13.633   4.434  11.637 -0.2041  0.3346 -0.2258
19572W        W35041   4.805  14.545   1.797  0.2404 -0.1276 -0.1589
19573W        W35042   4.094   5.533  12.866  0.1231 -0.3826 -0.0159
19574W        W35043  16.070  11.598   1.619 -0.0810 -0.3007 -0.2798
19575W        W35044  17.931  14.231   2.927 -0.1074 -0.1299 -0.0497
19576W        W35045   1.676  17.874   3.920 -0.0553 -0.0773  0.1289
19577W        W35046  11.100  10.212  12.477  0.2223  0.3579  0.0060
19578W        W35047   5.817  12.057  11.804 -0.1375  0.0167  0.0784
19579W        W35048   8.816  13.712  14.360  0.3592 -0.1459  0.0806
19580W        W35049  11.440   5.464   3.169 -0.0825 -0.1876  0.3965
19581W        W35050   0.673  10.044   5.155  0.0351 -0.3236 -0.1202
19582W        W35051   3.599  14.669   9.891  0.0926  0.1404  0.0948
19583W        W35052  13.533   7.630   1.303 -0.0723  0.0282  0.1767
19584W        W35053  10.501  16.480   0.584 -0.0189 -0.2467 -0.2087
19585W        W35054  10.329   7.520   1.070 -0.0406 -0.0566 -0.1693
19586W        W35055  14.374  15.835  12.199 -0.0073 -0.1400  0.0594
19587W        W35056  17.241   4.387   4.617  0.1853 -0.2139 -0.3899
19588W        W35057  12.786   9.366   2.438 -0.0849 -0.0665 -0.1439
19589W        W35058   9.941  13.718  11.621  0.0047 -0.1050  0.0325
19590W        W35059   9.553   8.998  11.285  0.0248 -0.0733 -0.1226
19591W        W35060  14.463   0.870   5.911  0.2974 -0.0119 -0.0535
19592W        W35061  17.516   0.549  15.023 -0.0552  0.0958 -0.0203
19593W        W35062   2.527   8.478   3.388  0.1887 -0.1365 -0.0676
19594W        W35063  10.301  17.692   9.111 -0.2333 -0.0256 -0.1371
19595W        W35064   4.199   8.378  14.964 -0.1067 -0.4102  0.3730
19596W        W35065  15.229   0.254   0.832 -0.1101 -0.3052 -0.1692
19597W        W35066   7.179  10.027  13.193 -0.0610  0.0687  0.1800
19598W        W35067  17.292  10.986   2.131 -0.0241 -0.3045 -0.2294
19599W        W35068  13.220  10.898   0.915 -0.2360 -0.5185  0.2815
19600W        W35069  11.381   4.974  12.927  0.0830 -0.3645 -0.2738
19601W        W35070   6.731  16.438   1.526 -0.0875 -0.0704  0.1901
19602W        W35071   8.343   3.151   0.223 -0.0938  0.3280  0.1941
19603W        W35072   8.373  15.801   3.464  0.1315 -0.1967  0.0609
19604W        W35073   4.863  15.747   0.728  0.3208  0.0892  0.2524
19605W        W35074  17.104   2.606  14.827 -0.1873  0.0014  0.0844
19606W        W35075  14.647   0.655  15.116 -0.5295  0.0719  0.0200
19607W        W35076  10.606  16.923  15.627  0.1822  0.3809 -0.0675
19608W        W35077   7.916  16.028  14.033 -0.0210 -0.2749  0.1968
19609W        W35078   8.073  10.736  15.261  0.0511  0.2534 -0.1155
19610W        W35079   2.428  18.731  13.497  0.1808 -0.0660  0.0627
19611W        W35080  11.523  17.120   3.843  0.1347 -0.3251  0.1209
19612W        W35081  17.179  12.593   4.913  0.0329  0.1430  0.1658
19613W        W35082   2.346   9.846  10.965 -0.2331 -0.2485  0.0360
19614W        W35083   8.875   2.280  12.204  0.2639 -0.0929  0.4419
19615W        W35084   0.174   1.869  11.584  0.1975  0.1801  0.2672
19616W        W35085  11.280   0.242  14.387  0.0085 -0.1537  0.3164
19617W        W35086   7.926   7.432  12.831  0.3014 -0.1682 -0.0870
19618W        W35087  17.116  12.487  15.605 -0.0447 -0.1100 -0.0594
19619W        W35088   7.137  14.005   0.210 -0.2638 -0.2594 -0.1234
19620W        W35089   6.894  17.884   2.047 -0.2487  0.1025 -0.0146
19621W        W35090   6.477   9.678  12.064 -0.1245  0.2389 -0.5212
19622W        W35091  14.148   7.885   2.952  0.0507 -0.3516  0.0880
19623W        W35092  16.430  12.507  11.451 -0.0246 -0.2207 -0.0177
19624W        W35093  10.338   7.856   9.365  0.1811  0.2090 -0.1009
19625W        W35094   4.981  18.185   3.595  0.2164 -0.0742 -0.1329
19626W        W35095  11.341  11.102  13.105  0.1049  0.0336 -0.5064
19627W        W35096   7.850   0.378   4.818  0.2213  0.0521  0.1902
19628W        W35097  12.529  12.793   0.913  0.1645  0.1042 -0.0549
19629W        W35098  11.435  13.071  13.560  0.1110  0.2278 -0.1266
19630W        W35099  18.614  12.442  14.245 -0.0230  0.1000  0.0090
19631W        W35100   0.305  14.134  11.705  0.0142  0.1137  0.0971
19632W        W35101  12.385  18.451  13.253  0.0668 -0.3324 -0.1073
19633W        W35102  16.109   0.797   3.020 -0.0101  0.0730 -0.0866
19634W        W35103   4.644   8.010  12.444  0.2340  0.2784  0.1440
19635W        W35104   4.933  15.006   4.878 -0.3248 -0.1888 -0.0828
19636W        W35105   0.120   1.234   1.291  0.0312  0.1289 -0.0109
19637W        W35106   3.401   1.313   3.451  0.2628 -0.1627 -0.1144
19638W        W35107  18.726  14.047  13.863  0.1571 -0.0485 -0.0569
19639W        W35108   7.084  15.397   0.990  0.2283  0.2212 -0.0855
19640W        W35109  12.912   1.279   0.092 -0.2621  0.1528 -0.0902
19641W        W35110   1.627  16.346   3.578 -0.0405 -0.0038  0.3888
19642W        W35111  15.105  12.147  15.007  0.1096  0.4906 -0.1930
19643W        W35112  14.685  16.679   3.275  0.3082 -0.2825  0.1682
19644W        W35113  18.486  16.106  13.213  0.1440  0.2823  0.2350
19645W        W35114  14.990   6.909  15.128  0.1541  0.0431 -0.2504
19646W        W35115  17.234   0.844  13.915 -0.2181 -0.3341 -0.3590
19647W        W35116  18.636  10.719  12.961  0.2426 -0.0663  0.1091
19648W        W35117   7.198   1.287   1.657 -0.0591 -0.1184  0.0032
19649W        W35118   4.323   3.470   4.914  0.1651 -0.0705 -0.0231
19650W        W35119   7.377   9.986  14.244 -0.3511 -0.0109 -0.1198
19651W        W35120  10.423   1.876  13.796 -0.2429 -0.0222  0.4314
19652W        W35121  10.218  11.302   3.063 -0.2318 -0.2272 -0.0139
19653W        W35122   4.108  17.805   1.782  0.0915 -0.0186  0.1454
19654W        W35123  10.339  13.082  14.704  0.0208  0.2248  0.0576
19655W        W35124   3.449  14.277   2.853 -0.0405 -0.0971 -0.1778
19656W        W35125   4.339  10.818  14.481  0.0024 -0.0191  0.1009
19657W        W35126  14.796  14.451   1.219 -0.1680 -0.0679 -0.1070
19658W        W35127   1.307  13.459   5.126  0.2290  0.4225  0.1926
19659W        W35128   4.415   3.189   2.213  0.2661 -0.1080 -0.1259
19660W        W35129   9.530   4.116   3.628  0.0203 -0.0276  0.1842
19661W        W35130   0.536   1.389  15.071  0.0817  0.0780  0.4369
19662W        W35131  13.234   3.946   1.121 -0.0373  0.1913 -0.0746
19663W        W35132  11.185   2.163  14.275  0.0879 -0.1997  0.1248
19664W        W35133   6.810  16.407  11.515 -0.1822 -0.0113 -0.2837
19665W        W35134  10.156  11.600   2.616 -0.2854  0.0852 -0.2404
19666W        W35135   5.244  12.988   3.040  0.1377 -0.3452 -0.3568
19667W        W35136  17.488   8.147  15.187 -0.1879 -0.3144  0.1286
19668W        W35137   7.956   0.047  10.715 -0.2048 -0.2204 -0.4006
19669W        W35138   9.216  18.311   3.786  0.0680  0.3792 -0.0766
19670W        W35139  18.359   4.074  15.655  0.1109  0.0817  0.1072
19671W        W35140  11.161   9.249   0.584 -0.3679 -0.2017  0.1200
19672W        W35141   5.930   4.805  10.717  0.1414 -0.0951 -0.2200
19673W        W35142  11.730   7.319  10.730 -0.2697  0.1215  0.1125
19674W        W35143   4.513  18.409   1.293  0.0229 -0.3520  0.1405
19675W        W35144   3.879   4.759   3.471 -0.3389 -0.2408 -0.3094
19676W        W35145  10.566   6.611   3.096 -0.2066 -0.0982 -0.1085
19677W        W35146  16.126   8.242   0.834  0.1585  0.1982  0.0480
19678W        W35147  14.035   4.673   5.695 -0.1692 -0.0783  0.1386
19679W        W35148  14.874   2.744  15.416  0.1001 -0.0509 -0.1878
19680W        W35149   2.486   8.104   5.171  0.4595  0.0553  0.3962
19681W        W35150   6.010  15.118   5.759  0.0182 -0.2698  0.0633
19682W        W35151   7.737   9.329  11.926 -0.0722 -0.2899  0.0735
19683W        W35152  12.599   2.850  15.591  0.2501  0.4607 -0.2244
19684W        W35153  11.050   1.186  12.874 -0.1611 -0.0765  0.0987
19685W        W35154  16.388   2.871  11.624 -0.1416 -0.1114  0.1912
19686W        W35155  12.913   4.138  14.386 -0.0514  0.4127 -0.2155
19687W        W35156   0.968  17.756  13.447  0.2518  0.1233 -0.2075
19688W        W35157   5.687   9.760   0.244  0.3215 -0.0383  0.0129
19689W        W35158   8.774   8.388  10.561 -0.0481  0.1388 -0.2050
19690W        W35159   8.776   8.818   5.374 -0.1897  0.1307 -0.0691
19691W        W35160  13.805  12.988   5.268  0.0035 -0.2108  0.2565
19692W        W35161  16.600   3.168   4.776  0.0686 -0.1241 -0.1972
19693W        W35162   3.710  14.496   4.774 -0.2282 -0.0283 -0.1794
19694W        W35163   1.402  10.883   1.688  0.0056 -0.1372  0.1287
19695W        W35164   7.083   2.152  12.290  0.1480 -0.0358  0.0382
19696W        W35165  14.948   2.028   2.440  0.2122 -0.1195  0.2438
19697W        W35166   5.897   9.813   0.743 -0.1638 -0.1953  0.1892
19698W        W35167   2.370  13.892   3.058  0.0910 -0.1832  0.1543
19699W        W35168  17.657   0.672   1.534 -0.1693 -0.2312 -0.0056
19700W        W35169   5.103   7.018  13.956 -0.2840  0.1224  0.0062
19701W        W35170  17.172  16.277   2.237  0.1957 -0.0541  0.2982
19702W        W35171   1.597  16.069   2.850 -0.0486  0.3124  0.2285
19703W        W35172  10.295   7.935   0.689 -0.0706 -0.0113 -0.0729
19704W        W35173   3.360  14.139  12.763 -0.3152  0.0043 -0.3691
19705W        W35174   2.779   5.554  14.213  0.0288  0.0517 -0.2193
19706W        W35175   8.879   4.491   2.268  0.0061 -0.1628  0.3182
19707W        W35176   7.804   7.858   3.635 -0.1203 -0.0944  0.0408
19708W        W35177  15.349  12.670  11.589 -0.1380  0.1262 -0.1455
19709W        W35178   9.746   2.897   0.267 -0.2992  0.2745 -0.0191
19710W        W35179   1.344   7.001   3.978 -0.0119  0.0555  0.0035
19711W        W35180  18.340  14.258   4.468  0.1050 -0.1501 -0.4023
19712W        W35181  12.878  16.757   2.212  0.1026 -0.0007  0.3081
19713W        W35182   2.039   5.210  14.862 -0.4011 -0.2484 -0.1779
19714W        W35183   1.342   5.205   4.891 -0.4528  0.1244 -0.2369
19715W        W35184  13.359  10.716  10.241 -0.3269 -0.4945  0.1517
19716W        W35185   2.137  12.206  11.879 -0.0632 -0.1240 -0.2464
19717W        W35186  12.299   2.128   0.791  0.1217 -0.0655 -0.0455
19718W        W35187   7.154   0.494  10.409 -0.0417  0.3521 -0.0086
19719W        W35188   6.823  12.045   1.898 -0.1037 -0.0072  0.1748
19720W        W35189   8.826   6.402   0.281 -0.1403 -0.2115  0.1039
19721W        W35190   2.128  18.172   1.523  0.3652  0.1738  0.1622
19722W        W35191  11.568  17.686  10.996  0.0814  0.3279  0.0624
19723W        W35192   0.275   7.287   0.572 -0.1756 -0.1311  0.1934
19724W        W35193   2.097  12.186  12.652 -0.0691 -0.0035 -0.0131
19725W        W35194  10.639   2.730  15.507  0.1302 -0.2686  0.2258
19726W        W35195  15.110  15.076   5.104 -0.0512  0.0358  0.2223
19727W        W35196   8.868  13.705  12.288  0.3353  0.0059  0.1525
19728W        W35197   8.813  10.539  10.823 -0.3963 -0.1809 -0.4906
19729W        W35198  16.469  15.753  14.049  0.0475 -0.0547  0.0310
19730W        W35199  11.408   9.461   5.642  0.2657 -0.1829 -0.0850
19731W        W35200   0.922   3.454   4.926  0.3064 -0.0123 -0.2181
19732W        W35201   6.861   9.339   1.186 -0.0375 -0.2851 -0.0318
19733W        W35202   4.679   6.673  10.396  0.0704 -0.3045 -0.0914
19734W        W35203   1.495   7.174  13.086 -0.3773 -0.1442 -0.0967
19735W        W35204  13.892  15.197   4.799  0.0730 -0.0231 -0.3326
19736W        W35205   9.731   4.843   3.240 -0.1147 -0.1618  0.0961
19737W        W35206   7.786  13.836   4.915  0.1699  0.3408  0.0037
19738W        W35207   2.674   2.598  13.269 -0.2256 -0.0972  0.1275
19739W        W35208   3.777  14.611  14.968  0.0180  0.5595  0.1904
19740W        W35209   2.647  14.809   2.936  0.2807 -0.0584  0.1335
19741W        W35210   5.116  10.188  10.892  0.3127  0.3470 -0.0277
19742W        W35211   6.008  12.413  14.219 -0.0604 -0.0655 -0.0768
19743W        W35212   9.891  14.779   2.676 -0.0974  0.0804 -0.1245
19744W        W35213  14.115   9.973   3.087 -0.3241 -0.0738 -0.2616
19745W        W35214   3.302  15.289   2.762  0.1699  0.3222 -0.0611
19746W        W35215   8.678   0.059   4.905 -0.1069  0.2332  0.1018
19747W        W35216  15.757   3.159   4.323  0.1012  0.4253  0.2508
19748W        W35217   3.508   9.590   0.319 -0.0138 -0.0799  0.1017
19749W        W35218  14.868  10.500   0.715 -0.0854  0.0319  0.4124
19750W        W35219   6.789   1.733  11.297  0.0930  0.1577 -0.4729
19751W        W35220   3.080  12.432   5.723  0.2203  0.0412  0.1190
19752W        W35221   7.963   9.857  12.387  0.1270 -0.2879 -0.1014
19753W        W35222   8.114  13.120   3.519 -0.0354 -0.0704 -0.0842
19754W        W35223   9.167   9.576   0.895  0.2254 -0.6245 -0.0928
19755W        W35224   6.822   1.032  15.066  0.1039 -0.0315  0.1484
19756W        W35225   1.390   6.190   3.942  0.4002 -0.0888 -0.0210
19757W        W35226   3.380  12.111   0.278  0.2010 -0.2979 -0.0799
19758W        W35227  12.529   0.100  12.948 -0.0423  0.0480  0.2423
19759W        W35228  11.823   7.961  12.979 -0.0648  0.1038 -0.2908
19760W        W35229  13.172   5.189  13.254 -0.1050  0.0203  0.1285
19761W        W35230  10.104   0.656  13.148  0.0622 -0.0709 -0.2962
19762W        W35231   8.440  15.876  13.285 -0.0850  0.0102  0.1200
19763W        W35232   9.638  18.633   2.464  0.1052  0.2213 -0.1473
19764W        W35233  12.686   5.119   3.509  0.1071 -0.0241  0.0939
19765W        W35234   8.338   8.249   1.291  0.1320 -0.1325  0.1511
19766W        W35235  14.646   7.211  14.433  0.0496 -0.0364 -0.2971
19767W        W35236  10.085   2.915   0.622  0.0466 -0.1121 -0.2068
19768W        W35237   9.117  17.178  11.531  0.0747  0.1520 -0.2036
19769W        W35238   5.727   4.073  14.746  0.0715 -0.1995  0.1311
19770W        W35239   2.962   8.001   3.049  0.0634 -0.1778 -0.2073
19771W        W35240  10.755   4.877   4.168 -0.0948  0.1986  0.0213
19772W        W35241  14.379  11.491   3.232 -0.2080 -0.1550 -0.1152
19773W        W35242   7.240   3.249   3.942 -0.0872  0.0461 -0.0452
19774W        W35243   7.200  18.567  15.366 -0.0142 -0.1319  0.0868
19775W        W35244  16.989   7.622   0.124 -0.3682 -0.1184 -0.3780
19776W        W35245   9.151  12.886   4.122  0.1513  0.0306  0.1284
19777W        W35246   2.971   7.679  13.857  0.0939  0.1208  0.0518
19778W        W35247   1.721  11.036  15.393  0.1266  0.1101 -0.2155
19779W        W35248   0.247  17.002   2.586 -0.1893  0.3675  0.1414
19780W        W35249   9.191   3.234  13.540 -0.0947 -0.0009 -0.2186
19781W        W35250  15.468   3.739  14.055  0.0458 -0.0654 -0.0555
19782W        W35251  17.308   0.058   0.148 -0.0351 -0.2058  0.0236
19783W        W35252  10.776  17.588   4.431 -0.1753  0.1677  0.0582
19784W        W35253  11.876   4.232   5.663 -0.5620 -0.1076  0.0016
19785W        W35254  15.510   9.888  14.187 -0.1717  0.3168  0.0316
19786W        W35255  15.036   1.482   2.587 -0.2452  0.2946 -0.2646
19787W        W35256   8.488  17.061   3.644 -0.2454  0.3357  0.1036
19788W        W35257   1.751   5.598  14.898 -0.1536  0.1899 -0.4519
19789W        W35258   5.415  13.273  11.586 -0.1678  0.1958  0.1047
19790W        W35259   5.084   6.679   2.785  0.1068 -0.0404  0.1517
19791W        W35260   8.228  16.345   4.216  0.4087 -0.1901 -0.2425
19792W        W35261  18.226   2.107  12.402  0.2452  0.1662  0.0804
19793W        W35262   1.056   0.785   2.720  0.0261 -0.2038  0.5319
19794W        W35263  13.074  14.101   3.139 -0.0083 -0.2209 -0.2123
19795W        W35264  11.113  15.149   0.281 -0.0085  0.3121  0.0047
19796W        W35265   2.027  18.401  11.743 -0.2757 -0.1437  0.0950
19797W        W35266  17.903  15.094  14.050 -0.0630 -0.0666  0.2837
19798W        W35267   8.873   0.969  14.910 -0.0232 -0.0561  0.0004
19799W        W35268   5.410   7.201   9.450 -0.1777 -0.0325 -0.4407
19800W        W35269   3.706   4.184   4.057  0.1966 -0.1353  0.1527
19801W        W35270   0.527  11.036   4.553  0.0618  0.0722 -0.0087
19802W        W35271   5.815  17.631   3.926 -0.0911  0.0338 -0.0692
19803W        W35272  16.881   0.382  10.159 -0.1248  0.0454 -0.2578
19804W        W35273   1.517   2.273   4.203 -0.0784 -0.0075 -0.0787
19805W        W35274   4.875  11.044  13.007 -0.0669 -0.0844 -0.1609
19806W        W35275   3.020   8.833  13.212  0.1557  0.1717 -0.0848
19807W        W35276  16.424  18.058   5.669 -0.1698  0.4793  0.1211
19808W        W35277  14.678  12.442  11.545  0.3516  0.0948  0.0587
19809W        W35278  12.129   1.070  11.728 -0.1798  0.0325  0.1919
19810W        W35279   9.811   5.757  15.563  0.0379 -0.0950 -0.1499
19811W        W35280   9.330   3.665   0.971  0.2243 -0.1332 -0.1008
19812W        W35281  17.227   8.244   2.859 -0.0511  0.1276 -0.0927
19813W        W35282  12.404   4.190  14.001  0.2935  0.0342 -0.1733
19814W        W35283   3.898   8.477   3.761 -0.0019 -0.2191  0.1241
19815W        W35284   2.401  18.372  15.370 -0.1995  0.1208 -0.0659
19816W        W35285  10.006  13.658   4.893  0.1318  0.1258 -0.3275
19817W        W35286  13.089   0.856   0.314  0.1096 -0.2120 -0.0160
19818W        W35287  11.270  14.895  11.121  0.1817  0.2567 -0.1142
19819W        W35288   3.798   3.691   2.732  0.0200  0.2685 -0.0571
19820W        W35289  13.254   0.430   0.483  0.1773 -0.2781 -0.1087
19821W        W35290  16.506   4.472  10.494 -0.1819  0.1898 -0.2055
19822W        W35291  11.666   4.134  12.626  0.0664  0.2186  0.0620
19823W        W35292   9.176  13.765  12.784  0.1428 -0.2817 -0.3133
19824W        W35293  11.757  18.443  12.327 -0.3617  0.1766 -0.0077
19825W        W35294   8.174  12.631  14.918 -0.1443  0.1612 -0.1481
19826W        W35295   9.206   1.147  11.990  0.2361  0.0439  0.0195
19827W        W35296  13.994   2.002   5.081 -0.1302  0.1150  0.1691
19828W        W35297   2.633  17.510   3.014 -0.2351 -0.0246  0.2787
19829W        W35298   2.570   4.841   2.384 -0.1147  0.0366 -0.1102
19830W        W35299   4.362  12.617  14.141 -0.0426  0.1051 -0.0961
19831W        W35300   1.481   2.873   2.855 -0.2571  0.2225 -0.0474
19832W        W35301  16.488   7.705  12.804 -0.0395  0.1132 -0.0316
19833W        W35302   5.488   9.507   4.300  0.0560  0.0981 -0.1325
19834W        W35303  10.035  14.037  14.180  0.0370 -0.1816 -0.1997
19835W        W35304   1.529   2.508   2.356  0.0555 -0.0936  0.0405
19836W        W35305  14.422  15.991  12.982 -0.1369  0.1926 -0.0914
19837W        W35306  17.104   0.203   5.285 -0.1264  0.2454  0.2067
19838W        W35307  12.685   3.155   4.968 -0.0485  0.2429 -0.3410
19839W        W35308   6.537  11.030  10.427 -0.0117  0.0770 -0.1138
19840W        W35309  12.127  14.597   3.735 -0.0955 -0.3830  0.1134
19841W        W35310   7.344   9.390   1.426 -0.0928  0.0203  0.1144
19842W        W35311  10.876   0.113  14.127 -0.0230 -0.2162  0.0387
19843W        W35312  10.594   4.623   1.673  0.0918  0.1411  0.1980
19844W        W35313   0.750   3.627  10.506 -0.2707 -0.1802 -0.2160
19845W        W35314  15.537   6.761   1.283 -0.0139  0.0565  0.0796
19846W        W35315  17.068  13.878   1.571 -0.1067  0.6652  0.1732
19847W        W35316  15.712  18.248  13.863  0.1815 -0.1615 -0.2060
19848W        W35317   2.117   9.579  14.537  0.2171 -0.0778 -0.0563
19849W        W35318  15.033  14.792   5.554  0.0048 -0.0015  0.3197
19850W        W35319   6.691   9.067   8.967  0.0371 -0.1320 -0.1116
19851W        W35320   9.364  11.897  14.238 -0.1811 -0.0188 -0.0707
19852W        W35321   5.575   4.402   2.793 -0.3002 -0.0282 -0.1975
19853W        W35322   8.232  17.570  14.515  0.0027  0.3148 -0.2139
19854W        W35323  13.420   4.949   2.648  0.3687  0.3942 -0.1590
19855W        W35324   1.979   4.024  14.967  0.1868  0.0758  0.0020
19856W        W35325   5.562  11.369  15.513 -0.0194  0.0834 -0.4641
19857W        W35326  14.620   3.918  14.329 -0.2052 -0.0615 -0.0597
19858W        W35327   8.860   8.342   0.836 -0.0510  0.2457  0.2970
19859W        W35328   2.511   0.165   3.715  0.0610  0.1944 -0.0621
19860W        W35329  10.752   9.745  11.341 -0.0615 -0.2914 -0.2011
19861W        W35330   9.674   0.635  12.941  0.5518 -0.3809 -0.2557
19862W        W35331   7.097  11.464  14.253  0.0464  0.3099  0.0422
19863W        W35332   4.970  13.571  10.238 -0.0976 -0.1395  0.4680
19864W        W35333  10.617   1.506   4.262 -0.4110 -0.0132 -0.2394
19865W        W35334   6.688  12.661  14.777 -0.0701 -0.1896 -0.3338
19866W        W35335  11.540   4.247  10.853 -0.0227  0.0099 -0.0472
19867W        W35336   7.317  18.263   1.753 -0.0200 -0.2430  0.0287
19868W        W35337  10.641  17.237  13.858 -0.0712  0.1456  0.0480
19869W        W35338   3.970  17.571   1.059 -0.2637  0.0774 -0.0121
19870W        W35339   2.885   3.100   5.812  0.0392  0.3428 -0.1000
19871W        W35340  15.621   5.681  13.942  0.0505  0.1081  0.1919
19872W        W35341  18.390   0.555  14.344 -0.0279  0.2137  0.0694
19873W        W35342  17.157  15.482   2.578 -0.3726 -0.1980  0.0209
19874W        W35343   2.927  12.286   0.470 -0.1705 -0.0507 -0.0722
19875W        W35344   2.496   5.328  15.126 -0.2808 -0.1679  0.1833
19876W        W35345   9.977  16.319   4.495  0.0470  0.1611  0.0949
19877W        W35346   1.844   3.930  12.998 -0.0817 -0.2602 -0.1434
19878W        W35347  18.284  18.690  11.139  0.2802  0.1832  0.0025
19879W        W35348  10.864   7.802   1.714  0.1783 -0.0437 -0.2624
19880W        W35349   8.922  17.170   0.573  0.1360  0.2470 -0.2041
19881W        W35350   4.657  17.677   3.246  0.3007 -0.0012 -0.2146
19882W        W35351  17.402  15.349  10.859 -0.2542 -0.1669  0.3689
19883W        W35352   5.118  12.487   0.879  0.1874  0.4750  0.2694
19884W        W35353   6.078  16.904   5.130 -0.0444  0.4055  0.1420
19885W        W35354  13.516  17.187  12.563  0.1106  0.3969  0.3960
19886W        W35355   2.252  13.500   5.188  0.0131  0.1739 -0.2174
19887W        W35356  18.076  18.156  11.474 -0.0199 -0.2131  0.1764
19888W        W35357   2.293   7.860  10.992  0.2351  0.1810  0.2904
19889W        W35358  13.410   0.638   0.014 -0.1133  0.0500 -0.1532
19890W        W35359  18.572   3.819   5.428  0.0531 -0.0257 -0.0093
19891W        W35360   7.636  11.373   3.429  0.2078 -0.1041 -0.0209
19892W        W35361  16.892  17.508  15.491 -0.0777  0.1754 -0.2595
19893W        W35362   1.711   9.430  12.689  0.1163 -0.1210  0.0637
19894W        W35363  17.753  13.826   0.287  0.1274 -0.3311  0.4062
19895W        W35364   7.277   6.254  12.816 -0.0526  0.0891  0.3544
19896W        W35365  10.867  15.060   3.740  0.0363 -0.2432 -0.3019
19897W        W35366  12.968   2.707  12.965  0.0776 -0.0571 -0.3370
19898W        W35367  15.415  11.538   4.764  0.1217  0.0571  0.2245
19899W        W35368   2.428   4.805  12.568  0.1619 -0.2358  0.1097
19900W        W35369  10.002   4.557  10.299 -0.1594 -0.0605 -0.2543
19901W        W35370  15.321   3.902  12.524  0.0205  0.5397  0.0342
19902W        W35371   1.479  13.397  11.032 -0.0273 -0.0602  0.3243
19903W        W35372   1.607  17.132  12.895  0.0100  0.0203 -0.2465
19904W        W35373   9.601  17.027  11.307  0.0823 -0.1919  0.1759
19905W        W35374  14.511  14.415  13.801  0.0122  0.1330  0.1473
19906W        W35375   7.635   7.347  11.511 -0.0169  0.0395 -0.2068
19907W        W35376   7.513   0.517  13.402 -0.3036  0.2574 -0.1894
19908W        W35377   7.969   0.291  15.164  0.0963 -0.2434 -0.3023
19909W        W35378   3.458   2.935  15.274  0.0658  0.3621 -0.1145
19910W        W35379   2.507   5.687  10.357 -0.2400 -0.0396 -0.2761
19911W        W35380   0.745  11.777   2.156  0.0497  0.3302 -0.1531
19912W        W35381  12.752   8.010   3.568 -0.1784  0.2156 -0.1265
19913W        W35382  12.668  10.029  11.798 -0.4354 -0.2203  0.1631
19914W        W35383  15.496  17.803   1.493  0.1865 -0.0483 -0.0394
19915W        W35384  14.183  12.229   4.689 -0.0258 -0.2129 -0.1052
19916W        W35385   7.556  14.355  11.636  0.1349  0.2981  0.0099
19917W        W35386  15.725   6.482  12.364 -0.2387  0.0204 -0.1663
19918W        W35387   6.203   2.066  10.829  0.1186 -0.0552  0.4530
19919W        W35388   7.164   4.977   9.721 -0.0676 -0.1535  0.1860
19920W        W35389   2.284   9.773  15.015  0.2229 -0.3394  0.0518
19921W        W35390  10.318   7.303  13.074 -0.2434 -0.0832 -0.0285
19922W        W35391   1.404  16.015   3.924  0.0772 -0.0808 -0.0437
19923W        W35392   3.864   1.472  14.008 -0.0165  0.0632 -0.0650
19924W        W35393  15.521  11.995  14.797 -0.1015 -0.2504 -0.0993
19925W        W35394  16.062  11.844  13.397 -0.2816 -0.4793  0.0372
19926W        W35395  10.369   2.949   4.506  0.0783 -0.1865 -0.1944
19927W        W35396  14.951   9.900  13.092 -0.1606  0.0474  0.0616
19928W        W35397  16.250   2.320  13.959  0.1055  0.0214 -0.0759
19929W        W35398  16.773  12.289   2.590 -0.2772 -0.0335  0.1877
19930W        W35399   7.682  18.625  15.230  0.0423  0.2709 -0.0600
19931W        W35400   1.016  13.984   3.436  0.2104 -0.2549 -0.1044
19932W        W35401  15.595  13.323  13.289  0.1160  0.1701  0.2222
19933W        W35402  15.882  14.538  12.035  0.0517  0.1602 -0.2666
19934W        W35403   3.908   1.542  11.370 -0.0094  0.0238 -0.1623
19935W        W35404  17.456   6.374  11.761 -0.0552 -0.1454 -0.1040
19936W        W35405  10.313   6.254   1.517 -0.1791 -0.0912  0.1246
19937W        W35406  17.718  11.540  13.190 -0.2325 -0.2781  0.0381
19938W        W35407   1.102  13.378   2.364  0.1132 -0.0019 -0.1066
19939W        W35408   6.328   2.525   3.828  0.1327  0.3097 -0.0774
19940W        W35409  18.552   7.868   1.041  0.0646 -0.2919  0.1099
19941W        W35410   6.580   6.048  15.006  0.0461  0.3346 -0.0905
19942W        W35411  14.163  13.510  11.241  0.0707 -0.0699 -0.0662
19943W        W35412  10.928  18.053  15.569  0.0887  0.1391 -0.1101
19944W        W35413  15.488  14.390  12.650 -0.3759  0.0294  0.1296
19945W        W35414  10.125   9.719  14.929  0.1777 -0.2964  0.2358
19946W        W35415  15.828   4.045  13.889  0.2524  0.3186 -0.2993
19947W        W35416   3.525   9.149  11.525 -0.2850 -0.0054  0.1217
19948W        W35417   7.013  11.031  10.258  0.3367  0.1200 -0.4706
19949W        W35418   0.485   3.197   2.076  0.1709 -0.1638  0.0246
19950W        W35419   5.329   4.440  12.379 -0.5369  0.0338  0.0544
19951W        W35420   5.402   1.794  13.464 -0.0034 -0.0642 -0.3553
19952W        W35421  14.629  15.375   4.756  0.0067 -0.3301  0.0547
19953W        W35422  13.677  16.467  11.606  0.2635 -0.2206  0.2816
19954W        W35423  15.443   3.103   3.648 -0.0274  0.1056 -0.1256
19955W        W35424   3.874   7.747   4.976 -0.1303  0.0021 -0.3272
19956W        W35425  10.199  13.728  11.159 -0.0200  0.0316  0.0758
19957W        W35426   8.111   5.433  13.568  0.2256 -0.0505 -0.1335
19958W        W35427  12.800  18.116  12.517 -0.0785 -0.1811 -0.0345
19959W        W35428  12.681   3.557  12.260  0.2273  0.0202  0.0587
19960W        W35429  15.476  14.219  14.633 -0.0417 -0.2282  0.1619
19961W        W35430  13.564   7.019  14.956  0.0681  0.0256 -0.2262
19962W        W35431   2.335  11.188  12.996 -0.1782 -0.2205  0.1907
19963W        W35432   3.566   3.382  15.513  0.1141 -0.3041  0.0063
19964W        W35433   5.894  14.213  12.565  0.0711  0.1790  0.2080
19965W        W35434  11.087  16.219  13.426 -0.2948 -0.0380 -0.1159
19966W        W35435   6.764   2.164  14.788  0.1890 -0.1915 -0.2587
19967W        W35436   9.648   0.857  14.219  0.0455 -0.1131  0.3014
19968W        W35437  10.308   4.837  12.166 -0.1631 -0.2596 -0.1168
19969W        W35438   1.574  14.405   3.707  0.1435  0.0823  0.2117
19970W        W35439  10.983  14.736   1.787  0.3623  0.0639 -0.0851
19971W        W35440  18.075  12.076  11.261  0.0451  0.1401 -0.1543
19972W        W35441  16.808   6.803   1.693 -0.1670  0.0051  0.3448
19973W        W35442   1.289   1.266  10.787 -0.0869 -0.1683  0.1139
19974W        W35443   5.830   7.997  12.663 -0.1604 -0.0704  0.0674
19975W        W35444   1.835   4.788  11.076 -0.2126  0.0140 -0.0351
19976W        W35445  13.878   9.325  15.000  0.0906  0.4731 -0.0813
19977W        W35446  13.150   2.942   0.970  0.4740  0.0044  0.0307
19978W        W35447   5.594   3.362   1.338 -0.0419 -0.1182  0.2490
19979W        W35448   0.976   1.806  12.718 -0.0553 -0.2921  0.0692
19980W        W35449   6.887  10.587  14.721  0.0573  0.0816  0.0107
19981W        W35450  16.151   2.492   5.298  0.2934 -0.1162  0.1218
19982W        W35451   2.355   7.813   5.626 -0.0074  0.2669  0.0550
19983W        W35452  17.893  10.623   1.897  0.0792 -0.2230 -0.0744
19984W        W35453   9.124  16.306   5.531  0.0272 -0.0889  0.1158
19985W        W35454   7.306  16.722  11.751  0.1651 -0.2031  0.3357
19986W        W35455  15.195  12.938   5.388  0.1275  0.3357  0.1716
19987W        W35456   3.727   8.960  14.387 -0.2224 -0.1363 -0.0406
19988W        W35457   9.608   5.558   0.380  0.2239  0.1069 -0.2635
19989W        W35458   6.278  13.316   3.319 -0.0683  0.2315 -0.0018
19990W        W35459   2.407   5.872  13.932  0.0165  0.2051  0.2621
19991W        W35460  14.282   2.482   1.106 -0.1815  0.2589  0.0565
19992W        W35461   8.333  13.185  11.724 -0.3337 -0.1828  0.0694
19993W        W35462   5.449   8.237  12.844 -0.0315 -0.1105 -0.0450
19994W        W35463   2.275   3.140  11.609 -0.0210 -0.0474 -0.0975
19995W        W35464   0.093  18.043  14.586 -0.0927  0.0625 -0.1151
19996W        W35465  18.736   6.374  13.727  0.0053  0.0022  0.1337
19997W        W35466  14.353  10.868   1.318  0.0864  0.0123  0.1111
19998W        W35467   7.885  17.259  15.163 -0.0600 -0.1101  0.2520
19999W        W35468   8.625   1.394   4.646  0.1576 -0.2401  0.0819
20000W        W35469   1.465   0.462  11.316 -0.0583  0.0378 -0.3852
20001W        W35470  12.342  14.716  13.867  0.3729  0.1595 -0.2375
20002W        W35471   1.584  13.863   3.773  0.0414  0.2600  0.0112
20003W        W35472   8.678   3.910  12.968  0.0552 -0.0457  0.4051
20004W        W35473   3.715  15.526   2.166 -0.0874  0.4533 -0.0682
20005W        W35474  18.656  15.243  12.390  0.1138 -0.1492 -0.0822
20006W        W35475  11.985  16.170   3.054 -0.2633  0.0310  0.0478
20007W        W35476   0.233  15.992  13.374 -0.1022 -0.0270 -0.1997
20008W        W35477   7.048  17.420  10.612 -0.0325 -0.0640 -0.2230
20009W        W35478   9.705   9.507  11.184  0.0522 -0.3668 -0.4338
20010W        W35479  10.110  13.097  13.220 -0.0473  0.1872 -0.3332
20011W        W35480   8.314   3.798   4.774 -0.0610 -0.1362  0.0733
20012W        W35481   3.029   7.563   3.542 -0.1727  0.0752 -0.0213
20013W        W35482  10.614  18.236  15.198  0.0484 -0.0340 -0.5796
20014W        W35483   4.497  12.873  10.922  0.0591  0.1142 -0.0208
20015W        W35484   4.408   2.846   4.093 -0.2425  0.0608  0.0988
20016W        W35485  13.034   6.941  13.380  0.1828  0.4576  0.3252
20017W        W35486   2.019   9.000   4.508  0.0171  0.0833  0.0192
20018W        W35487   2.909  17.397   5.536 -0.1962 -0.0295 -0.1739
20019W        W35488   5.265   8.728   0.136  0.0059 -0.1305  0.0330
20020W        W35489   1.586   7.894  14.011 -0.2270 -0.0468  0.0424
20021W        W35490   7.427  17.907  14.480  0.0881  0.3184  0.0864
20022W        W35491  12.321  18.613   3.144  0.0836  0.2937  0.3506
20023W        W35492   2.436  11.662   3.052  0.0591  0.1786 -0.0140
20024W        W35493   6.407   6.037   0.803 -0.0335 -0.1398 -0.0230
20025W        W35494  15.927   9.024   0.471 -0.1254 -0.3559  0.1306
20026W        W35495  10.808   8.804   3.491  0.0671 -0.0565 -0.0029
20027W        W35496  13.674  11.902  15.447 -0.1486 -0.3176 -0.3456
20028W        W35497  13.224   3.601  11.549 -0.2757 -0.1316 -0.0366
20029W        W35498   5.301   3.683   0.149  0.1541  0.0261 -0.0982
20030W        W35499   9.705  17.161   3.379  0.4924 -0.0350  0.1316
20031W        W35500   2.389  14.281   4.070 -0.3559 -0.0651  0.2264
20032W        W35501  17.335  13.863   0.627  0.2055  0.2899 -0.1809
20033W        W35502  16.458  16.690   3.170  0.1769  0.1553 -0.3700
20034W        W35503  16.196   8.649  12.491  0.0711  0.1205 -0.4262
20035W        W35504   8.501  15.080   1.908 -0.0388  0.1324 -0.1564
20036W        W35505   3.655  14.057  15.100  0.0062  0.1634 -0.2036
20037W        W35506   6.048  17.551   1.176 -0.2378 -0.3116 -0.1175
20038W        W35507   0.111   7.982   0.271  0.0513  0.0698 -0.1323
20039W        W35508  14.264  16.929   3.574 -0.0106  0.0177 -0.1544
20040W        W35509  18.286   9.979   9.620 -0.2078  0.0546  0.0755
20041W        W35510  14.404  15.438  14.574 -0.0082 -0.2443 -0.1415
20042W        W35511  14.985   0.903   0.030  0.0212 -0.0044 -0.3622
20043W        W35512   1.977   3.551  11.326  0.1640 -0.0111 -0.1742
20044W        W35513   6.681   1.998   5.216  0.0445 -0.0991  0.0242
20045W        W35514  13.127   2.929   2.446 -0.2766  0.3113  0.2979
20046W        W35515  14.327  15.101   0.790  0.1532 -0.0725 -0.0684
20047W        W35516   5.612  16.695   3.244 -0.2685 -0.2077  0.1887
20048W        W35517  18.248   6.372  11.147 -0.0961  0.0149  0.0496
20049W        W35518   5.505   8.512   5.087 -0.4255 -0.0193 -0.1251
20050W        W35519   4.017  10.884   5.249 -0.0895  0.0612  0.3701
20051W        W35520   1.803  18.769  13.164 -0.1925 -0.2010  0.3105
20052W        W35521  17.809   1.685  11.419 -0.1954  0.0051 -0.0326
20053W        W35522  16.512   9.803   2.432  0.1758  0.1569 -0.1100
20054W        W35523  18.276   5.575   3.074 -0.2629  0.0724  0.1822
20055W        W35524   9.064  12.738   0.252 -0.1845  0.3007 -0.0836
20056W        W35525  14.760   5.299   2.343 -0.1274 -0.1329 -0.0276
20057W        W35526  13.606  10.054  13.578  0.2245  0.1161  0.3386
20058W        W35527   2.774   7.419  11.638  0.2428 -0.3340  0.1635
20059W        W35528   0.028   2.852   5.565 -0.2186  0.2569 -0.0204
20060W        W35529  17.704  13.872  11.574  0.1060 -0.0596  0.3032
20061W        W35530   0.030  13.518   4.400  0.1577  0.3778  0.2471
20062W        W35531  12.625   1.488  14.222 -0.1957 -0.0503  0.1659
20063W        W35532  15.841   0.606   4.330  0.2980  0.2927 -0.3678
20064W        W35533  16.285   1.698   0.087 -0.0436  0.4655 -0.0222
20065W        W35534   7.248  12.366   4.689 -0.1817  0.0443 -0.0489
20066W        W35535  10.474  18.569   0.756  0.1695  0.0344 -0.0558
20067W        W35536  16.220   9.931   4.854  0.0605 -0.3418 -0.2692
20068W        W35537   3.133   9.467  12.992  0.0482 -0.2240 -0.0234
20069W        W35538  18.543   5.462   5.220  0.0567  0.0710 -0.0371
20070W        W35539  17.999   1.754   2.371  0.1398 -0.0601 -0.1283
20071W        W35540  11.899  17.210  12.757 -0.0986 -0.0560 -0.0107
20072W        W35541   0.501   0.509   5.319 -0.1934  0.0117  0.1259
20073W        W35542  14.338  11.960   3.169 -0.1051 -0.2100 -0.1221
20074W        W35543  17.151  17.046  11.335 -0.1378 -0.2153  0.0326
20075W        W35544  13.618   5.395   4.041 -0.0587 -0.4254 -0.2710
20076W        W35545   3.404  13.308  14.567 -0.2721 -0.3436  0.3854
20077W        W35546  16.391   1.596  13.332  0.0122  0.1247  0.0856
20078W        W35547   9.433  17.884  12.370  0.1355 -0.1021  0.0809
20079W        W35548  14.430   9.813  13.206  0.3034  0.3762  0.1209
20080W        W35549   2.929   8.598  14.004 -0.2923  0.3017  0.2391
20081W        W35550   0.593  13.298   5.645  0.0927  0.0759 -0.2444
20082W        W35551   9.166  16.317  10.959  0.1714  0.0528  0.1113
20083W        W35552   3.904   3.464  12.905  0.3796 -0.3709 -0.0278
20084W        W35553  13.276   7.804   0.863 -0.0400 -0.0286 -0.0631
20085W        W35554   3.635  17.817  14.389  0.0269  0.1374 -0.1403
20086W        W35555  11.382  14.274   4.862  0.1980  0.0585 -0.4008
20087W        W35556   3.205  18.486  11.741  0.1548 -0.0258  0.1083
20088W        W35557  18.157  17.593  15.576 -0.0886  0.0529  0.1414
20089W        W35558  10.716  12.318  14.724  0.3571  0.1898  0.4101
20090W        W35559   0.380   4.320   2.397  0.3430 -0.1801 -0.0778
20091W        W35560   1.120  15.629   1.588 -0.1004  0.1171 -0.0711
20092W        W35561   2.624  10.284  13.383  0.1236 -0.3035 -0.3740
20093W        W35562   3.896   9.415   3.612  0.1728  0.1479  0.0228
20094W        W35563   5.025   1.926   0.732  0.1077  0.1276  0.1245
20095W        W35564   4.488   9.288   4.420 -0.2905 -0.0010  0.1155
20096W        W35565  13.790   3.849  10.425  0.1186  0.0383  0.1344
20097W        W35566   2.863   0.417   3.424 -0.2123  0.1183 -0.0501
20098W        W35567   1.300   0.112  14.542  0.0022 -0.2349 -0.1584
20099W        W35568  13.365   6.104  13.747 -0.1835 -0.0806 -0.2072
20100W        W35569   3.207   2.841   4.105  0.1754  0.1800 -0.0598
20101W        W35570   7.179   5.585  14.540 -0.3134  0.1394 -0.2457
20102W        W35571  10.597   5.226  11.414  0.1285 -0.1409  0.1009
20103W        W35572  14.742  15.983  13.441  0.4449  0.1511  0.1409
20104W        W35573  16.903   6.926   2.562  0.1194 -0.0451  0.0648
20105W        W35574   6.686  13.164  14.627 -0.0123  0.2171 -0.1581
20106W        W35575   6.704   1.678   3.976 -0.1066 -0.2713  0.0160
20107W        W35576  14.779   7.574   4.880 -0.0506  0.0124  0.0106
20108W        W35577   4.065  18.323   6.006 -0.2170 -0.2077 -0.1770
20109W        W35578   3.056   1.706  13.439 -0.0756 -0.1090  0.4186
20110W        W35579  15.288  13.752   1.059 -0.2602  0.3126  0.1520
20111W        W35580  16.684   8.098   0.790 -0.4224 -0.0979 -0.0682
20112W        W35581   8.351   4.208  14.365  0.1407 -0.1805 -0.0153
20113W        W35582   6.155   0.044  12.378 -0.0335  0.1125  0.0992
20114W        W35583  18.014  17.493  14.985  0.1837 -0.1858  0.0720
20115W        W35584   2.961  15.218  14.908 -0.0722 -0.2221  0.1019
20116W        W35585  11.067   5.475   1.014 -0.1101  0.1029  0.0638
20117W        W35586   1.518   5.106  13.011 -0.3417  0.0221  0.1045
20118W        W35587  17.814  10.815  12.324 -0.4152  0.0214  0.0179
20119W        W35588  12.014  14.042  13.052  0.2415  0.2094 -0.1510
20120W        W35589   2.573  18.755   2.792  0.0170 -0.3952  0.2270
20121W        W35590  15.289   9.172  14.710  0.0605 -0.0735 -0.2588
20122W        W35591  15.645  15.014  14.437  0.0259  0.1591  0.2434
20123W        W35592   6.954  12.135  15.391 -0.1471  0.1825 -0.0551
20124W        W35593   5.219   5.561   5.137 -0.2621 -0.0188 -0.0213
20125W        W35594   1.151  17.017   4.744 -0.1726 -0.0790 -0.0640
20126W        W35595  12.542  10.333   1.290  0.2540 -0.0726  0.0647
20127W        W35596   4.708  17.197  13.811  0.1691  0.5399 -0.0161
20128W        W35597  10.812  11.643   4.466 -0.1340  0.1128 -0.1170
20129W        W35598   6.825  13.690  14.525  0.0930  0.0171 -0.1465
20130W        W35599  10.364  13.239  12.764  0.0748 -0.0716  0.0321
20131W        W35600   9.362   5.046   0.167  0.0229 -0.3162  0.4409
20132W        W35601  15.795  13.928  15.537  0.3116  0.1073  0.2209
20133W        W35602   6.941   2.545   5.099  0.0836  0.1888 -0.0646
20134W        W35603  10.091  16.945  14.955  0.1074 -0.2166  0.0841
20135W        W35604  13.051   6.675   5.150  0.0447 -0.4002 -0.2328
20136W        W35605  17.155   9.060  13.548  0.2757  0.0672 -0.0166
20137W        W35606   6.789   3.611  11.183  0.2839  0.0276 -0.1973
20138W        W35607   0.797  12.396  13.102  0.2027 -0.1571  0.2497
20139W        W35608  13.403   2.043   3.601  0.1156  0.1810 -0.2650
20140W        W35609   4.000  12.681  14.484  0.2533  0.2007  0.0917
20141W        W35610   3.712  11.275  14.960 -0.1819  0.2211 -0.0693
20142W        W35611  17.531  15.413  12.304 -0.2325  0.1767 -0.3464
20143W        W35612   8.919   1.739   4.347 -0.1827  0.0910  0.1782
20144W        W35613  13.215  13.529   0.739 -0.0692 -0.0831  0.4725
20145W        W35614  15.646   6.001   2.150  0.4150  0.0414 -0.1443
20146W        W35615  10.667   7.944   2.945 -0.1359  0.0642 -0.0320
20147W        W35616   8.096  14.421   3.822 -0.0134 -0.1280 -0.3331
20148W        W35617   2.380  14.417   2.064 -0.0417 -0.1505 -0.0688
20149W        W35618   9.670  16.968   1.756 -0.3889  0.4485  0.0464
20150W        W35619  14.664  15.655  11.815 -0.0763  0.1408  0.1063
20151W        W35620   2.229  15.675  11.612 -0.0549 -0.0618 -0.2126
20152W        W35621   7.332   4.449  13.686 -0.1485  0.0955 -0.1209
20153W        W35622   2.558   3.507   1.389 -0.1902  0.0147 -0.2165
20154W        W35623   9.208   0.398   3.660 -0.1533  0.1925 -0.2036
20155W        W35624  15.813   0.438  12.061 -0.0203  0.2999 -0.0272
20156W        W35625   6.784  16.737  14.461  0.0539  0.2183 -0.0356
20157W        W35626  16.046  15.448   0.991  0.2316  0.0787 -0.1228
20158W        W35627  14.306   6.618   4.181  0.1075 -0.1187  0.0573
20159W        W35628  17.138   5.098   3.500 -0.1478  0.1482  0.2019
20160W        W35629  12.176  14.491  13.423 -0.3752 -0.1085 -0.0598
20161W        W35630  16.826  15.438  12.941  0.2941  0.2315  0.1417
20162W        W35631  17.557  10.972  13.226  0.2227  0.1914  0.0378
20163W        W35632  14.597   8.188  11.810 -0.2126 -0.5168  0.4164
20164W        W35633   4.684  13.540  11.025 -0.0356 -0.1259 -0.0207
20165W        W35634   1.137   1.886  12.119  0.0972  0.2969  0.2820
20166W        W35635  16.817  16.077  11.798 -0.2880  0.0903  0.3337
20167W        W35636  16.518  14.231   2.405  0.0784 -0.0088 -0.3441
20168W        W35637  15.119   3.711  11.856  0.2473 -0.0167  0.0953
20169W        W35638  15.400   2.005  14.781  0.0985  0.2755 -0.2747
20170W        W35639   2.121   7.746   1.755  0.1549  0.0308 -0.0369
20171W        W35640   2.263  12.850   2.309 -0.0851  0.3754 -0.1667
20172W        W35641   2.864  14.890  12.446 -0.1080  0.2784 -0.0150
20173W        W35642   3.783   1.100  14.944  0.0633 -0.0794 -0.0061
20174W        W35643  10.623  15.014  11.454  0.1894 -0.0909  0.1456
20175W        W35644  11.531   3.705   1.006  0.2993 -0.0027 -0.5601
20176W        W35645   7.838   7.220   3.792  0.2721  0.0314  0.3592
20177W        W35646  17.551  12.532  12.993  0.0797 -0.3906  0.0989
20178W        W35647  18.489  15.994   5.283  0.1525  0.0519 -0.1862
20179W        W35648  15.200   8.716  15.573 -0.0696  0.0083  0.0710
20180W        W35649  16.013   6.396   0.326  0.1727 -0.2768 -0.4243
20181W        W35650  16.724  16.796   4.036 -0.0117  0.0489 -0.1962
20182W        W35651  15.981  16.927  13.620 -0.1848 -0.0165 -0.1012
20183W        W35652   4.373  11.758   4.930 -0.3111 -0.2881 -0.0484
20184W        W35653   9.912  17.274   1.459  0.0552 -0.2165 -0.3435
20185W        W35654   3.390   7.793   4.825 -0.0802 -0.0532 -0.4387
20186W        W35655   2.877  18.047   1.690  0.0884 -0.1931 -0.0024
20187W        W35656  18.683  13.474  14.346  0.0152  0.0128 -0.1248
20188W        W35657  18.505   3.383  11.524  0.0111 -0.0303 -0.2900
20189W        W35658   1.767   8.559   3.566  0.3230 -0.2367  0.4462
20190W        W35659   6.695   3.056   5.090  0.3315 -0.1549 -0.0560
20191W        W35660   4.369  18.077  14.843  0.0323 -0.1339  0.1515
20192W        W35661   0.483   0.723   2.720 -0.4525 -0.0992 -0.0769
20193W        W35662  18.419   0.434  11.333  0.0399  0.1581  0.0353
20194W        W35663  14.545   8.599   4.876 -0.3582 -0.0232 -0.3226
20195W        W35664   3.927  12.108   3.938  0.2699  0.0466 -0.4576
20196W        W35665   5.648  17.621  14.490 -0.0748  0.0779 -0.1008
20197W        W35666   4.596  15.944   3.707 -0.0774  0.1733  0.0758
20198W        W35667   7.371   6.330   0.990  0.0262 -0.0341  0.1070
20199W        W35668  11.964   3.692  15.286  0.1083 -0.1009  0.3053
20200W        W35669   5.427  10.147   2.694 -0.0136  0.1681 -0.1504
20201W        W35670   5.859   6.619  12.698 -0.1862 -0.1309  0.1028
20202W        W35671   2.375  14.644  13.245  0.0959  0.2977  0.3540
20203W        W35672   9.458  11.365  13.731  0.1689  0.0046  0.2266
20204W        W35673   1.521  10.604  14.178 -0.3484  0.1349 -0.1242
20205W        W35674   4.630   0.814  10.909  0.0855 -0.2112  0.0651
20206W        W35675  17.259  15.068   0.139 -0.1826  0.3844 -0.2358
20207W        W35676   3.279  15.775   2.238 -0.2624  0.0788 -0.2062
20208W        W35677   2.725  15.423   0.010  0.2594  0.0294 -0.2899
20209W        W35678   3.285  12.483   4.827  0.0140 -0.0810 -0.0141
20210W        W35679  11.585  16.254   9.794  0.3534  0.0329 -0.0764
20211W        W35680  10.253   6.473  11.410  0.2076 -0.2829  0.1669
20212W        W35681   8.152  14.334   1.135 -0.3400  0.0662  0.3278
20213W        W35682  10.946   5.511  14.851  0.1681 -0.0887  0.0501
20214W        W35683  11.568   5.175   0.749  0.0680 -0.2570 -0.2878
20215W        W35684   1.912  15.543   1.954 -0.1144 -0.3869  0.1664
20216W        W35685  13.605   3.442   0.748  0.2786  0.0013  0.0227
20217W        W35686   4.039   7.162  15.381 -0.0379 -0.1624 -0.0034
20218W        W35687   6.021  12.116  12.376 -0.0419  0.2052  0.2761
20219W        W35688  11.934   2.438  15.234  0.5581  0.4008  0.0677
20220W        W35689  10.068  11.382   1.592 -0.1270 -0.0023  0.1438
20221W        W35690   5.909   4.937   2.311 -0.7099 -0.0197  0.1467
20222W        W35691  11.287   1.731  10.982  0.0006  0.0247  0.1231
20223W        W35692  12.844   1.102  13.406  0.0451 -0.0207 -0.0019
20224W        W35693   9.911  14.288  12.868 -0.0980  0.0808  0.0701
20225W        W35694   5.009  11.563   3.302 -0.3693 -0.1578 -0.1879
20226W        W35695   9.456  13.833   0.586 -0.0309  0.0074 -0.1398
20227W        W35696  14.189   9.634  12.824 -0.3099 -0.1468  0.0929
20228W        W35697  13.964   5.537  10.043 -0.1747 -0.1784  0.1861
20229W        W35698   1.924  18.071  11.357 -0.1448 -0.2184 -0.1517
20230W        W35699   0.805   0.394  13.427 -0.3190  0.1474  0.0581
20231W        W35700  16.124   9.600  14.849  0.2977 -0.0948  0.0598
20232W        W35701   0.788  14.908   4.732  0.0537 -0.1143  0.0162
20233W        W35702  10.851   2.029  11.564 -0.1013  0.3595  0.1552
20234W        W35703   3.624  18.653  10.524  0.0254  0.3126  0.1411
20235W        W35704   8.632   7.661  14.952  0.0554 -0.1576  0.3631
20236W        W35705  12.252  15.333  14.208 -0.2612 -0.0545  0.1062
20237W        W35706  13.158   1.295  14.162  0.0572 -0.1187 -0.1601
20238W        W35707  11.998   8.382   0.084  0.0485  0.1129 -0.0730
20239W        W35708  18.137   4.398   3.653 -0.0556 -0.1225 -0.1394
20240W        W35709  12.698   5.403  14.893 -0.0461  0.0388 -0.1484
20241W        W35710   9.704   1.690  12.410  0.0183 -0.0044 -0.0781
20242W        W35711  11.454   1.810  15.527 -0.2566 -0.3612  0.0626
20243W        W35712  13.673   4.402  14.297  0.0948 -0.1020 -0.3455
20244W        W35713  14.566   7.415  12.537  0.0539  0.5382  0.0761
20245W        W35714  17.891   0.025  12.476  0.1634 -0.0078  0.2131
20246W        W35715  17.470  14.642   5.301 -0.1558  0.1042 -0.1484
20247W        W35716  18.621   2.988   2.325  0.0044 -0.0573 -0.1220
20248W        W35717   6.022   8.299  14.521 -0.0490 -0.2994 -0.0517
20249W        W35718  12.824   8.636  15.427 -0.2599 -0.3590  0.1558
20250W        W35719   4.556  13.264  10.124 -0.0965  0.0322 -0.3406
20251W        W35720  12.909  18.681   1.290 -0.0508 -0.1743 -0.2378
20252W        W35721   3.537   4.287   2.235  0.3225  0.5059  0.1154
20253W        W35722  18.021  11.915   0.133 -0.0460 -0.2779 -0.0034
20254W        W35723  11.199  17.339   2.989 -0.1898 -0.0906 -0.2694
20255W        W35724   8.659  13.896   4.481 -0.3137 -0.2847 -0.1141
20256W        W35725  12.230  10.709  14.439 -0.0914  0.2250  0.3246
20257W        W35726  12.268  18.126  12.400  0.4416 -0.0930  0.2326
20258W        W35727   2.449  14.037   0.350  0.0288 -0.1686  0.0541
20259W        W35728  14.946   0.643  11.629 -0.0365 -0.1183  0.1426
20260W        W35729   0.009   7.301  14.390 -0.2998  0.1814 -0.0553
20261W        W35730  14.229   4.764   4.453  0.2499  0.0597 -0.2604
20262W        W35731   9.908   6.315   1.286 -0.1956 -0.0903  0.0539
20263W        W35732  10.308  14.915   2.469  0.0979 -0.0347  0.1762
20264W        W35733   5.258   4.362  10.708 -0.0813 -0.1257 -0.5186
20265W        W35734   5.420  10.222   1.436 -0.3932  0.0219 -0.0247
20266W        W35735   6.722  15.670  13.724 -0.3392  0.3275 -0.2634
20267W        W35736  13.342   9.289  12.280 -0.3315 -0.3164  0.1864
20268W        W35737   1.856  15.230   1.313 -0.0054 -0.2769 -0.0989
20269W        W35738  10.702   4.494  12.716  0.0993  0.0642  0.0477
20270W        W35739   0.537  16.243  14.333  0.2633  0.1047  0.0389
20271W        W35740  18.011  15.093   3.277 -0.2862  0.3044 -0.3627
20272W        W35741  15.366  16.412   3.922  0.0446 -0.2824  0.1282
20273W        W35742   5.643  17.630  13.565 -0.1990  0.1075  0.2766
20274W        W35743   0.947   7.408  11.983 -0.2181 -0.2091 -0.1747
20275W        W35744  17.395   3.631   3.858 -0.0971 -0.4487  0.1530
20276W        W35745  11.430  13.194  15.508  0.0556 -0.2655 -0.0048
20277W        W35746  15.042  17.547  12.310  0.0580  0.3693  0.0717
20278W        W35747   9.339  11.962   3.663  0.1743  0.1932 -0.0347
20279W        W35748   1.211  10.541   2.817  0.0106  0.0637  0.4797
20280W        W35749   1.529  10.918  11.808 -0.3933 -0.0407 -0.1494
20281W        W35750   8.101   6.308  15.372  0.0791 -0.1940 -0.1063
20282W        W35751  13.441  15.563   5.685 -0.0380  0.0066  0.1066
20283W        W35752   6.729   3.367   4.167  0.1095 -0.2060 -0.0309
20284W        W35753  13.830  14.635   1.400 -0.0321 -0.2118  0.2436
20285W        W35754  13.448   0.253   5.282 -0.2668 -0.1938 -0.1018
20286W        W35755  14.233   7.704   4.992 -0.1004  0.4156  0.2183
20287W        W35756   5.586  10.190  14.111  0.0016 -0.1055  0.1292
20288W        W35757   3.942   2.513  14.754 -0.2089  0.2057  0.1922
20289W        W35758  12.438   6.653   0.138  0.0313 -0.0012 -0.3994
20290W        W35759   9.031  14.480   2.382  0.0951 -0.6029  0.1929
20291W        W35760  18.286  17.045   3.201 -0.1801  0.3158 -0.2586
20292W        W35761   8.079   1.749   1.326  0.0172 -0.0860 -0.0796
20293W        W35762   2.817   7.837   2.519  0.3344 -0.0351 -0.0090
20294W        W35763   0.830  14.208  13.317 -0.0224  0.1206 -0.2488
20295W        W35764  15.420   3.441  15.214  0.0896 -0.1193 -0.1371
20296W        W35765   6.591  14.622   1.834  0.2488 -0.1092  0.0301
20297W        W35766  14.784  18.209   0.209  0.0215  0.1287  0.3109
20298W        W35767   3.497  16.157   5.420  0.0074 -0.2534  0.2025
20299W        W35768  16.269  12.331  12.532  0.0876 -0.0905  0.1623
20300W        W35769   1.048  15.367  12.915 -0.1163 -0.0513 -0.1140
20301W        W35770   2.247  11.849   2.231  0.0508  0.0929  0.2940
20302W        W35771  11.394  11.923   2.194  0.0477  0.0531  0.2249
20303W        W35772   7.016   2.200  12.876 -0.1028 -0.0938  0.1635
20304W        W35773   3.668   8.001  12.351 -0.3432 -0.1365 -0.1368
20305W        W35774   8.231   4.563   5.525 -0.1949  0.1161 -0.1771
20306W        W35775   1.159  16.728  12.062  0.0200 -0.3181  0.2143
20307W        W35776  12.538   9.566  13.459  0.0356  0.2046  0.1548
20308W        W35777  10.758  16.113  12.401 -0.0535  0.1075  0.1848
20309W        W35778  15.662   2.738   0.938 -0.3051 -0.3417  0.1300
20310W        W35779   6.783   6.777   1.229  0.0693  0.1716  0.1995
20311W        W35780  10.087   6.656   3.389  0.0346  0.1196  0.2448
20312W        W35781  11.312   7.559   1.674  0.1183 -0.2212 -0.0605
20313W        W35782   0.868  16.099   1.150 -0.0160  0.2111  0.3045
20314W        W35783  15.144   7.422  12.606  0.0083 -0.0255 -0.0112
20315W        W35784   5.297   0.787  11.046  0.0090 -0.1165  0.3810
20316W        W35785   6.052  17.317   5.488  0.1091 -0.0742  0.1126
20317W        W35786  13.452   2.029   2.465 -0.1458  0.1563  0.2281
20318W        W35787   4.243  16.307   0.687 -0.1637  0.2304  0.2062
20319W        W35788   2.500  12.608   2.775 -0.0586  0.0988  0.1721
20320W        W35789   9.249  16.052  13.378  0.2841  0.0481 -0.1832
20321W        W35790  10.783  16.537  13.716 -0.1507  0.2823  0.1218
20322W        W35791   3.192   1.391  14.209  0.0069  0.1468  0.0359
20323W        W35792   3.426   1.577  13.034 -0.3715  0.0509 -0.2455
20324W        W35793   3.795  10.681  10.421 -0.0752 -0.0662 -0.0292
20325W        W35794   9.134   7.541  10.695  0.0591  0.1346 -0.1251
20326W        W35795  17.444   0.776  13.341  0.1778  0.2959 -0.1159
20327W        W35796  11.449   9.170   1.994 -0.1295 -0.1191 -0.0996
20328W        W35797  12.169   4.302   3.098  0.2114 -0.1189  0.1376
20329W        W35798   1.266   0.842  10.226 -0.0201  0.1925  0.0185
20330W        W35799   4.526  10.309  15.593  0.1722 -0.0943  0.2149
20331W        W35800   7.713  12.875  12.928  0.1524 -0.1439 -0.0946
20332W        W35801  14.722   9.131   0.932 -0.0086 -0.1576  0.1061
20333W        W35802  10.037  12.633   2.961 -0.3099  0.1975  0.1278
20334W        W35803  12.519   5.186   4.808 -0.3752  0.1819 -0.0445
20335W        W35804   3.904   1.841   3.460 -0.0938  0.1264 -0.1024
20336W        W35805   9.916   8.933   3.038 -0.1007  0.0259  0.1862
20337W        W35806  17.114   7.544   3.379  0.0584  0.1184 -0.0340
20338W        W35807  13.306   7.776   3.992  0.1762 -0.4194  0.0674
20339W        W35808  15.079  12.650   2.875 -0.2368 -0.1738 -0.0082
20340W        W35809   4.312  11.539  11.082  0.0294 -0.1760  0.0669
20341W        W35810   2.212   2.196  14.371 -0.3395 -0.1598  0.1100
20342W        W35811   4.105   0.305   1.790  0.0895 -0.0589  0.2315
20343W        W35812  15.645   2.494   5.087  0.2204  0.0442  0.0247
20344W        W35813   0.668  10.415   0.472  0.0793 -0.1024 -0.0469
20345W        W35814  10.519   2.270   1.251 -0.4836 -0.0708  0.0584
20346W        W35815  10.357   7.720   1.547 -0.1023  0.0634  0.3003
20347W        W35816   3.464  16.480  10.701  0.0400  0.0459 -0.2699
20348W        W35817   7.726   0.097  11.294  0.2206 -0.1501  0.1342
20349W        W35818  12.654  17.770  14.975 -0.1651 -0.0764  0.0549
20350W        W35819   9.344   6.390   0.858 -0.2163 -0.4917 -0.0632
20351W        W35820   2.279   6.672   4.270 -0.1292  0.2970  0.2491
20352W        W35821   9.750  16.665  11.554  0.3475  0.0609 -0.3776
20353W        W35822   7.991  15.485  13.573 -0.0391  0.1718  0.1097
20354W        W35823   0.325   1.806  10.989  0.1554 -0.1386 -0.4038
20355W        W35824   1.160   9.799  11.526 -0.0696 -0.3383  0.0383
20356W        W35825  12.074   4.930  15.650  0.2562  0.0645 -0.0368
20357W        W35826  12.855  11.234  14.176  0.3219  0.0436  0.5735
20358W        W35827  13.444   4.047   0.196 -0.3203 -0.0470 -0.2801
20359W        W35828   4.354  15.569  12.432 -0.3874  0.1469  0.5269
20360W        W35829  11.178  14.098   4.424  0.0828  0.1449 -0.0487
20361W        W35830  12.827   3.678   1.445  0.1606 -0.0028  0.0827
20362W        W35831   4.943  13.079   5.284  0.3042 -0.2837  0.2451
20363W        W35832  14.977  13.459   1.279  0.1948 -0.1959  0.0598
20364W        W35833   2.482  11.910   5.071  0.2673  0.2887  0.3212
20365W        W35834  15.744  16.449   2.575  0.1328  0.0555  0.1872
20366W        W35835   4.540  13.753   3.456 -0.1249  0.0128 -0.2426
20367W        W35836  15.324   2.840   0.481  0.3360  0.0395  0.0182
20368W        W35837   0.747  16.935   4.174  0.1694  0.3297 -0.1184
20369W        W35838   0.793   7.575   4.249  0.0483  0.3840  0.2146
20370W        W35839   2.283   7.767  11.456 -0.1408  0.2128 -0.3410
20371W        W35840  18.478   0.336  12.445  0.2141  0.2498  0.1710
20372W        W35841  13.782  14.609  15.113  0.2587 -0.1723  0.0480
20373W        W35842   9.182   6.935  14.130 -0.3378  0.0307  0.0938
20374W        W35843   9.834   6.975   4.163  0.1662 -0.3148  0.1570
20375W        W35844   0.954   9.580   3.340  0.0102 -0.0228  0.1079
20376W        W35845   2.234  15.032  11.831  0.1387 -0.0469  0.0751
20377W        W35846  17.371   8.354   0.467 -0.2379 -0.3145  0.0987
20378W        W35847   2.568  12.262   4.111 -0.1375 -0.2740  0.4078
20379W        W35848   3.030  12.254   4.295  0.1803  0.1648  0.0745
20380W        W35849   8.276  15.528   4.001 -0.1270 -0.0272 -0.2348
20381W        W35850   7.362  16.545  13.436 -0.1343 -0.1959 -0.2270
20382W        W35851   0.928  14.138   0.103 -0.2288  0.0753 -0.0241
20383W        W35852   4.442  14.562   3.096  0.0954 -0.1098  0.2341
20384W        W35853   4.217   7.994  12.759 -0.2371  0.0133  0.1409
20385W        W35854  15.783   0.822   2.623  0.3201 -0.1486 -0.0536
20386W        W35855  13.911  18.656  14.208  0.1763  0.0566 -0.0741
20387W        W35856  17.105  17.756  14.049 -0.0780 -0.1832 -0.3519
20388W        W35857  12.145  10.784  15.604 -0.1393  0.0333  0.0358
20389W        W35858  13.335  12.582   5.926 -0.1477  0.3189  0.1815
20390W        W35859   2.235   9.577  15.430  0.0202  0.2316 -0.2118
20391W        W35860   1.817  16.285  10.198 -0.1287  0.0894  0.1780
20392W        W35861   5.514  16.051   2.689  0.0702 -0.1839 -0.2423
20393W        W35862   3.496   1.013  15.496 -0.1936  0.0166 -0.0432
20394W        W35863   1.191  12.616  14.863  0.3814 -0.3028 -0.3993
20395W        W35864  17.105  12.580  12.205 -0.0970 -0.1930 -0.1584
20396W        W35865   1.893  16.337  12.419 -0.1166  0.2141  0.2981
20397W        W35866  15.989   2.250  12.808  0.2092 -0.0516 -0.1568
20398W        W35867   5.878   0.091   3.308  0.1145  0.0801 -0.1636
20399W        W35868   3.088   3.683  11.986  0.1087 -0.1448 -0.0919
20400W        W35869   7.428   5.045  12.353 -0.0406 -0.2158 -0.0759
20401W        W35870  12.665   8.892   4.920  0.2650 -0.0056  0.2629
20402W        W35871   9.302  10.492   9.881 -0.1663 -0.1981 -0.0531
20403W        W35872  18.557   2.437   5.300  0.1343 -0.1160 -0.1448
20404W        W35873   7.402   9.419  12.711  0.0105  0.0097  0.2581
20405W        W35874   3.144  16.794   3.027  0.0744  0.3638 -0.0308
20406W        W35875  17.302  10.238  12.950  0.0199 -0.1408 -0.1596
20407W        W35876   5.822   6.962  12.333  0.2384  0.0988 -0.1975
20408W        W35877  14.145  15.851   3.798 -0.0141  0.3427  0.0917
20409W        W35878   3.072  18.144   3.651  0.0577 -0.0558  0.0296
20410W        W35879   2.457   7.431   2.411 -0.2868 -0.1315  0.1900
20411W        W35880  12.337  11.495  12.849 -0.1491  0.1628 -0.0452
20412W        W35881  14.083  17.919   5.080  0.1098 -0.7250 -0.0209
20413W        W35882   5.081   6.360   3.970  0.0384 -0.0135  0.0975
20414W        W35883  14.384  17.096   0.800 -0.1367 -0.1203 -0.0337
20415W        W35884  14.099   6.955   4.953 -0.3987 -0.1404 -0.3500
20416W        W35885  10.539  16.293  14.809  0.3820  0.1086  0.1154
20417W        W35886  13.859  13.017   4.134 -0.1512 -0.0400 -0.0091
20418W        W35887   2.075  13.208   4.813 -0.3524 -0.0682 -0.1494
20419W        W35888   3.058   6.219   3.302 -0.3686 -0.2023  0.1628
20420W        W35889  17.420   3.604  14.792 -0.2706  0.2478  0.0479
20421W        W35890  11.006   3.425  15.148  0.0494 -0.2067  0.1063
20422W        W35891   7.176  14.629  14.232 -0.4358 -0.0328 -0.1812
20423W        W35892   3.077  13.216   3.120  0.0096 -0.2145  0.1518
20424W        W35893  16.634   1.424   4.735  0.1601 -0.1616 -0.1235
20425W        W35894   9.476  15.873   2.254  0.1678 -0.3988 -0.3278
20426W        W35895   5.120   8.977   0.589  0.3423  0.1180  0.1263
20427W        W35896  17.302   5.705  12.119  0.0502 -0.0892 -0.3360
20428W        W35897  10.322  15.599   0.831  0.0119  0.2366 -0.0856
20429W        W35898  16.749  16.756   3.531 -0.0610  0.0055 -0.0410
20430W        W35899   3.687   7.984   1.405 -0.1804  0.0243  0.2421
20431W        W35900  12.941   7.441  14.381  0.1801 -0.1120  0.3008
20432W        W35901  11.878   5.586  14.716  0.1645  0.0011 -0.3998
20433W        W35902  13.026   4.468   5.484  0.2651  0.1189  0.1796
20434W        W35903   6.246  13.401   4.625  0.3272  0.0903  0.2934
20435W        W35904  14.323  15.606  15.373 -0.2794  0.2423  0.0944
20436W        W35905  12.444  13.518   4.219  0.2792  0.2030 -0.2335
20437W        W35906  11.704   9.057  14.347  0.2956 -0.0700  0.2393
20438W        W35907  12.712   2.221   0.554  0.1572  0.1653  0.4249
20439W        W35908  16.862  14.474   1.828 -0.0999  0.1237  0.2468
20440W        W35909   1.792   3.187  13.303 -0.2048 -0.0879 -0.4418
20441W        W35910  10.037   0.183  12.197  0.0502 -0.3742 -0.2950
20442W        W35911   7.770   8.335   3.062 -0.0490  0.0217 -0.1165
20443W        W35912   3.654   1.686   4.297  0.1914 -0.0315 -0.3522
20444W        W35913  12.902  17.627   4.169 -0.3771  0.0264 -0.0721
20445W        W35914   5.479   7.508  11.672 -0.2014 -0.4229  0.0473
20446W        W35915  16.745   2.726  13.111  0.0755  0.0949  0.1395
20447W        W35916   2.336   4.002  12.988 -0.0256 -0.1332  0.2261
20448W        W35917   9.606   3.653  10.890 -0.1203 -0.0226 -0.1380
20449W        W35918   2.600   9.674   4.733  0.1099 -0.1246 -0.4494
20450W        W35919  11.886   9.794   2.167  0.1968 -0.2531  0.3362
20451W        W35920   5.090  11.099   0.357  0.2677  0.1319 -0.2866
20452W        W35921  11.750  13.666  10.952  0.1095 -0.1230 -0.0322
20453W        W35922   6.147  15.660   0.347  0.1434  0.1522 -0.1897
20454W        W35923   9.438  10.498   0.176  0.1087  0.1169 -0.1318
20455W        W35924  13.494   7.432   0.512  0.1420 -0.2249  0.1431
20456W        W35925  13.895   2.516  11.835 -0.1146 -0.0205  0.0916
20457W        W35926  12.063   7.781  13.452  0.3526 -0.0532 -0.2514
20458W        W35927  13.218   4.450  11.968  0.1250  0.1361 -0.0364
20459W        W35928  14.470   6.519  15.028  0.0466  0.1696  0.2764
20460W        W35929   2.193   3.089  12.771 -0.1017 -0.0974  0.2081
20461W        W35930  12.727  10.594   3.661 -0.0973 -0.1317  0.3160
20462W        W35931   2.897  10.511   3.620  0.0459  0.2725 -0.0978
20463W        W35932   2.966  18.010   5.433  0.1479  0.3226 -0.0690
20464W        W35933   2.435   6.938  10.590 -0.1106  0.0775 -0.0629
20465W        W35934  13.680  12.033  10.639  0.0884  0.1206  0.1245
20466W        W35935   8.331   5.057  12.799 -0.1413 -0.3400 -0.0288
20467W        W35936   0.155  10.987   0.686 -0.1616  0.1946  0.1497
20468W        W35937  15.006  17.671   0.115  0.3251  0.0163 -0.1170
20469W        W35938   6.607  18.044   4.343 -0.0548  0.0562  0.3180
20470W        W35939   5.827   5.281   3.382 -0.2998 -0.0370 -0.1793
20471W        W35940  14.345   5.464  11.310  0.0158  0.1493 -0.0676
20472W        W35941  13.253   5.059  12.208 -0.1419  0.1516 -0.1210
20473W        W35942  11.216   5.831  13.185  0.2248  0.0500 -0.0204
20474W        W35943   5.044   8.167  13.161 -0.1400 -0.2255  0.2716
20475W        W35944   0.235  10.110   4.265 -0.0075  0.0506 -0.1876
20476W        W35945   3.589  16.750  12.896 -0.1687  0.1803 -0.2124
20477W        W35946   0.904   0.635  14.047  0.1811 -0.2090  0.1729
20478W        W35947  16.341   0.491  15.370 -0.1446  0.0487  0.2707
20479W        W35948  13.293  10.002   5.583 -0.0214 -0.0225 -0.0791
20480W        W35949   3.626   6.750   3.455 -0.2431  0.1843 -0.2553
20481W        W35950  11.991  17.187   3.850 -0.1889 -0.1272  0.0289
20482W        W35951  13.962  14.855   1.948 -0.1604 -0.0968  0.0400
20483W        W35952  12.564   8.087  12.196 -0.1409 -0.2543 -0.2812
20484W        W35953  13.856   8.669   1.162  0.1314 -0.2495 -0.3643
20485W        W35954   9.195  16.708  10.092  0.1137 -0.2836 -0.1772
20486W        W35955  15.141   2.234  14.223 -0.0303 -0.0701  0.0699
20487W        W35956   3.969   5.722  12.388 -0.3127  0.4430  0.1977
20488W        W35957  14.592  16.739  12.541 -0.2732  0.0770 -0.0806
20489W        W35958   5.361  18.014  14.808 -0.1737  0.2715  0.2118
20490W        W35959   9.041   1.509  15.644 -0.0086 -0.1711 -0.2542
20491W        W35960  15.148  10.189   5.436 -0.2449 -0.0029 -0.0228
20492W        W35961  14.305   5.125  15.253 -0.3594 -0.1966 -0.0756
20493W        W35962   5.709  14.919  13.045 -0.0055 -0.0650 -0.0574
20494W        W35963  15.528  18.474  15.344  0.1577 -0.3530 -0.2832
20495W        W35964   1.272   0.263   2.858  0.1024  0.2492  0.0057
20496W        W35965  10.179  17.848   5.828  0.0345 -0.2143 -0.2707
20497W        W35966  13.921   4.386   4.652  0.0643 -0.0717 -0.2132
20498W        W35967  10.394   0.157  10.894 -0.1119  0.0473 -0.0332
20499W        W35968   2.131  16.525   6.103 -0.2030  0.1070 -0.0162
20500W        W35969   2.545   2.659   4.612  0.0423  0.2073 -0.0357
20501W        W35970   4.040   1.970  13.937  0.1318  0.1311 -0.2612
20502W        W35971   6.348   2.551  14.104 -0.0739  0.0363  0.3161
20503W        W35972  12.283  11.975  12.523  0.0778  0.3305 -0.1797
20504W        W35973  16.366  15.050   4.743  0.0312  0.0355 -0.2867
20505W        W35974  12.335  17.802   4.979 -0.0954  0.0063 -0.0285
20506W        W35975   5.562  12.804   2.627  0.0513 -0.2012 -0.0943
20507W        W35976  12.273  16.924   5.889 -0.0655  0.0391  0.0468
20508W        W35977   9.804  15.988   0.865  0.3364 -0.0570  0.0053
20509W        W35978   1.767   0.675   4.337 -0.1828  0.0760  0.0244
20510W        W35979  17.966   5.537  12.314 -0.1543  0.0363  0.0822
20511W        W35980  11.736   9.468  13.083 -0.2964 -0.0739  0.0385
20512W        W35981  13.474  13.190  11.470  0.1422 -0.0289 -0.1757
20513W        W35982  10.970   9.670   0.435  0.1267  0.2063 -0.1100
20514W        W35983  14.932  16.394  12.306  0.1412 -0.0783  0.1090
20515W        W35984   2.513   9.044   5.552 -0.2121 -0.1746  0.2072
20516W        W35985  16.808  15.803  14.459 -0.0977 -0.0832 -0.2603
20517W        W35986   4.865   5.634  10.589  0.1059  0.3193 -0.1039
20518W        W35987   5.557   8.146   1.184 -0.0043  0.0095 -0.0927
20519W        W35988   4.966  13.868   2.476  0.1964 -0.2841 -0.2681
20520W        W35989  13.997  14.373   4.196  0.3160  0.0547  0.0202
20521W        W35990  10.206  13.418   4.379 -0.0678  0.2520 -0.0118
20522W        W35991  12.707   8.166  14.184  0.2962 -0.0795 -0.0580
20523W        W35992  16.999   4.380  15.062  0.0194 -0.2377 -0.1042
20524W        W35993   4.590   4.082  15.326 -0.0209  0.1185 -0.2598
20525W        W35994   9.384   3.791  11.347  0.1297 -0.1582  0.0316
20526W        W35995   1.340   4.836   1.709  0.0407 -0.1552  0.0064
20527W        W35996   4.425   4.104   0.155 -0.1397 -0.1356 -0.2393
20528W        W35997  12.292   4.815  10.501 -0.3205  0.0452 -0.1673
20529W        W35998   7.294  14.787  11.523  0.0697 -0.1352  0.2365
20530W        W35999  12.399   9.465  15.383  0.1329 -0.0919 -0.1442
20531W        W36000  10.933  11.001  12.792  0.2142 -0.3288  0.0546
20532W        W36001  16.462   6.867  10.925  0.0260 -0.1676 -0.0059
20533W        W36002  16.353   5.136   2.507  0.1346  0.2338 -0.0977
20534W        W36003  12.716  13.227  15.360 -0.1748  0.3116 -0.0861
20535W        W36004   7.401  17.638  11.450 -0.1686 -0.0008  0.2270
20536W        W36005   4.878  13.127   0.278  0.1218 -0.2444 -0.0013
20537W        W36006  10.946  16.810   2.441 -0.2075  0.3286 -0.0164
20538W        W36007   8.368  17.988  15.414  0.0625  0.0903 -0.2395
20539W        W36008   6.142   4.363  12.978  0.1587  0.1537  0.4787
20540W        W36009   3.113   0.859  14.233 -0.3019  0.2703 -0.0504
20541W        W36010   2.362   6.541  14.076  0.1469  0.0073  0.0440
20542W        W36011  10.129  12.219   3.358  0.1990 -0.3036 -0.1012
20543W        W36012   4.844  13.941   0.937 -0.1395 -0.1568  0.0280
20544W        W36013   8.811   3.341  11.271  0.0110  0.0532  0.1829
20545W        W36014  16.249  16.445   2.425 -0.0129 -0.0631  0.2794
20546W        W36015  14.595   3.925   2.939  0.1586  0.3284  0.0004
20547W        W36016  16.459  13.457   1.163  0.1120  0.2627  0.0751
20548W        W36017  11.896  13.950  14.630  0.1623 -0.2597 -0.1762
20549W        W36018  10.557   7.450   2.963 -0.3306 -0.1296  0.1131
20550W        W36019  12.219  17.911   2.154 -0.0832 -0.3711  0.1131
20551W        W36020  16.394  16.200   3.328  0.1589  0.3950 -0.0885
20552W        W36021   5.065   2.812  12.469 -0.2443  0.1671 -0.0022
20553W        W36022   0.147  12.876  15.467  0.0506 -0.0360 -0.0357
20554W        W36023  12.265  11.172   3.062 -0.1337  0.2772 -0.2717
20555W        W36024   2.976   7.630  14.922  0.1234 -0.1350  0.1640
20556W        W36025  10.924  12.608  12.904  0.0775  0.0084  0.1311
20557W        W36026  12.704   4.241   5.150  0.1547  0.1340 -0.1710
20558W        W36027  11.215  17.740   3.393 -0.3587 -0.1405 -0.0211
20559W        W36028  17.958   3.918   2.142  0.0738 -0.0912  0.0323
20560W        W36029   2.780  11.527   4.816  0.0304 -0.0518 -0.1914
20561W        W36030   9.550   4.468   5.449  0.0609  0.2646  0.0973
20562W        W36031   1.645   0.984  10.636 -0.0755 -0.1137  0.0908
20563W        W36032  15.649  12.581   2.645  0.0225 -0.1159 -0.1032
20564W        W36033  16.697  15.466  11.257 -0.1302  0.2351  0.0135
20565W        W36034  14.807  17.843  14.237  0.1601  0.1181 -0.1406
20566W        W36035   7.872  10.133   3.965 -0.0824  0.0087  0.2559
20567W        W36036  13.155  11.512  10.904 -0.2154  0.2818  0.2602
20568W        W36037   3.233  16.385   0.839  0.0842 -0.2135  0.1583
20569W        W36038  15.942   3.207   1.051 -0.1105  0.0610 -0.0103
20570W        W36039   5.213  11.859  11.306  0.0594  0.1001 -0.2396
20571W        W36040   9.727   0.947   5.510  0.1090  0.2351 -0.2511
20572W        W36041  12.198   9.219  13.434  0.1180  0.2867 -0.0763
20573W        W36042   5.861  12.291   0.535 -0.2823  0.2118  0.4044
20574W        W36043   9.109  13.343  11.494 -0.0277  0.0515  0.1931
20575W        W36044  10.415   0.024  14.427  0.1053  0.0615  0.0629
20576W        W36045   9.581   4.658  13.266  0.0426  0.0075 -0.1779
20577W        W36046  18.163   5.380   2.213 -0.1798  0.0122 -0.0141
20578W        W36047   9.447   7.793  13.372 -0.1278  0.0623  0.0479
20579W        W36048  17.159  18.108   2.531 -0.0833 -0.1584  0.2235
20580W        W36049   1.028   3.350  15.584 -0.0517 -0.3307  0.1833
20581W        W36050  17.452   9.762   1.701  0.0007  0.2597 -0.0667
20582W        W36051   8.735   7.772  12.524  0.1699 -0.0670  0.3825
20583W        W36052   8.484   9.082   0.217  0.0139  0.1814  0.3748
20584W        W36053   5.901   3.549  11.418  0.0617 -0.3484 -0.2345
20585W        W36054  15.671  10.475  12.225 -0.3614  0.2257 -0.1716
20586W        W36055  12.161   0.583   0.448  0.0582  0.0391 -0.0728
20587W        W36056  18.775  18.694  10.258 -0.0259  0.3394  0.0374
20588W        W36057  12.697  18.206   3.175 -0.2696 -0.0944 -0.0754
20589W        W36058   0.581   2.474  10.821  0.1588  0.1677 -0.2740
20590W        W36059   0.509   8.355  13.570  0.0033  0.1580 -0.3229
20591W        W36060  15.598   4.441   4.278 -0.2087  0.0298 -0.1604
20592W        W36061   3.446  16.240   3.262 -0.0796 -0.1363 -0.1540
20593W        W36062  17.393  14.538  14.431  0.0337  0.2668  0.0494
20594W        W36063  18.437   6.734   0.523 -0.2276 -0.1161 -0.0172
20595W        W36064  17.458   4.485  10.999 -0.1286 -0.1193 -0.3341
20596W        W36065  14.672  15.281   0.407 -0.0353 -0.2331  0.2374
20597W        W36066   0.618   6.471  14.756 -0.1656  0.0102 -0.0163
20598W        W36067  18.637   3.839   0.416  0.2122  0.0612 -0.2477
20599W        W36068  13.075  11.379   0.829 -0.0618 -0.1477 -0.2560
20600W        W36069   2.501   3.233  13.899  0.0506 -0.1433  0.0763
20601W        W36070   5.816  16.747  13.273 -0.0516 -0.1701  0.2056
20602W        W36071  14.772  15.049   1.397  0.0321 -0.1431 -0.1699
20603W        W36072   0.528   9.322   0.260  0.1736 -0.1803  0.0352
20604W        W36073   9.239  10.829  13.532 -0.1577 -0.2488  0.0878
20605W        W36074  11.656  13.121  11.770 -0.0790 -0.1766 -0.1175
20606W        W36075   7.866   7.267  12.347  0.0794  0.2741  0.0601
20607W        W36076  18.485   2.920   3.170  0.0773 -0.0203 -0.1963
20608W        W36077   0.553   7.384  15.606 -0.0762 -0.2063  0.2972
20609W        W36078  16.871   0.398  10.677 -0.0671  0.0137  0.1655
20610W        W36079  16.347   8.225  11.033 -0.2977  0.3455  0.0659
20611W        W36080   0.827  14.912  12.761  0.1110 -0.2280  0.0317
20612W        W36081   1.968   1.857  13.728 -0.1098 -0.3860  0.1309
20613W        W36082   6.761  11.902  12.050  0.0430  0.0211  0.0350
20614W        W36083   7.217   5.295   3.375  0.3454  0.1204 -0.0928
20615W        W36084  15.511  15.551  14.556  0.1534  0.0605  0.2805
20616W        W36085   0.309  16.545  12.591 -0.1660  0.1147 -0.0658
20617W        W36086   8.401  13.137   0.953 -0.0920  0.2056  0.4926
20618W        W36087   0.361   6.823   0.387 -0.0389  0.0891  0.0046
20619W        W36088   2.957   9.721  11.666  0.3404  0.2108 -0.1512
20620W        W36089  18.365  16.749  13.613 -0.3954  0.0469  0.4052
20621W        W36090  13.902   1.026  11.590 -0.2310 -0.1617  0.0914
20622W        W36091  15.383   0.319   6.154 -0.2924 -0.1435 -0.5062
20623W        W36092  11.408  14.574   4.501 -0.1806 -0.0759 -0.3311
20624W        W36093  16.928   0.341  12.384  0.2230  0.0016  0.0598
20625W        W36094   3.852   1.998  15.572 -0.0850 -0.0855  0.4289
20626W        W36095   8.922  13.997   4.081 -0.3052 -0.2057  0.3869
20627W        W36096   0.163   2.281   2.486 -0.0934 -0.1195 -0.2674
20628W        W36097  13.475   3.613   5.769 -0.0248 -0.0425  0.4480
20629W        W36098  18.584  16.403   2.972 -0.2279  0.0585  0.1456
20630W        W36099  12.093  14.009  10.918  0.0780 -0.1531 -0.1295
20631W        W36100   4.141   6.659   3.184 -0.1688 -0.0544 -0.1181
20632W        W36101   6.671   4.989   5.080  0.0514 -0.1828 -0.3670
20633W        W36102   7.815   6.861  11.365 -0.0801  0.2346 -0.2237
20634W        W36103   7.051   2.843   3.000  0.2651  0.0943 -0.1027
20635W        W36104  17.319  12.246   6.040  0.3437 -0.0024  0.1402
20636W        W36105   1.188  16.354  12.900  0.1467 -0.2658  0.0134
20637W        W36106  14.611   3.655  10.190  0.0429  0.2115  0.0299
20638W        W36107  14.130   8.387  11.602 -0.3455  0.0028  0.0188
20639W        W36108   7.593  14.725  15.172 -0.1867 -0.1745  0.0917
20640W        W36109  18.378  11.789   3.628 -0.1669  0.0682  0.0298
20641W        W36110  11.328  18.403  15.340  0.1164 -0.2988  0.1274
20642W        W36111  15.643  16.697   4.836  0.1085 -0.0058  0.2261
20643W        W36112   2.765   2.006   3.963 -0.3356  0.0782 -0.1134
20644W        W36113   1.914   9.704  11.245 -0.4368 -0.3504 -0.1055
20645W        W36114   5.625   0.667  10.197  0.3319 -0.1320 -0.0630
20646W        W36115   0.757  17.811   0.812 -0.2432 -0.1658 -0.1719
20647W        W36116  11.394   7.387   4.866  0.0830  0.0394  0.2495
20648W        W36117   6.939   6.197  13.855 -0.2814  0.0287 -0.1029
20649W        W36118   3.188   2.123   5.787 -0.0381  0.1489 -0.1861
20650W        W36119  11.434   2.653  11.421  0.4767  0.2211  0.0441
20651W        W36120   0.642  17.396   2.542 -0.1671 -0.5011 -0.1006
20652W        W36121   0.522   3.149  14.843 -0.0759 -0.0887  0.0878
20653W        W36122  11.845  16.320   0.909  0.2647  0.2254 -0.0430
20654W        W36123   6.816   0.320  14.093 -0.1953 -0.1734 -0.0303
20655W        W36124  10.419   8.443  11.885  0.0713  0.1904  0.2442
20656W        W36125   5.247   8.320   3.635  0.1808  0.2426  0.4465
20657W        W36126  18.163   6.789  14.902  0.0226 -0.0704  0.0690
20658W        W36127  17.833  13.071  12.856  0.1368  0.2072 -0.0760
20659W        W36128   4.565  17.081   2.999  0.0080 -0.1962  0.1347
20660W        W36129  11.870  13.326   2.194  0.4130  0.0197 -0.3528
20661W        W36130  11.740  16.896   4.267  0.4382 -0.1807 -0.2114
20662W        W36131   6.763   7.724   2.834  0.1728  0.1393  0.0824
20663W        W36132  16.140  18.469  12.594  0.1993  0.1416 -0.1428
20664W        W36133  16.991  10.869  12.222  0.1343 -0.0608 -0.0069
20665W        W36134  14.463  18.611  11.589  0.1609 -0.2395 -0.2201
20666W        W36135   4.794  14.338  11.218  0.0777  0.0189 -0.0611
20667W        W36136  12.125  16.111  13.531  0.1776 -0.0415 -0.0232
20668W        W36137  17.112  14.343  13.749 -0.0938 -0.1217 -0.5960
20669W        W36138   5.169   2.237  15.212  0.2173 -0.0347 -0.0537
20670W        W36139   1.440  17.150   3.197  0.2584  0.0427 -0.2332
20671W        W36140   9.607   6.290  15.631 -0.3469 -0.0854  0.1565
20672W        W36141  18.178   5.304   0.737 -0.0054  0.3071  0.3654
20673W        W36142   4.562  12.911   5.643  0.1757  0.0336  0.2463
20674W        W36143  11.820  12.399   4.353  0.1905 -0.1556  0.1484
20675W        W36144  10.014   0.942   1.570 -0.1282  0.0630  0.1848
20676W        W36145  13.699  16.249  10.953 -0.3068 -0.1058 -0.3025
20677W        W36146  12.639  17.162  13.534 -0.0051  0.2399  0.0169
20678W        W36147   6.857  12.892   4.226 -0.1982  0.1637  0.1937
20679W        W36148   6.865   9.552   3.838 -0.1222  0.4862 -0.0409
20680W        W36149   2.560  16.257   0.153 -0.3522  0.0632 -0.2073
20681W        W36150   5.368  16.292  10.471 -0.3440  0.1362  0.0075
20682W        W36151   0.696   1.136   2.100  0.1771 -0.2401 -0.0317
20683W        W36152  16.835   9.053  10.895 -0.2179  0.2912  0.0856
20684W        W36153  16.264   2.959   3.175  0.0979 -0.2876  0.0018
20685W        W36154   3.080  15.353   1.494  0.0441  0.1601 -0.1003
20686W        W36155  10.253   4.048   3.239  0.1145  0.0722 -0.1326
20687W        W36156   8.703  14.835   1.516  0.1201  0.0136 -0.0916
20688W        W36157   9.291   7.790   9.257  0.1842 -0.1142 -0.2755
20689W        W36158  14.989   8.944   0.568 -0.0492  0.0708  0.1043
20690W        W36159  12.171  11.728   0.050 -0.0607 -0.0167  0.0937
20691W        W36160  14.553   4.159  10.126 -0.1650 -0.2197  0.1293
20692W        W36161   2.074   8.336   2.127  0.0891  0.1041  0.0274
20693W        W36162  15.404   8.265  11.812  0.1825  0.0929  0.0325
20694W        W36163   8.252   2.922   2.127 -0.1042 -0.0774 -0.1465
20695W        W36164  18.118  12.011   2.494 -0.1573 -0.2952  0.1317
20696W        W36165   8.493   2.750   2.575 -0.0993 -0.2581  0.2591
20697W        W36166   1.714   1.309  13.989 -0.0221  0.0069  0.1030
20698W        W36167   0.089  11.366  13.097 -0.3339  0.0587 -0.1592
20699W        W36168   8.768   7.420   2.588 -0.0538 -0.2648 -0.2001
20700W        W36169  14.797   5.200   1.002 -0.1661 -0.1872 -0.1374
20701W        W36170   0.598   5.731   1.369 -0.2261 -0.0880 -0.3917
20702W        W36171   8.164   3.825  10.016  0.2081  0.1483 -0.2411
20703W        W36172   5.492  15.037  15.320 -0.2977  0.0286 -0.2986
20704W        W36173   9.544  10.882   3.409 -0.1929 -0.3874 -0.0651
20705W        W36174   5.710  17.069  14.255 -0.2647  0.0620 -0.0278
20706W        W36175  17.615  18.062   4.443  0.0173  0.1066  0.0336
20707W        W36176   5.032  13.161   2.000 -0.3236  0.2087 -0.2425
20708W        W36177   6.826   9.785   4.301  0.1037 -0.0181 -0.0646
20709W        W36178   7.076   3.859   5.234 -0.3164  0.0079 -0.0978
20710W        W36179   5.641   8.444   9.344  0.0166 -0.0708  0.2850
20711W        W36180   5.948   6.439  13.140  0.1230  0.1708 -0.0821
20712W        W36181  13.307  10.842  12.341 -0.1977  0.1461  0.0650
20713W        W36182   8.544  15.431  15.392  0.2723  0.0724 -0.1667
20714W        W36183  15.516   3.553   1.388 -0.2173  0.0480 -0.0888
20715W        W36184   9.564   5.332  11.115  0.1569 -0.0357 -0.1308
20716W        W36185  12.777   3.608   3.250  0.0864  0.0823 -0.2787
20717W        W36186   5.010  16.534  15.218 -0.6526 -0.0764  0.0024
20718W        W36187  16.627   1.483   1.795 -0.1578 -0.1918  0.1873
20719W        W36188   5.699  15.582   4.568 -0.0597 -0.1856  0.2983
20720W        W36189   3.291   9.482   3.490 -0.3256 -0.1581 -0.1594
20721W        W36190  16.654   5.056   6.014  0.0268  0.4052  0.1675
20722W        W36191  15.577  17.290   3.150  0.1544 -0.2057 -0.0945
20723W        W36192  12.063   4.225  11.087  0.1762  0.1298 -0.4032
20724W        W36193  12.618   1.332   5.092 -0.0040  0.0576  0.3464
20725W        W36194   5.962   7.142   9.720 -0.2481 -0.2309 -0.1682
20726W        W36195  16.885  10.213  10.891  0.0097 -0.0574  0.0543
20727W        W36196  10.296  13.074   2.879  0.1176  0.1237 -0.3178
20728W        W36197  17.688   5.902  11.853  0.4540 -0.2041 -0.0017
20729W        W36198   2.184   6.707   0.139 -0.3393 -0.0189 -0.1172
20730W        W36199  11.348   8.447  12.297  0.2411  0.2187  0.0728
20731W        W36200  17.132  16.211  14.156  0.2117  0.0570  0.0581
20732W        W36201  15.190   4.017   4.235  0.0123  0.0607 -0.0342
20733W        W36202   5.614   0.048  14.250  0.2682  0.1326  0.1992
20734W        W36203   1.211   6.043   5.974  0.2755  0.0570 -0.3027
20735W        W36204   4.724   8.487   3.800  0.0437  0.0484 -0.1752
20736W        W36205  11.622  11.787  14.053 -0.1978 -0.1007  0.1814
20737W        W36206   7.515  14.821  12.465 -0.2109  0.1559  0.1116
20738W        W36207   7.204   0.034   4.015  0.2175  0.8433 -0.0399
20739W        W36208   4.146  18.741   9.841 -0.0838  0.3777 -0.1122
20740W        W36209   9.988  12.027  11.759 -0.1544 -0.0254 -0.2284
20741W        W36210   0.353  10.671   3.923  0.2072  0.0277  0.2493
20742W        W36211  14.880  17.776  11.871 -0.0446 -0.1211  0.0953
20743W        W36212   4.824  12.842  14.217  0.1499  0.2401  0.1970
20744W        W36213   7.966   3.767   0.342 -0.1030  0.0260 -0.0578
20745W        W36214  16.862   3.273  13.133 -0.1245  0.1232  0.3223
20746W        W36215  17.796   6.852  15.428 -0.0503 -0.0814  0.0722
20747W        W36216   2.566  11.043  10.401  0.5576 -0.2302  0.0021
20748W        W36217   8.336   1.183   3.864 -0.0533 -0.0433 -0.2575
20749W        W36218  12.153   6.851   2.277 -0.1331 -0.2745  0.3399
20750W        W36219  12.899   1.894  15.044  0.2489  0.1152  0.1181
20751W        W36220  11.706   9.122   4.400  0.0054  0.4399 -0.0975
20752W        W36221  15.153  14.766   1.263  0.1845 -0.1683 -0.3259
20753W        W36222   5.901   8.764   1.808 -0.1236  0.0890 -0.0679
20754W        W36223  15.773   4.120   9.991  0.0492 -0.3860  0.0758
20755W        W36224  17.393   7.443  14.861 -0.1258  0.0022 -0.2277
20756W        W36225   6.152   6.725  11.810 -0.0983  0.0523  0.1141
20757W        W36226   7.415  17.793  13.929 -0.0357 -0.0983  0.0305
20758W        W36227   1.614   1.036   3.405 -0.1533 -0.1554 -0.0638
20759W        W36228  17.317  13.747  13.626  0.3501  0.0154  0.0390
20760W        W36229   0.700  18.756  14.953  0.2105 -0.2740  0.0981
20761W        W36230   9.085   3.218  12.961 -0.2003 -0.1938 -0.0390
20762W        W36231  10.299   7.013   3.079  0.3466 -0.0624  0.0523
20763W        W36232   1.866  11.205  13.258 -0.0207 -0.0729  0.2161
20764W        W36233  10.109  11.601  14.474  0.0402 -0.3606 -0.0879
20765W        W36234   1.056   7.080  14.406 -0.0833  0.2594 -0.0791
20766W        W36235   5.370   3.015   1.021  0.0386 -0.1300  0.0301
20767W        W36236  13.218  15.380  13.059 -0.0107 -0.1197 -0.0191
20768W        W36237  13.975  12.372  13.981  0.1497  0.0505 -0.0742
20769W        W36238   2.250  14.001   0.864 -0.0143  0.0065  0.0566
20770W        W36239  17.763  13.777  12.065  0.0947  0.4215 -0.0586
20771W        W36240  18.206  14.294  10.739 -0.1389  0.0536 -0.1008
20772W        W36241   8.395   8.734  13.757 -0.0370  0.3227 -0.0517
20773W        W36242   7.833  11.604  10.962 -0.1193 -0.2064  0.3871
20774W        W36243   2.389   5.106  15.655 -0.0867  0.1922 -0.2110
20775W        W36244   2.164   2.065   2.105  0.1409 -0.0490  0.0179
20776W        W36245   9.597   9.119  14.389 -0.0074  0.1953 -0.0832
20777W        W36246  16.885  13.457  13.668 -0.4171  0.0047  0.1313
20778W        W36247   3.140   9.926  13.663 -0.4260  0.1182  0.1837
20779W        W36248   2.423  14.560   4.966  0.1028  0.1717  0.0992
20780W        W36249   4.539  10.003   3.041  0.1260 -0.2789  0.1745
20781W        W36250  13.180  14.005   0.600  0.2035 -0.2323  0.1829
20782W        W36251   6.704   0.237   3.916 -0.0208  0.4702  0.3437
20783W        W36252  13.526   3.602  13.166 -0.1504 -0.0692 -0.0271
20784W        W36253   9.490   2.321  13.774 -0.3754  0.0298 -0.1919
20785W        W36254   5.800  10.840   5.626 -0.3253  0.0245  0.1633
20786W        W36255   8.947   3.563  12.159 -0.0219  0.1850 -0.1227
20787W        W36256  14.337   8.779   4.448  0.2893  0.1734  0.1039
20788W        W36257   8.236  16.670   2.437 -0.1822 -0.0042  0.1839
20789W        W36258   6.120   7.791  13.494 -0.2261 -0.2745 -0.0706
20790W        W36259  11.408  12.417   3.612 -0.4460  0.2330  0.3876
20791W        W36260  14.609  11.407  12.225 -0.0567  0.0150 -0.3690
20792W        W36261  18.704  12.168  11.948  0.0973  0.0820  0.0164
20793W        W36262   1.357  12.632   0.127 -0.1046  0.1836 -0.1056
20794W        W36263   5.801   3.972  12.714 -0.0346 -0.0431 -0.2050
20795W        W36264  14.970   2.084   4.559 -0.0725  0.0393  0.1058
20796W        W36265   6.158  10.798   3.584 -0.2446 -0.0112 -0.1108
20797W        W36266   2.551  15.154  14.598  0.1744  0.2697 -0.2785
20798W        W36267   9.419   8.085  14.920 -0.6417  0.0721  0.1194
20799W        W36268  15.042   9.610   3.063 -0.2475 -0.2295  0.0797
20800W        W36269   4.077  16.806  14.279 -0.0945  0.0244 -0.0673
20801W        W36270  18.329   8.328   2.582 -0.0298  0.0532  0.3119
20802W        W36271   5.335   7.999  12.414 -0.0635  0.3019  0.0519
20803W        W36272  15.972   6.273  12.746 -0.0899 -0.0143 -0.1650
20804W        W36273   6.416  14.826  11.447  0.1079 -0.0469 -0.0570
20805W        W36274  12.496   3.301   4.535 -0.2645 -0.0789  0.2181
20806W        W36275  18.175   9.829   2.527  0.0009  0.1597 -0.2209
20807W        W36276  15.889  14.141  15.102  0.1955  0.0980  0.3917
20808W        W36277   7.143  10.588   1.098 -0.1097  0.1633  0.3302
20809W        W36278   0.233   6.517   1.673 -0.2231 -0.3141  0.0344
20810W        W36279  10.532   4.467  14.669  0.1495 -0.2985  0.0369
20811W        W36280  15.435  12.710  11.089 -0.0779 -0.1158  0.1347
20812W        W36281  12.431   4.285   4.431 -0.2313  0.0624 -0.0854
20813W        W36282   5.340  13.562  14.765 -0.1488  0.1674  0.1086
20814W        W36283  10.188   5.689   4.441 -0.1855 -0.0588  0.1493
20815W        W36284  18.549  14.386  15.612  0.0696  0.0833 -0.0224
20816W        W36285   5.798   0.746  10.758 -0.1608  0.2894  0.1842
20817W        W36286   0.928   2.813  13.284  0.0219  0.2565 -0.1789
20818W        W36287  17.234   1.874  15.356  0.1286  0.0147 -0.1904
20819W        W36288   4.415  11.962  13.465 -0.3458 -0.3506  0.0674
20820W        W36289   6.576  13.965   2.864 -0.0723 -0.0097  0.1489
20821W        W36290  13.631  17.124  13.141 -0.2832  0.1315  0.2428
20822W        W36291  12.134   1.542  12.183 -0.0964 -0.2400 -0.2806
20823W        W36292   0.671  12.566  13.534  0.3015 -0.1637 -0.0454
20824W        W36293  18.757  10.321   3.924 -0.0985 -0.2944 -0.0098
20825W        W36294   8.699  11.310   4.145  0.5511  0.1741  0.0402
20826W        W36295  14.320  16.768  11.109 -0.3561  0.0464 -0.1592
20827W        W36296   5.350   9.513  10.853  0.1032  0.0298  0.0884
20828W        W36297   8.665   0.980   4.348  0.1974  0.1042  0.0827
20829W        W36298   2.742   9.419  13.394  0.1547 -0.1856 -0.0554
20830W        W36299   8.524   5.682  13.498  0.0464 -0.1594 -0.0982
20831W        W36300  14.149  17.198   4.534 -0.1185 -0.2876  0.4310
20832W        W36301   3.119  16.681   1.718  0.0688  0.1763  0.2549
20833W        W36302   7.608   7.009   3.341 -0.1825  0.2424 -0.0775
20834W        W36303  13.655  11.601  13.703 -0.1026  0.0890  0.1602
20835W        W36304   4.698  14.766  10.859  0.2594  0.0985  0.0966
20836W        W36305  10.807   9.077   4.975  0.1611  0.0317 -0.0812
20837W        W36306   0.287  14.047  14.419  0.1558  0.4210 -0.0407
20838W        W36307   7.327  13.577  15.004  0.2729 -0.1304 -0.0528
20839W        W36308   1.231  11.298   5.012 -0.3089  0.2890 -0.1712
20840W        W36309  18.152  12.778   6.093 -0.0654  0.0880  0.2988
20841W        W36310  15.731   0.410  11.134  0.0667 -0.3073  0.1480
20842W        W36311  12.069  12.615   0.207  0.0757  0.0344  0.2087
20843W        W36312  16.352   7.377  13.339  0.4087  0.0576  0.1529
20844W        W36313   3.593  16.966  10.932  0.1027  0.0792  0.2057
20845W        W36314  18.398   3.594   4.023 -0.0533 -0.2870  0.0861
20846W        W36315   7.113  14.664  12.874 -0.2449  0.0575  0.0343
20847W        W36316  11.341  17.214   4.362  0.0955 -0.2231  0.3330
20848W        W36317  12.540   7.980  13.598 -0.0067  0.2198 -0.0321
20849W        W36318   4.311  12.439   2.571 -0.2092  0.0090  0.1443
20850W        W36319   7.136   2.048  11.048 -0.2152  0.0168  0.0531
20851W        W36320  14.980   6.008  10.796 -0.0691  0.0362  0.0308
20852W        W36321   4.673  13.580   4.956  0.0156 -0.0797 -0.1495
20853W        W36322   0.377   5.928  12.970  0.2018 -0.0601 -0.0406
20854W        W36323   6.786   5.030   3.350 -0.3326  0.2152  0.0458
20855W        W36324   9.768   3.983  12.696  0.2020 -0.1231  0.0376
20856W        W36325  14.060   4.263   1.246 -0.1726  0.1560 -0.1118
20857W        W36326   3.869  16.091  15.013  0.3214  0.2202 -0.0300
20858W        W36327  10.830   2.651   4.476 -0.2045 -0.0979  0.0003
20859W        W36328   3.185   8.676   9.476  0.1186  0.0400 -0.2095
20860W        W36329  18.357  13.491  11.615  0.3040  0.0173 -0.1453
20861W        W36330   7.932   8.623  13.599 -0.1280  0.1564  0.0148
20862W        W36331   3.002  11.518   4.387  0.0799 -0.0218 -0.4027
20863W        W36332  16.833   1.713   2.170 -0.2110 -0.0937  0.1001
20864W        W36333   1.987  11.432   0.220 -0.2830  0.1586  0.0210
20865W        W36334   4.845  13.226  12.636 -0.1809  0.0456 -0.1428
20866W        W36335   1.776  13.196   5.220  0.1985  0.0786 -0.3748
20867W        W36336  11.701   2.254  12.260 -0.2314 -0.2780  0.3717
20868W        W36337   5.859   9.419   3.905  0.1631  0.0823  0.2669
20869W        W36338   5.889  10.236  11.527 -0.1811 -0.0516 -0.0618
20870W        W36339  15.713  12.299  14.382 -0.0223 -0.0410 -0.4961
20871W        W36340   0.929   2.754   1.096  0.1424 -0.1649 -0.1310
20872W        W36341  12.245   5.685  11.315 -0.0424 -0.0272 -0.0285
20873W        W36342   5.942  10.019   4.015  0.0230 -0.1598 -0.2678
20874W        W36343   0.846  10.742   4.375  0.2570  0.0891  0.3266
20875W        W36344   5.896  13.660  15.002  0.0653 -0.2136 -0.1113
20876W        W36345  17.876  14.633  14.261  0.1097 -0.0911  0.1040
20877W        W36346   2.828   4.768   4.513 -0.1010 -0.0484  0.3104
20878W        W36347  16.378   1.560   0.582  0.0496 -0.1087 -0.1177
20879W        W36348   8.541   6.559  12.921  0.0548 -0.0364  0.1858
20880W        W36349   5.795   1.213   3.970  0.1580  0.1011 -0.1646
20881W        W36350   8.551  12.352   4.864  0.1163 -0.2580  0.1581
20882W        W36351  13.185   4.038   2.324 -0.1225 -0.1050  0.0578
20883W        W36352   2.128   2.836   3.638 -0.2787 -0.0757  0.2905
20884W        W36353  12.961   6.700   3.919  0.2292  0.2166  0.0565
20885W        W36354  14.175  16.017  15.109  0.0482 -0.1087 -0.1360
20886W        W36355   5.319  16.340   3.044 -0.1575 -0.0723 -0.1985
20887W        W36356   5.483  13.156  15.668  0.1514 -0.3121  0.3084
20888W        W36357  15.077  18.268  15.490 -0.1973 -0.1783  0.3795
20889W        W36358  17.820  16.132  13.625 -0.1529 -0.3144 -0.4017
20890W        W36359   6.592   4.339   3.797  0.1237  0.5887  0.1082
20891W        W36360  18.137  12.840  13.297  0.2259 -0.0177 -0.1079
20892W        W36361   7.055   0.258  14.585  0.1941  0.1493  0.0077
20893W        W36362  16.042  11.048   2.685  0.0109  0.0454  0.1309
20894W        W36363   0.174  14.087   4.368  0.2539 -0.1636 -0.0410
20895W        W36364  18.444   9.379  10.693 -0.3253 -0.4378 -0.1037
20896W        W36365  16.804  15.993  11.211 -0.1569  0.0837 -0.0643
20897W        W36366  14.371   3.008   2.503 -0.2262  0.2643 -0.1444
20898W        W36367  13.810  16.374   9.933  0.1111 -0.2020 -0.1961
20899W        W36368   0.790  10.756   0.945 -0.4279  0.2629  0.1956
20900W        W36369   8.124   4.601  14.064  0.0780 -0.1170  0.0521
20901W        W36370   5.738   3.076  14.487 -0.1090 -0.1625  0.1312
20902W        W36371  16.608  14.323  13.961  0.2121  0.0505 -0.1485
20903W        W36372   4.920   1.753   2.595  0.1949  0.1731 -0.0553
20904W        W36373  11.850   1.811   1.756 -0.0684 -0.1764  0.1760
20905W        W36374  16.018   0.254  11.620  0.2555  0.1904  0.0587
20906W        W36375  16.466   7.445   0.138 -0.0144  0.0253 -0.2137
20907W        W36376   0.347   8.797   4.190  0.0918 -0.2123 -0.0345
20908W        W36377  14.532   8.694   0.307  0.1715 -0.0921  0.1328
20909W        W36378  12.987   4.293   1.885 -0.0543  0.1608 -0.1261
20910W        W36379   0.007   0.174  11.035 -0.0442 -0.0425  0.1555
20911W        W36380  10.898  16.833  14.095 -0.1614 -0.1211  0.0718
20912W        W36381   6.759   5.167  13.275 -0.0891  0.0649 -0.0400
20913W        W36382  14.060   7.527  15.264 -0.1630  0.2455 -0.1592
20914W        W36383  14.869  17.044   0.607  0.0734  0.0909 -0.0020
20915W        W36384  15.340  10.874  12.196  0.0665 -0.1291 -0.0499
20916W        W36385   6.344  10.470  11.747  0.5053 -0.2208 -0.1611
20917W        W36386  14.864  15.097   1.930 -0.0497 -0.1763 -0.1270
20918W        W36387   6.207   9.084  15.424  0.2052 -0.1959  0.0953
20919W        W36388   0.622  12.173  12.686  0.2275  0.1825 -0.2915
20920W        W36389  12.563   6.187   1.767  0.0146 -0.1743 -0.1800
20921W        W36390   3.129   2.801  12.569 -0.0765 -0.0772  0.2333
20922W        W36391   6.675   1.674   3.483 -0.0724 -0.0200  0.0189
20923W        W36392   5.252  16.615  14.762  0.2107  0.2346  0.1775
20924W        W36393   7.532   5.208   2.892 -0.3067 -0.0900  0.0026
20925W        W36394   6.933  15.805  13.200 -0.0638  0.1174 -0.0387
20926W        W36395   7.171  10.045   1.983  0.0266 -0.3785  0.3886
20927W        W36396   8.607   2.911  10.273 -0.0746  0.1272  0.0209
20928W        W36397  15.018   7.721   2.990  0.2375  0.3991  0.1418
20929W        W36398  14.841  15.443  11.371 -0.3431 -0.1318  0.1694
20930W        W36399  17.571   9.865  11.992 -0.0266  0.0111  0.1957
20931W        W36400  14.940  11.891   0.388  0.1000  0.0086  0.0720
20932W        W36401   9.006   8.072   2.201  0.1245 -0.0742 -0.2698
20933W        W36402   6.193  14.127  13.555  0.1751  0.2329 -0.5813
20934W        W36403   2.859   7.185  13.933 -0.3335 -0.1266 -0.0049
20935W        W36404  12.790   4.872   4.016 -0.1107 -0.0469 -0.1335
20936W        W36405  17.975   1.873   1.012 -0.2214 -0.0978  0.2253
20937W        W36406   8.228   4.456   2.692  0.3197  0.1005 -0.2148
20938W        W36407   1.834  10.941   0.659 -0.3531 -0.0928  0.1260
20939W        W36408   7.118   4.211  13.084 -0.1336 -0.1722 -0.2322
20940W        W36409  11.216   0.460   1.822  0.0045 -0.2145 -0.1368
20941W        W36410  11.065  13.511  15.265  0.1418  0.3867  0.2060
20942W        W36411   3.901   8.628   4.949  0.1085 -0.1322 -0.1498
20943W        W36412   2.071  13.896   4.014 -0.0496  0.0807 -0.1083
20944W        W36413  17.187  14.726   1.502 -0.0026 -0.0517  0.3208
20945W        W36414   6.483  17.602   2.130  0.0213  0.0894  0.2496
20946W        W36415   4.607   9.228   0.978  0.0575 -0.0332 -0.0798
20947W        W36416  10.738  12.488  13.364  0.2100  0.0923  0.1420
20948W        W36417   7.676   1.720  13.372 -0.1422  0.1128  0.2983
20949W        W36418   2.394   5.024   4.801 -0.0846 -0.1195  0.2119
20950W        W36419   4.779  14.691   4.204  0.1493 -0.1024  0.2210
20951W        W36420  12.856   9.921   3.720 -0.0956  0.4818 -0.0375
20952W        W36421  13.221  14.467  15.271 -0.1917 -0.2673  0.1424
20953W        W36422  12.049   6.263   0.349 -0.1159 -0.0140  0.5028
20954W        W36423   6.923  12.623   2.802  0.1764 -0.0961 -0.0042
20955W        W36424   1.499  13.802  14.059  0.0169  0.0826  0.2356
20956W        W36425  17.095  12.655   2.646 -0.3260  0.3876  0.4522
20957W        W36426  16.441  11.609  13.661 -0.1573  0.2985  0.1265
20958W        W36427   0.337   1.680  12.120  0.0056  0.0278 -0.3306
20959W        W36428   0.490   5.928   2.313 -0.1268  0.0620 -0.0044
20960W        W36429  14.368  13.911  13.610 -0.0080 -0.1184  0.1296
20961W        W36430  15.038  17.421   2.971  0.0121 -0.2273  0.1008
20962W        W36431  11.269   7.232   3.154  0.3481  0.2461 -0.2084
20963W        W36432   7.332  15.841  14.770 -0.1217 -0.3016 -0.1245
20964W        W36433   3.229   5.551   0.128 -0.2066  0.0717 -0.2767
20965W        W36434   5.663  18.120   5.051 -0.1259  0.2254 -0.3844
20966W        W36435   3.080   5.548  14.852  0.1262  0.0216  0.1939
20967W        W36436   0.030  10.324   2.836 -0.0150 -0.1634  0.1242
20968W        W36437  10.269  11.638  15.127  0.2621 -0.0897  0.1893
20969W        W36438   7.299  11.394   2.515 -0.0714 -0.0490  0.0393
20970W        W36439   7.257  11.526   0.936 -0.2790 -0.1044 -0.0225
20971W        W36440   2.344  10.416   5.041 -0.0725  0.1026  0.1409
20972W        W36441  18.271   9.696  11.639  0.1380 -0.2413  0.2607
20973W        W36442  14.115   9.115   2.951 -0.0302 -0.0047 -0.0092
20974W        W36443  11.157  12.095  13.428  0.1082  0.0330  0.1975
20975W        W36444  16.093   0.743   3.518  0.2641  0.0034  0.0404
20976W        W36445  12.232  16.199   4.700 -0.0978  0.0336 -0.1234
20977W        W36446   2.872  16.363  12.562  0.2373 -0.0516 -0.2554
20978W        W36447  10.425   3.790   0.915  0.0310  0.0361 -0.0311
20979W        W36448  13.085   2.920  10.941 -0.0922 -0.0029 -0.1596
20980W        W36449   6.217   7.373  14.777 -0.0585 -0.0660 -0.0262
20981W        W36450   4.194   8.352   1.515 -0.1832 -0.0192  0.0944
20982W        W36451  17.349   8.827  14.873  0.1211 -0.1477  0.0717
20983W        W36452  18.752   0.665   0.455 -0.0252  0.1162  0.0851
20984W        W36453  13.028  14.529   3.377 -0.1009 -0.1792  0.0176
20985W        W36454   8.206   6.339  14.239 -0.2263  0.1856  0.0278
20986W        W36455  18.101   1.378  13.555  0.2663  0.0579 -0.2076
20987W        W36456  13.561   4.714   3.880 -0.0213 -0.2021  0.0325
20988W        W36457   6.918  10.370  12.779  0.2494 -0.0081 -0.1874
20989W        W36458   2.234   1.106   3.840  0.0226  0.0820  0.0572
20990W        W36459  13.089  18.697  10.772  0.3295 -0.1758  0.3298
20991W        W36460  11.543   5.655  13.630  0.0009  0.0340 -0.0195
20992W        W36461   9.798  17.526   4.352  0.3234  0.0941  0.0364
20993W        W36462   6.130  12.860   3.391  0.0412  0.1764 -0.0652
20994W        W36463   8.081  13.746   4.497 -0.2750  0.0089  0.2888
20995W        W36464   7.823   1.838   4.267  0.1937 -0.1129  0.2567
20996W        W36465   8.462  13.994  11.936 -0.1540  0.4648 -0.1487
20997W        W36466  11.956  15.173   0.118  0.0477 -0.0048  0.1629
20998W        W36467   5.033   7.739   1.334  0.1659 -0.0836  0.1356
20999W        W36468   6.718  18.029   2.635 -0.1665 -0.0566 -0.2327
21000W        W36469   3.485  12.242  15.447 -0.1325  0.1651 -0.0402
21001W        W36470  15.190  18.335   2.998  0.1755 -0.0510  0.3891
21002W        W36471  15.907  15.731   2.858  0.1402  0.1937 -0.1705
21003W        W36472   2.608   5.369   1.684  0.1832  0.0719 -0.1041
21004W        W36473   7.693   4.174   4.591 -0.1065 -0.2194 -0.1272
21005W        W36474  18.057   7.254   3.487 -0.1147 -0.3062 -0.4511
21006W        W36475  12.992  11.397  11.569  0.1539  0.0075  0.0374
21007W        W36476   1.525  16.041  12.784  0.1035 -0.1551 -0.0768
21008W        W36477  17.293  15.926  11.597 -0.2728 -0.2889 -0.0639
21009W        W36478   8.813  15.870  15.474 -0.2780  0.1492 -0.0138
21010W        W36479  16.651  11.050  11.795  0.1350 -0.0640 -0.1137
21011W        W36480   1.320   2.498  14.521 -0.2138  0.0170 -0.2786
21012W        W36481   8.744   5.571  12.936  0.1932 -0.1695  0.0331
21013W        W36482  15.310   7.670   1.618 -0.0662  0.1489 -0.1991
21014W        W36483   0.847  11.537  10.544  0.0585  0.1640 -0.3275
21015W        W36484  18.353  12.377  14.902 -0.0693 -0.1476  0.1670
21016W        W36485  16.080  16.783   1.053  0.0187 -0.1311  0.0486
21017W        W36486   4.935  14.717   1.120 -0.2080  0.0704  0.0327
21018W        W36487  13.448   8.902  12.019 -0.3045  0.1625 -0.1255
21019W        W36488   8.290  14.181   1.920 -0.0500  0.3492  0.0451
21020W        W36489  17.271   4.687  12.995 -0.1515 -0.2502 -0.2791
21021W        W36490   1.665  13.463   3.496  0.1745  0.0267  0.4270
21022W        W36491  11.510   8.866  13.871  0.0844 -0.0686 -0.4411
21023W        W36492  15.168  18.343  12.684 -0.3606 -0.2439 -0.2361
21024W        W36493   5.202  13.138  10.638  0.0003 -0.1353 -0.2365
21025W        W36494   0.611  11.255  13.332 -0.0761  0.1410  0.1497
21026W        W36495  13.920   0.473   5.190 -0.2494  0.0228  0.2068
21027W        W36496   3.339  14.557  14.458 -0.0341  0.0747  0.0224
21028W        W36497  18.149  11.009   5.447 -0.1326  0.3344  0.1846
21029W        W36498   3.859   3.939  10.246  0.0473  0.0512 -0.0552
21030W        W36499   7.623   1.326  12.226  0.0930  0.0497 -0.2651
21031W        W36500   7.264   0.669   0.891  0.2641 -0.3680 -0.1127
21032W        W36501   4.427  17.925   1.351  0.3029 -0.0236 -0.3914
21033W        W36502  12.239  15.714  13.838  0.1323  0.1133 -0.0532
21034W        W36503  10.037  18.459   4.598  0.0122 -0.0977 -0.1749
21035W        W36504  16.245  14.287  11.719  0.1094  0.1292 -0.1006
21036W        W36505  15.228   9.384   2.675 -0.1009  0.1280 -0.0493
21037W        W36506   5.598   5.642   2.834  0.0832  0.1070 -0.2640
21038W        W36507  17.945  14.776  13.303 -0.1170 -0.2536  0.1730
21039W        W36508  13.646   4.760  12.092  0.2426 -0.1397  0.0319
21040W        W36509  14.971   2.939   3.613  0.2058  0.2368 -0.0892
21041W        W36510   1.362   9.550  12.272  0.2432 -0.0071  0.2161
21042W        W36511  15.456   3.416  12.379 -0.1879 -0.1384 -0.0847
21043W        W36512  12.123   3.212  13.866 -0.1169  0.0521  0.0881
21044W        W36513   9.135   9.025  10.681 -0.0480  0.1141  0.0901
21045W        W36514  12.700   2.187  12.021  0.0767 -0.7349 -0.1460
21046W        W36515   0.391  14.121   2.506  0.0137 -0.1397 -0.2263
21047W        W36516  12.795   0.000   2.090 -0.0698 -0.3481 -0.0504
21048W        W36517  16.062   4.286  10.874 -0.0948 -0.1635 -0.0931
21049W        W36518  18.207  16.832  14.851  0.1705  0.0097 -0.2006
21050W        W36519   5.840   0.785  13.269 -0.0197  0.0491  0.1470
21051W        W36520   1.258  11.211  10.520 -0.1221 -0.3924  0.1335
21052W        W36521  18.226   3.368   5.324 -0.0881 -0.3203  0.2646
21053W        W36522   9.965  14.086  14.782 -0.0586  0.2111 -0.1123
21054W        W36523  14.498   9.900  10.673 -0.0867  0.0099  0.1604
21055W        W36524  10.673   4.937  14.739  0.1343  0.0802 -0.0938
21056W        W36525   5.655   7.715  12.169 -0.2923  0.1113  0.1623
21057W        W36526   8.474  13.325  14.345  0.0166  0.2105  0.0861
21058W        W36527  17.482   9.448   2.122 -0.2568  0.0493  0.0867
21059W        W36528  15.410  10.189   0.865 -0.2098 -0.0305 -0.0615
21060W        W36529   7.602   1.434   1.852 -0.0116  0.1867 -0.0351
21061W        W36530  17.540   5.249  12.315  0.0721 -0.0875 -0.2476
21062W        W36531   2.434   5.651   2.259  0.0548 -0.0699  0.1411
21063W        W36532  10.684  17.044  11.313 -0.1065 -0.1289  0.0006
21064W        W36533  11.709  16.469  10.540 -0.0116 -0.3569 -0.0468
21065W        W36534  14.439  11.891  11.768  0.2443  0.1304 -0.2152
21066W        W36535  17.788  10.612  12.742  0.0487  0.0364  0.2999
21067W        W36536   5.489  17.599  12.995 -0.2351  0.0430  0.1078
21068W        W36537   8.226   1.677   3.909 -0.1275 -0.0031  0.0321
21069W        W36538   6.850   8.405   4.507 -0.1518  0.3774  0.0876
21070W        W36539  13.378  11.152   1.738  0.0201 -0.1013  0.1741
21071W        W36540   2.853  14.823   0.769  0.2848  0.1463  0.0477
21072W        W36541   6.467  10.991   3.997  0.0450  0.2121  0.4378
21073W        W36542   2.922  14.253  14.392 -0.2454  0.2850 -0.1483
21074W        W36543  13.234   6.226  10.932 -0.0149 -0.1022  0.3110
21075W        W36544   4.178   9.619  10.706 -0.1931 -0.1571  0.0514
21076W        W36545   8.996   9.467   4.743 -0.0648  0.0735  0.0415
21077W        W36546   6.555  16.033  10.850  0.0096  0.0156 -0.0690
21078W        W36547  17.568  17.740   3.064 -0.1001 -0.1753 -0.3667
21079W        W36548  11.116   0.505  13.962  0.0739 -0.1259 -0.0110
21080W        W36549  10.288  18.622   1.338  0.1969  0.0094 -0.3420
21081W        W36550   3.312   7.170  13.440 -0.1634  0.4481  0.1883
21082W        W36551  12.509   3.243  13.409 -0.1307 -0.1237  0.3354
21083W        W36552   7.835  15.482   4.380  0.1079 -0.0399 -0.2823
21084W        W36553   6.077   4.025   4.519 -0.1743 -0.0214  0.0718
21085W        W36554   2.447  15.611  12.501 -0.0477  0.0966  0.1161
21086W        W36555  17.287  12.266  12.700  0.5009  0.0298  0.4797
21087W        W36556  16.647   6.162  11.559  0.0793 -0.2199  0.1297
21088W        W36557   3.704   9.152  15.581  0.1600  0.2111  0.3569
21089W        W36558  14.794   1.227   1.707  0.0451  0.4721 -0.0578
21090W        W36559  13.397   8.702   0.413  0.0320  0.1152  0.0374
21091W        W36560   6.681  16.958   4.601  0.3868  0.0770 -0.0104
21092W        W36561  17.274  11.177   3.038 -0.0873  0.0819  0.1292
21093W        W36562   0.672  10.921   0.507  0.1947  0.1147 -0.0395
21094W        W36563   7.147  17.544  14.299  0.1027 -0.1151 -0.0653
21095W        W36564   2.249  14.041  13.377  0.0516  0.2238  0.0490
21096W        W36565  14.977   1.840  15.389 -0.0072  0.3072  0.0389
21097W        W36566   6.045   9.337   2.817 -0.1135 -0.3811 -0.1139
21098W        W36567  11.376  17.428  14.541 -0.1216  0.1531 -0.0445
21099W        W36568   3.285  18.302  10.468  0.2443  0.0962 -0.1152
21100W        W36569   7.810   1.753  15.651  0.0017 -0.0098 -0.1293
21101W        W36570   5.026   8.265  14.446  0.0116 -0.3355 -0.1733
21102W        W36571   2.991   3.924  13.728  0.2239  0.2217  0.0472
21103W        W36572   8.441  18.049   5.761 -0.0667 -0.3726  0.3568
21104W        W36573   6.318  17.363  11.313 -0.1983  0.1130  0.3715
21105W        W36574   8.643  11.320   3.632 -0.3706  0.0071  0.2274
21106W        W36575  15.386  10.295  13.731 -0.0200  0.0272 -0.2334
21107W        W36576  13.231   9.638   5.241  0.2448  0.2200 -0.4420
21108W        W36577  12.561  12.899  14.913  0.0720 -0.4376 -0.4778
21109W        W36578   2.181   4.918  15.269 -0.2535 -0.0988  0.3155
21110W        W36579  12.307  10.947   0.771  0.0334  0.2365 -0.0774
21111W        W36580   4.089  14.055   1.867 -0.4014  0.1266 -0.2575
21112W        W36581   7.597  14.113   4.564  0.3124 -0.1403 -0.0620
21113W        W36582   8.090   0.667   2.739  0.1312  0.1869 -0.1688
21114W        W36583   1.133  16.188   2.901 -0.4354 -0.2386 -0.3422
21115W        W36584   4.148   4.490   2.219 -0.2123  0.1906 -0.0557
21116W        W36585  10.867  15.029   4.590 -0.0997  0.0537 -0.0688
21117W        W36586   9.564  17.065  11.847 -0.0749 -0.1549  0.2305
21118W        W36587  11.115  14.711   3.550 -0.0986  0.1192 -0.0688
21119W        W36588  11.651  16.899  13.443 -0.2847  0.2486  0.1606
21120W        W36589  11.823   9.846   4.449 -0.2709 -0.1395  0.1075
21121W        W36590   7.780  15.618   1.446  0.1428  0.0479 -0.0476
21122W        W36591  17.119  12.766  12.767 -0.1076  0.0083 -0.0211
21123W        W36592  16.513  10.557  14.433 -0.2796 -0.0287 -0.0609
21124W        W36593  11.482  12.774   0.868 -0.2572  0.0216  0.0646
21125W        W36594   2.774   2.262   4.393  0.1452  0.0325 -0.1954
21126W        W36595   3.610  13.204   4.517 -0.1253 -0.0935 -0.0827
21127W        W36596   1.840   9.440   1.600  0.0365 -0.1790 -0.3073
21128W        W36597   1.421   6.214  15.434  0.5763 -0.1262  0.2848
21129W        W36598  17.278   0.480  10.989  0.0101  0.0728 -0.0113
21130W        W36599  16.843   5.943   1.329  0.2499  0.1638 -0.2800
21131W        W36600   7.392   0.071  10.359  0.2221 -0.0406  0.1971
21132W        W36601   9.516  18.272   3.275  0.0926 -0.1515  0.1792
21133W        W36602  16.540   3.840   1.204  0.0620  0.0608 -0.0378
21134W        W36603  17.153  13.516   2.437 -0.1368 -0.0826  0.2398
21135W        W36604  13.970  16.550   0.174  0.0952 -0.2488 -0.0903
21136W        W36605  10.666  17.042   0.707  0.1451 -0.1589 -0.2218
21137W        W36606  17.350   2.260   5.099  0.1174  0.2411 -0.0713
21138W        W36607   2.790  16.402   5.035 -0.1556 -0.1414  0.2542
21139W        W36608  10.056   6.051  12.633 -0.0937 -0.0266 -0.0471
21140W        W36609  13.091   1.855  14.332  0.0829 -0.1562  0.1227
21141W        W36610  13.957   5.965   0.741  0.0917 -0.0083 -0.0922
21142W        W36611  13.532   9.828   1.861 -0.0975  0.0591  0.2395
21143W        W36612   9.632   1.916  12.832 -0.0663 -0.1754 -0.1525
21144W        W36613  14.078  14.883   5.218  0.1977 -0.0114  0.0238
21145W        W36614   1.230   9.429   1.465 -0.3458 -0.1273 -0.0718
21146W        W36615  13.664  15.853  14.086  0.0244  0.1640 -0.0759
21147W        W36616  17.276  17.670  13.533  0.1446  0.0470  0.1849
21148W        W36617  11.364   2.076  10.536 -0.1132 -0.1321  0.1318
21149W        W36618   6.729   9.671  15.462 -0.2907  0.0992  0.2091
21150W        W36619  16.793   8.590   2.947  0.0748  0.0896  0.0892
21151W        W36620   8.886   9.975  13.124  0.2450 -0.4099  0.0366
21152W        W36621  14.881   7.602  13.566  0.2253  0.4217 -0.1017
21153W        W36622   4.429   5.152   4.215  0.3163  0.1882  0.0495
21154W        W36623  15.308  16.541  12.599  0.1150 -0.0714  0.1247
21155W        W36624  12.866   4.328  14.836  0.3744 -0.1740 -0.3119
21156W        W36625   6.098  16.091  12.234  0.1483 -0.1719 -0.1174
21157W        W36626  16.774  10.076  14.373 -0.5577 -0.2075 -0.1491
21158W        W36627   0.283  18.071   0.792  0.2027  0.2433  0.0564
21159W        W36628   6.978   6.034   2.015  0.3519  0.0669  0.0963
21160W        W36629  10.069   3.498  11.876 -0.0918  0.0008 -0.0684
21161W        W36630   8.163   3.109  13.005 -0.0208 -0.2197  0.0808
21162W        W36631  10.846   0.241  14.657 -0.0201 -0.2078 -0.0487
21163W        W36632  15.659  15.750  12.304  0.2213  0.2775  0.3911
21164W        W36633  17.175   5.072   2.425  0.2615 -0.0074 -0.3138
21165W        W36634  17.885  14.505   4.369  0.0471 -0.2984  0.0349
21166W        W36635  10.945   3.948  13.237 -0.0348  0.2763 -0.3860
21167W        W36636  18.638  11.937   5.827 -0.3744 -0.1106 -0.0061
21168W        W36637   6.289  11.656  14.599  0.1587  0.0689 -0.2108
21169W        W36638   8.934   1.375   3.515 -0.2288 -0.1425  0.0581
21170W        W36639  17.663   1.251   2.401 -0.0307 -0.0979 -0.0530
21171W        W36640   6.713   8.002   2.460 -0.1364  0.3182 -0.0458
21172W        W36641   6.906  14.025  12.519  0.0078 -0.1592  0.2081
21173W        W36642  10.791  13.849  15.479  0.1070 -0.2382 -0.0664
21174W        W36643  13.637  13.705  14.701 -0.1811  0.3974 -0.0699
21175W        W36644  18.271  14.613   0.341 -0.3070 -0.1780 -0.1147
21176W        W36645   1.493  13.849  12.682  0.0175  0.0770  0.2612
21177W        W36646  18.426  11.645  13.714  0.1180  0.1140 -0.2688
21178W        W36647  13.885  11.779   5.541 -0.0486 -0.0786 -0.1221
21179W        W36648   7.760  11.549   1.735  0.0610  0.3268 -0.1710
21180W        W36649  10.339   1.163   2.536  0.0935 -0.3870  0.2929
21181W        W36650   6.537  12.784   2.491 -0.0321 -0.1525  0.1662
21182W        W36651   3.420  15.512  12.645  0.2513 -0.0033 -0.1277
21183W        W36652   1.323  14.691   5.673 -0.2731  0.3361 -0.1201
21184W        W36653  13.924  11.267   2.562  0.0808  0.3205  0.0571
21185W        W36654   1.489  10.611   0.617  0.2604 -0.1659  0.0597
21186W        W36655  12.300  12.889  13.672 -0.0108  0.0956 -0.0165
21187W        W36656   2.464  15.104  13.406  0.1618  0.0391  0.0553
21188W        W36657   7.147   6.217  14.867 -0.2182  0.1234  0.1146
21189W        W36658   6.192  11.167  12.760  0.1528 -0.0058  0.0798
21190W        W36659   2.527   6.974  14.381  0.0790  0.1844 -0.2481
21191W        W36660  16.196   7.219  14.302  0.2677  0.1778  0.0033
21192W        W36661  14.775  10.747   2.486  0.0250 -0.0543 -0.2541
21193W        W36662  15.978   9.602   0.529  0.2809  0.0808  0.2726
21194W        W36663   1.805   6.362  10.698 -0.2511  0.4511 -0.0646
21195W        W36664   2.602   9.217   2.866  0.2955  0.0162 -0.1006
21196W        W36665   9.269   0.494   1.681 -0.2091  0.0139 -0.0802
21197W        W36666  15.710   3.470  10.244 -0.0431  0.2216  0.1308
21198W        W36667   2.195   8.270   1.175  0.1905 -0.0989 -0.1115
21199W        W36668  10.855   1.381  15.496  0.1222  0.1433 -0.2044
21200W        W36669  14.083   3.886  12.067  0.0353 -0.0900  0.2654
21201W        W36670  18.475   6.952  12.700  0.0062 -0.1666  0.0150
21202W        W36671  18.405   6.533   0.029 -0.1709 -0.3583 -0.3209
21203W        W36672   4.190  16.454  12.032  0.0092  0.4385  0.2170
21204W        W36673  10.307   9.416   5.008 -0.2152 -0.1196  0.0806
21205W        W36674   9.593   8.103   2.513 -0.3203  0.0559  0.2735
21206W        W36675   3.419   8.587   4.678  0.3126 -0.0894 -0.1812
21207W        W36676   3.132  12.581   2.293 -0.1834  0.0325  0.1471
21208W        W36677  11.119   2.238   5.173  0.1380  0.0991 -0.2718
21209W        W36678   6.974  15.358  12.970 -0.1734  0.1211 -0.0662
21210W        W36679  16.079  14.629   0.409 -0.0804 -0.1192 -0.0037
21211W        W36680   3.643  16.283  12.171 -0.2782 -0.1335  0.0544
21212W        W36681  17.319   1.226  13.572 -0.1430  0.2077 -0.5568
21213W        W36682  18.258  12.499   2.535  0.0604 -0.2429 -0.1531
21214W        W36683  15.816   7.425  15.169  0.1430  0.2673  0.0701
21215W        W36684  10.386  10.935   4.596  0.2174  0.0419 -0.0737
21216W        W36685   1.051  15.219  15.153 -0.0258  0.3694 -0.1307
21217W        W36686   9.091  10.930   2.536  0.1457  0.5532 -0.0827
21218W        W36687  11.806   8.460  12.030 -0.1218  0.4236 -0.1046
21219W        W36688   3.161   7.707  13.379  0.0106  0.5378  0.3260
21220W        W36689  18.398  12.442   3.033  0.0002 -0.1296  0.1119
21221W        W36690   2.317   9.844   2.934 -0.1418 -0.0333 -0.3449
21222W        W36691   7.339  13.205  11.906 -0.0163  0.2619  0.1800
21223W        W36692  15.312   3.073  15.539  0.1688 -0.1874  0.2298
21224W        W36693   1.013   8.890  13.428 -0.2006 -0.0485 -0.0755
21225W        W36694  10.428   3.615   0.021  0.0787  0.3185 -0.1903
21226W        W36695  15.225  11.771   2.977 -0.0109 -0.0191  0.0657
21227W        W36696  11.758  10.333  12.750 -0.2093  0.0240 -0.0173
21228W        W36697  15.308   8.775   4.446 -0.2550  0.4896  0.0532
21229W        W36698   8.891   2.517  11.617  0.0727 -0.0973  0.0740
21230W        W36699  12.278  14.873  15.517 -0.2747 -0.0326 -0.1596
21231W        W36700   9.544  17.099   5.673  0.0319  0.2295 -0.1109
21232W        W36701  12.262  12.397  12.088 -0.1216  0.1210 -0.1156
21233W        W36702   6.864   8.769   5.084 -0.0717 -0.0065  0.1995
21234W        W36703   8.500   6.675   0.626 -0.0616  0.0939 -0.0714
21235W        W36704  18.647   2.787  11.651  0.0037  0.2846  0.2744
21236W        W36705  15.493  17.647  12.183 -0.2556  0.0363 -0.1563
21237W        W36706  10.554   9.440   4.045 -0.0620  0.0590 -0.1767
21238W        W36707  12.953  13.798   1.085 -0.1981 -0.1047 -0.0404
21239W        W36708  14.297   4.154  15.614  0.0274  0.0542 -0.1269
21240W        W36709   6.013  14.147   3.926 -0.0479  0.0349 -0.0275
21241W        W36710  14.943  15.422  14.764  0.0586 -0.0710  0.1083
21242W        W36711   0.918  12.968   1.450 -0.0418  0.0668 -0.2677
21243W        W36712   5.624   7.977  11.364 -0.3297  0.0044 -0.0751
21244W        W36713  12.933  14.277   5.215  0.2125 -0.1068  0.2038
21245W        W36714   2.133   7.488   4.280  0.2060 -0.2844 -0.1128
21246W        W36715  10.638  12.594   3.071 -0.2165 -0.3126  0.0417
21247W        W36716   2.834   6.584  15.021  0.1836 -0.0514  0.1793
21248W        W36717  16.301   4.641   2.604 -0.1819  0.2189 -0.0067
21249W        W36718   3.105  11.055   2.296 -0.1334 -0.2932 -0.0236
21250W        W36719   8.229   1.374  13.528  0.1240 -0.3022  0.0700
21251W        W36720   1.193   7.090  13.451  0.2856 -0.0148 -0.1744
21252W        W36721   9.003   1.810   1.673 -0.2872  0.0798 -0.1472
21253W        W36722   9.674  15.868   1.559 -0.0811 -0.4091  0.0871
21254W        W36723  15.669   9.512   0.106 -0.0081  0.0229 -0.1632
21255W        W36724   1.866  18.299   4.187  0.1594 -0.0248 -0.1416
21256W        W36725  15.997   1.520  12.217  0.1287  0.0919 -0.0674
21257W        W36726  12.379  14.891  13.188 -0.2228  0.0968 -0.0681
21258W        W36727  12.480   8.822   0.727 -0.0522 -0.2523 -0.0530
21259W        W36728   4.143   4.364   2.732 -0.1899  0.4029 -0.1288
21260W        W36729  16.058  17.696  15.199 -0.3112 -0.1854 -0.0408
21261W        W36730   0.215  14.487  15.399  0.0702  0.0377  0.1722
21262W        W36731  14.608  11.891  15.582  0.0254  0.1137 -0.1246
21263W        W36732  10.287  11.521   0.358  0.1857 -0.1307 -0.3590
21264W        W36733  16.124   5.283  10.879 -0.2173 -0.4699  0.0223
21265W        W36734   3.153  13.621   0.639  0.0209  0.1155 -0.0010
21266W        W36735   1.017  13.514   4.288  0.3846 -0.1943 -0.0794
21267W        W36736   3.180   2.266  14.754  0.4047 -0.0143  0.1230
21268W        W36737   7.657  11.783  10.513  0.2735 -0.1268  0.0282
21269W        W36738  11.887   5.600   2.983  0.2274 -0.0505  0.2309
21270W        W36739  16.063  13.898   3.202 -0.0623 -0.2727 -0.0473
21271W        W36740  11.374   6.081   4.509 -0.0330 -0.0095  0.0249
21272W        W36741  14.838   0.471   2.612  0.2064  0.0644  0.2149
21273W        W36742   3.502  11.134   3.406  0.3171 -0.0472 -0.0595
21274W        W36743   1.497  14.278   1.974 -0.1446  0.1981 -0.2477
21275W        W36744   4.229   3.736   5.852 -0.1517  0.0721 -0.1466
21276W        W36745  18.767   1.449   4.315  0.3104  0.1648 -0.0234
21277W        W36746   1.795   6.182  13.225  0.0033  0.0210 -0.3145
21278W        W36747  14.207   9.568  14.794 -0.0493 -0.2144  0.2076
21279W        W36748  16.592   8.637  15.184  0.1941 -0.0310 -0.0623
21280W        W36749  13.262   4.258   2.845 -0.2886  0.3610 -0.2477
21281W        W36750   9.311   0.722  12.294 -0.2757  0.1335  0.0763
21282W        W36751   1.754   2.981   3.321  0.0713  0.2998 -0.3118
21283W        W36752  14.800  11.972   3.897 -0.1854  0.0340  0.0898
21284W        W36753   4.223   8.633   0.303 -0.0353 -0.3536 -0.0478
21285W        W36754   2.523  16.368   0.721 -0.2480  0.0096  0.0551
21286W        W36755   3.978   9.882  11.983  0.1781 -0.0359  0.1315
21287W        W36756  17.931   1.788  15.625  0.2473  0.1779 -0.1416
21288W        W36757   9.995  15.863  10.617 -0.2620 -0.2490 -0.0544
21289W        W36758   0.419  10.256  14.726 -0.5148  0.3214 -0.0835
21290W        W36759  15.640   4.417   5.722 -0.3327  0.1640 -0.1448
21291W        W36760   3.942  15.479  12.831  0.0246  0.3687 -0.1063
21292W        W36761  14.210  17.644  11.136 -0.0225  0.0935 -0.1360
21293W        W36762   8.371  12.450  12.304 -0.1575  0.1664 -0.2214
21294W        W36763   5.333   4.359   5.673 -0.0715  0.2159 -0.0630
21295W        W36764   4.254  10.470   0.365 -0.0660 -0.4673 -0.0541
21296W        W36765  12.771  14.618   1.531 -0.3320 -0.1789  0.1215
21297W        W36766  11.519   8.458   5.553  0.1794  0.0694 -0.2456
21298W        W36767   7.397   5.510   4.281 -0.0568  0.4242 -0.3245
21299W        W36768  17.341  18.268   5.844 -0.1291  0.0101  0.1495
21300W        W36769   1.163   2.150  15.596  0.0164 -0.0892 -0.1623
21301W        W36770   0.732   4.074   1.971 -0.2318  0.3851  0.0284
21302W        W36771   3.508   2.556   3.764 -0.3095  0.1434  0.1006
21303W        W36772  14.777   4.306   3.756 -0.2708 -0.2676  0.2321
21304W        W36773   3.951   3.823   4.676  0.0127 -0.0136  0.0458
21305W        W36774  17.457  17.754   0.840 -0.1442  0.2248  0.2147
21306W        W36775   7.902   5.526  11.693 -0.1725  0.0946  0.1320
21307W        W36776   4.293  18.678   2.001  0.1464 -0.0571  0.3118
21308W        W36777   5.303   1.585  15.558  0.0373  0.0864  0.1326
21309W        W36778   3.200  12.851   1.004  0.2371 -0.3441  0.3775
21310W        W36779   8.119   9.317  15.496 -0.1158  0.2468 -0.2204
21311W        W36780   1.647  10.240   3.113  0.0243 -0.0721 -0.2281
21312W        W36781  11.514   4.979   0.282 -0.2662 -0.1549  0.1695
21313W        W36782   4.292   2.114   9.963 -0.1802  0.0400 -0.0922
21314W        W36783  12.970  18.081  14.601 -0.0948  0.2984  0.0792
21315W        W36784   4.833   5.898   5.466 -0.0296  0.0534 -0.0493
21316W        W36785   2.257   9.373   3.273 -0.0962 -0.1841  0.3914
21317W        W36786   8.666  15.048  13.767 -0.1204  0.0676  0.2874
21318W        W36787  10.376   7.422   0.581  0.4383  0.1387 -0.1437
21319W        W36788  13.867   0.645  14.585  0.1682  0.2490 -0.2139
21320W        W36789  17.510   3.884   0.144  0.3434 -0.2676 -0.0841
21321W        W36790  11.552   2.653   0.708  0.0447 -0.2597  0.4480
21322W        W36791  16.853  15.196   0.446  0.0029 -0.0245 -0.0017
21323W        W36792  18.529  12.573  10.849 -0.0520  0.2471  0.0348
21324W        W36793   1.918  17.160   1.991  0.0396 -0.3627 -0.0278
21325W        W36794   3.811   1.931  12.333 -0.1798 -0.1903  0.0633
21326W        W36795   9.301   3.352   1.393 -0.0002  0.1217  0.2510
21327W        W36796  12.122   1.052   2.634 -0.1107  0.1672  0.1045
21328W        W36797  15.651   2.072  11.191  0.2406 -0.0720 -0.2444
21329W        W36798   2.797  13.766   0.094 -0.1124  0.0381  0.1140
21330W        W36799   8.959  13.459   3.997  0.2641 -0.2281  0.2827
21331W        W36800  16.480  12.245   4.184 -0.1184 -0.1892  0.1563
21332W        W36801   5.416  12.297  12.706 -0.2517 -0.2739  0.1004
21333W        W36802   3.662   8.428  10.040  0.0064  0.2805  0.1421
21334W        W36803   2.212   3.063   2.629  0.0133  0.1335 -0.0821
21335W        W36804  17.867   2.007  10.704 -0.1656 -0.1053  0.0143
21336W        W36805  13.079   1.098  12.621  0.3750 -0.3772  0.0523
21337W        W36806  14.891  16.447  12.806 -0.2092  0.0365 -0.1292
21338W        W36807   6.386   3.150  13.762  0.0005  0.0937  0.1191
21339W        W36808   9.065   5.935   1.033 -0.2295  0.0337 -0.3428
21340W        W36809   9.983   4.003  11.734 -0.4389  0.0830 -0.1407
21341W        W36810   1.854   5.780  12.504  0.0312  0.0089 -0.2430
21342W        W36811  18.242  15.384  13.857 -0.0796  0.1978 -0.1429
21343W        W36812   7.393  15.159  12.953 -0.0287 -0.1441 -0.1987
21344W        W36813   7.216  17.003  13.536  0.0096  0.0697 -0.1406
21345W        W36814   4.997  13.383   3.247  0.0025 -0.0453  0.1247
21346W        W36815  16.438   8.397  15.643 -0.0909  0.0651 -0.0498
21347W        W36816   9.793   4.913   2.684  0.0563  0.1717 -0.2008
21348W        W36817   6.194   5.203  10.803 -0.0783  0.1821  0.2294
21349W        W36818   4.438   2.966  15.099  0.0355 -0.2803 -0.1136
21350W        W36819  13.037  15.222  13.503 -0.0786  0.0706 -0.1744
21351W        W36820   1.669   2.902   5.039 -0.0540 -0.0766 -0.0436
21352W        W36821   7.035  12.373  14.485 -0.0684 -0.1553 -0.0315
21353W        W36822   3.891  10.700  11.469 -0.4490  0.0042  0.0488
21354W        W36823   0.380  14.908  11.511  0.2950 -0.2738  0.0949
21355W        W36824   3.858   8.763   5.413 -0.4590 -0.0595 -0.0147
21356W        W36825  18.424  15.004  14.974 -0.0900 -0.2552  0.5267
21357W        W36826   2.058   5.956  10.826 -0.1683 -0.0169 -0.0821
21358W        W36827  15.115  10.895   4.611  0.0959 -0.1974  0.3922
21359W        W36828   5.886  15.757  14.304 -0.0794 -0.0489  0.1539
21360W        W36829  13.611  16.347   0.527 -0.3858 -0.2066  0.0497
21361W        W36830  13.219   5.253  10.183 -0.1133  0.0546  0.1269
21362W        W36831  10.339  11.169   0.710 -0.3419 -0.2093 -0.1515
21363W        W36832  15.089  12.845  10.722 -0.0483 -0.1573 -0.0581
21364W        W36833   9.724   6.397   1.788  0.0132  0.1084  0.2084
21365W        W36834   4.265   8.152   3.159  0.2663 -0.0936 -0.0497
21366W        W36835   0.845  14.864  14.546  0.3003 -0.0993  0.1810
21367W        W36836  15.776   5.200   0.796  0.0045 -0.0344 -0.2160
21368W        W36837  17.154  11.472   3.864  0.0624 -0.0006 -0.1045
21369W        W36838  14.371   1.449   2.336  0.0293  0.3148  0.0921
21370W        W36839  16.932   5.153  15.531  0.1427  0.3730 -0.0522
21371W        W36840   6.980   7.672   0.244  0.0265  0.2649  0.1593
21372W        W36841  10.676   0.161   1.424 -0.4010 -0.2609  0.0089
21373W        W36842   0.553   7.614  15.116 -0.0114 -0.1280 -0.0259
21374W        W36843   2.052   8.719  13.536 -0.0697  0.1755 -0.0346
21375W        W36844  10.273  10.048   1.419  0.1198 -0.4004 -0.0300
21376W        W36845  16.444   6.258   5.292  0.1868  0.2667  0.1484
21377W        W36846  18.437  17.828  11.361 -0.0327 -0.2069 -0.0807
21378W        W36847   8.416  18.464   0.576  0.1615  0.4074  0.1605
21379W        W36848   3.215   0.096   0.120  0.0984 -0.0354  0.0372
21380W        W36849  10.997  14.010   3.409 -0.0493  0.1551  0.3552
21381W        W36850   6.431  11.327   2.138  0.0854 -0.0495  0.1430
21382W        W36851  14.032   6.117   0.002 -0.1333 -0.0619 -0.0321
21383W        W36852  16.976   0.520  13.305  0.3563 -0.3742  0.1285
21384W        W36853  11.350  17.834   0.714 -0.2270  0.0891 -0.0158
21385W        W36854   8.964   5.525   0.163 -0.0342  0.2373 -0.1377
21386W        W36855   3.604   6.381  10.907 -0.0911  0.2304 -0.2763
21387W        W36856  18.412   3.805  11.226  0.0973  0.4825  0.3098
21388W        W36857  11.019  16.357   2.915  0.1942 -0.0278 -0.0766
21389W        W36858  16.579   5.032   4.552  0.0491 -0.3500  0.0515
21390W        W36859   1.498  16.294  11.603  0.3774 -0.0347 -0.1901
21391W        W36860  16.227   6.603  11.905 -0.0364 -0.0724 -0.0159
21392W        W36861   2.057  16.610   0.856 -0.1941 -0.0006 -0.0128
21393W        W36862   0.022   1.717  10.503  0.0587  0.1301 -0.1380
21394W        W36863   1.015   5.989   5.124 -0.0190  0.1933  0.1091
21395W        W36864  18.494   1.680  14.409  0.0525 -0.0912  0.3438
21396W        W36865   2.792  17.254   4.639  0.2475  0.0556  0.0030
21397W        W36866   9.037   1.915  14.511  0.3028  0.1027 -0.2209
21398W        W36867  10.870   1.840  13.918 -0.1224  0.1090 -0.0161
21399W        W36868  14.555  12.470  13.736  0.2563  0.3581 -0.0168
21400W        W36869   5.905   0.383  14.113  0.3510  0.1148 -0.0434
21401W        W36870  13.785  14.554  13.464  0.0411  0.0671 -0.0806
21402W        W36871   3.465   3.945  13.837  0.0350 -0.0777  0.3949
21403W        W36872  15.670  18.095   5.900  0.0769  0.2233  0.0094
21404W        W36873  11.482   7.624  12.714 -0.0802  0.0514 -0.0331
21405W        W36874  10.888  10.684   2.597 -0.1740 -0.5264  0.0687
21406W        W36875   0.536  18.691  13.297  0.4237  0.2419  0.2567
21407W        W36876  10.218   4.789  10.732  0.0182  0.0919  0.0535
21408W        W36877   8.564  14.284   1.509 -0.1312  0.1894  0.3260
21409W        W36878  13.849  17.743  11.564 -0.0702 -0.1160  0.0687
21410W        W36879   9.676  17.568   0.238  0.3463  0.1633  0.0199
21411W        W36880   0.392   0.525   4.143 -0.1261  0.0251 -0.1258
21412W        W36881  11.932  11.891   0.884 -0.1486 -0.0245  0.1311
21413W        W36882   6.136  16.259  10.470  0.1736 -0.2732 -0.0501
21414W        W36883  14.699   7.954   3.582 -0.3222 -0.2409  0.2927
21415W        W36884   4.097  15.664  15.225  0.2051 -0.0365 -0.1252
21416W        W36885   2.312   1.181  10.618  0.1416  0.0875 -0.1711
21417W        W36886  12.169   6.976  14.125 -0.2275  0.3082 -0.0405
21418W        W36887  15.245   5.778  11.977 -0.2008 -0.1378 -0.1183
21419W        W36888   1.992   1.337   0.316 -0.1420 -0.1026 -0.5048
21420W        W36889  18.147   4.413   0.723 -0.0249 -0.0585  0.0987
21421W        W36890   8.810   2.358   0.372  0.1511 -0.2060  0.2767
21422W        W36891   1.806   5.502  10.990 -0.1942  0.2610  0.2226
21423W        W36892  18.761  11.760  10.569  0.2337 -0.1586 -0.3612
21424W        W36893  13.643  16.684  15.459  0.1904 -0.0755 -0.0175
21425W        W36894   4.825   2.743   1.202  0.1812 -0.1635 -0.3933
21426W        W36895  15.145   4.125  14.118  0.3498 -0.4929 -0.4655
21427W        W36896  14.072   4.871  13.495 -0.0809 -0.2637 -0.0497
21428W        W36897  16.585  17.524   4.302 -0.3307 -0.0735 -0.0344
21429W        W36898  10.633   5.755  15.126  0.1284 -0.2385  0.0357
21430W        W36899  11.965   1.213   0.516 -0.2613 -0.2142  0.1009
21431W        W36900   8.146  11.468  10.507  0.1845 -0.3464 -0.0342
21432W        W36901  13.087  10.950  11.260 -0.2449 -0.1400  0.0599
21433W        W36902   7.149   6.527   4.163 -0.0982  0.1476 -0.1089
21434W        W36903  12.788   6.884   3.117 -0.2303 -0.1247 -0.1655
21435W        W36904  18.240   9.999  15.673  0.3115 -0.2055 -0.1256
21436W        W36905  13.424  18.750  14.112  0.3067 -0.0758 -0.1286
21437W        W36906  12.103   6.795  12.050 -0.3019 -0.3797  0.0107
21438W        W36907  18.374   5.844   6.204 -0.0188 -0.1231  0.0154
21439W        W36908  14.766  14.896  13.699 -0.0335  0.0335  0.1682
21440W        W36909   0.003  12.621   2.446 -0.0644 -0.2736  0.0227
21441W        W36910   8.999  13.248  12.427  0.0943 -0.1172  0.0232
21442W        W36911   7.076   6.916   4.525  0.1091  0.4249  0.0159
21443W        W36912   8.811   4.732   1.788  0.1234  0.1610 -0.2414
21444W        W36913   2.449   1.934   4.432 -0.0020  0.1139 -0.0681
21445W        W36914  15.692  14.983  11.854 -0.2946  0.2238  0.3006
21446W        W36915   5.121  11.091   4.446  0.4718 -0.0059  0.1258
21447W        W36916   6.210  15.275  11.133  0.1690 -0.1151  0.0240
21448W        W36917  17.206   7.698   2.112  0.1769  0.0307  0.1581
21449W        W36918   2.722   8.305   4.053 -0.0648  0.0559 -0.1867
21450W        W36919  12.625  16.000  13.574 -0.1965 -0.1308 -0.1836
21451W        W36920   7.767   3.813  11.805 -0.1463  0.1074 -0.1625
21452W        W36921   0.014   8.882   3.302 -0.0660 -0.0580  0.1740
21453W        W36922  10.845  17.425   0.953 -0.0766  0.4260  0.1088
21454W        W36923  17.548   3.045   4.171  0.1755 -0.2004 -0.0818
21455W        W36924   0.739   5.258   2.480 -0.2200 -0.1633  0.3044
21456W        W36925   7.646  15.758  15.180  0.0475  0.0515  0.2723
21457W        W36926   4.796  10.569   1.603  0.1142  0.1657 -0.0438
21458W        W36927   8.466  18.373   4.922 -0.0111 -0.2833 -0.1075
21459W        W36928  17.885  18.732  13.678  0.1694 -0.4512  0.1562
21460W        W36929   4.576  18.162   3.235  0.0826  0.2548  0.3176
21461W        W36930  12.523   0.639  11.673  0.2978 -0.2175 -0.0126
21462W        W36931  17.166  15.331  13.724  0.1002 -0.0307 -0.0768
21463W        W36932   9.417   1.577   1.452  0.0482 -0.0907  0.1030
21464W        W36933   1.722   6.470  14.022 -0.1459 -0.0569 -0.0988
21465W        W36934  11.658  11.812  15.566  0.1545  0.0114  0.0525
21466W        W36935  17.259   5.967   3.353 -0.3351  0.0019 -0.2853
21467W        W36936   8.189  14.738   1.652  0.2701  0.1389 -0.4021
21468W        W36937  13.014   9.649   1.731 -0.2402 -0.0430  0.3041
21469W        W36938   6.562  10.954   9.862 -0.3984  0.0060  0.1569
21470W        W36939   3.998  15.559  11.467  0.0310  0.0706  0.2444
21471W        W36940   7.590  15.808  13.685 -0.1817  0.1418 -0.2022
21472W        W36941   3.152   9.419   2.751  0.2561 -0.1465  0.2358
21473W        W36942   6.850  12.221   3.551 -0.2680  0.1342  0.3527
21474W        W36943   1.606   8.189  11.838  0.0633  0.0753  0.3509
21475W        W36944   3.296  12.513  13.305 -0.1955  0.5815 -0.2417
21476W        W36945   5.249   9.392  13.167 -0.0931  0.0466  0.1268
21477W        W36946   6.095  10.219   4.511  0.1135 -0.3022 -0.1572
21478W        W36947  18.445  11.036  13.303  0.0485  0.0550  0.4129
21479W        W36948   1.039  16.812  10.392  0.2016 -0.0247  0.2370
21480W        W36949   3.992  11.862   4.514 -0.1986  0.4185 -0.4554
21481W        W36950   3.753   5.853   3.696  0.0948 -0.3287  0.2928
21482W        W36951   9.112  11.122   3.061  0.0704  0.0813  0.0625
21483W        W36952   2.963   5.494  11.495 -0.2200  0.2233 -0.1602
21484W        W36953   1.906  10.702  10.794 -0.3243  0.0958 -0.1747
21485W        W36954  14.051  15.569   3.406 -0.1774  0.0563  0.2712
21486W        W36955  14.264  14.393  13.369 -0.0388  0.2746 -0.0947
21487W        W36956  15.280  18.676  14.508  0.3943  0.1888  0.0378
21488W        W36957   0.479   0.715   4.611 -0.0063  0.0489 -0.2134
21489W        W36958  12.135   0.879  12.923  0.1347  0.0943  0.0321
21490W        W36959  11.275  14.833  12.131 -0.1930  0.2476  0.3399
21491W        W36960  11.547   8.267   3.707  0.1196  0.3512  0.2681
21492W        W36961  13.042   6.918  11.645 -0.2208  0.4791 -0.1381
21493W        W36962  10.528   5.198  15.219 -0.0836 -0.0696  0.1180
21494W        W36963  18.662   6.839   2.671  0.3585  0.2282 -0.1194
21495W        W36964  11.590  12.234  13.772 -0.1722 -0.0845  0.2035
21496W        W36965  12.456   1.165  14.516 -0.0564  0.3818 -0.1159
21497W        W36966   0.142  15.690   1.649 -0.0034 -0.0364 -0.0593
21498W        W36967  15.608   9.566   2.913  0.0206 -0.4442  0.3698
21499W        W36968  10.936   4.425  13.914  0.3802  0.0834 -0.2612
21500W        W36969  12.357  15.114  12.392  0.0006 -0.2340  0.0338
21501W        W36970   1.998  10.267  12.223 -0.0943  0.1101 -0.1726
21502W        W36971  17.881   0.124   4.677 -0.0221  0.1661  0.2755
21503W        W36972  11.814   2.270   1.525  0.0203  0.0153  0.0627
21504W        W36973   1.724  12.592   0.473 -0.1974  0.2302 -0.0488
21505W        W36974  12.909   7.838   5.603  0.0885 -0.2379  0.0349
21506W        W36975   7.620  11.730   2.657 -0.3298 -0.2179 -0.2020
21507W        W36976  12.088   5.587  14.213 -0.2550  0.1057  0.0499
21508W        W36977  16.501  15.598  11.697 -0.2217  0.2619 -0.4183
21509W        W36978  12.331  11.808   1.188 -0.0683 -0.0451  0.3948
21510W        W36979   7.232   6.096   0.106 -0.1866  0.0200 -0.0542
21511W        W36980  11.950   5.883  10.948 -0.0584  0.1748  0.0798
21512W        W36981  10.079  18.206  10.991  0.1076 -0.0287 -0.0360
21513W        W36982   0.299  17.582  11.710 -0.3804 -0.1535 -0.3058
21514W        W36983   2.877   7.205  12.415  0.0961 -0.2582 -0.3064
21515W        W36984   4.795   1.635  10.608 -0.0229  0.2555 -0.0116
21516W        W36985   6.937   8.499   2.650 -0.0484 -0.1794  0.0345
21517W        W36986  12.057   3.203   1.758  0.2047  0.0898  0.5597
21518W        W36987   4.715  11.695  10.689 -0.1003  0.0534 -0.0747
21519W        W36988   4.524  16.364   1.233  0.1986 -0.3054 -0.1680
21520W        W36989  12.818   7.413  12.621  0.0174  0.1602  0.2141
21521W        W36990  16.533   0.313  12.820  0.0087  0.1185  0.0171
21522W        W36991  16.752   0.946   0.970  0.2037  0.1285 -0.2163
21523W        W36992   0.630   3.395  14.277  0.1410  0.1137  0.2357
21524W        W36993  16.986  13.226  11.439 -0.1554 -0.1486 -0.1396
21525W        W36994   1.373   8.597  12.289  0.3366 -0.1964  0.2903
21526W        W36995   0.547  15.323  13.045 -0.0977 -0.2274  0.2562
21527W        W36996  11.604   5.327   1.377  0.0248  0.0278  0.0994
21528W        W36997   5.413   5.332  13.341 -0.4399 -0.0381  0.0797
21529W        W36998   6.772  13.192   4.777  0.0217  0.1235  0.0652
21530W        W36999  10.137   0.148   2.448 -0.0861  0.1838 -0.2300
21531W        W37000   3.286   3.572  14.630  0.1257  0.1121 -0.1186
21532W        W37001  17.562   8.020   4.062 -0.2295  0.2583 -0.1487
21533W        W37002   1.730   0.344  13.550  0.0759 -0.1338  0.0741
21534W        W37003   9.107  14.642   5.134  0.2270 -0.1710  0.2156
21535W        W37004   8.746   9.427   4.102 -0.0094  0.1850 -0.3201
21536W        W37005   9.064  12.971   5.591  0.1175  0.0038  0.0556
21537W        W37006  11.583  11.031   1.993  0.0848 -0.2764 -0.0732
21538W        W37007  14.157   5.944  14.842  0.3153 -0.1927  0.0149
21539W        W37008  18.415   3.376   1.045  0.2934 -0.2433  0.0112
21540W        W37009  15.198   5.621   2.244  0.2278  0.0088  0.1527
21541W        W37010   0.919  10.867   4.840 -0.1346  0.0995  0.2004
21542W        W37011   3.390   4.860  12.235 -0.1829 -0.2989 -0.4134
21543W        W37012  12.943   7.240   9.803 -0.0113  0.1938 -0.0803
21544W        W37013   2.712   6.482   2.223  0.0534 -0.3974  0.1230
21545W        W37014   7.638  18.335   5.258  0.3210 -0.2853 -0.2522
21546W        W37015   6.287   9.732  14.649  0.0224  0.1847  0.0770
21547W        W37016   7.236   8.898  12.805 -0.2036 -0.2006 -0.0933
21548W        W37017  11.761   6.154   0.843  0.1704  0.3265  0.0579
21549W        W37018  12.069  16.743   1.818 -0.0254  0.2174 -0.3027
21550W        W37019  10.207   6.450   5.433  0.0851 -0.0154  0.0187
21551W        W37020   8.444  16.230  15.534 -0.0178  0.0820 -0.2101
21552W        W37021   6.469  17.168   5.012  0.3809  0.0103 -0.2075
21553W        W37022  18.704  12.577   4.179 -0.1768 -0.0620 -0.1395
21554W        W37023   4.804   1.114  12.570  0.1946  0.4332  0.2511
21555W        W37024   7.754   1.477  11.766 -0.2532  0.2462  0.0418
21556W        W37025   8.547   8.158   2.080  0.0785  0.2491  0.0972
21557W        W37026   8.017   7.853   1.152 -0.1461  0.0273 -0.0746
21558W        W37027   3.582  16.937  14.260  0.1580 -0.0596 -0.1164
21559W        W37028   0.379  12.270  13.217  0.0841  0.1515 -0.0472
21560W        W37029  10.042  10.727   6.007  0.1268 -0.1006  0.0845
21561W        W37030   0.458  12.448   1.037 -0.0928 -0.1063 -0.2333
21562W        W37031   4.148   5.239  15.308 -0.0568  0.0227 -0.2046
21563W        W37032   0.992  13.788   1.989 -0.0603 -0.0444  0.2167
21564W        W37033  10.822  15.025  10.987  0.0469 -0.1654 -0.1393
21565W        W37034   2.388  17.036  10.601  0.0045 -0.3043  0.0135
21566W        W37035   9.029   7.657   2.931  0.0376 -0.1905 -0.2077
21567W        W37036  15.158   4.679  12.933  0.3778  0.0321 -0.0648
21568W        W37037   6.933  10.217   0.717  0.2906  0.0143 -0.3017
21569W        W37038   8.773   6.291   3.608 -0.0704 -0.2422  0.1484
21570W        W37039   5.723   7.062   4.340 -0.2189  0.2612  0.3559
21571W        W37040   7.068  17.091  12.610  0.2893 -0.1611  0.0122
21572W        W37041  12.022   7.352   5.213 -0.0170  0.0289 -0.2209
21573W        W37042   5.878  16.635  12.798 -0.0524  0.4360 -0.0939
21574W        W37043  13.329  12.958   0.627  0.1430 -0.0756 -0.0967
21575W        W37044   1.079  13.078   0.067  0.2819 -0.0184 -0.0323
21576W        W37045  10.500  16.002  13.206  0.1848  0.3378 -0.0776
21577W        W37046   9.256   8.519   2.381 -0.2964  0.1123 -0.0903
21578W        W37047   1.186   0.783   2.095  0.1047  0.3946  0.1568
21579W        W37048   1.474   4.945   4.498  0.0964  0.0378  0.0909
21580W        W37049  10.593   5.698   0.921 -0.1443 -0.0800  0.3873
21581W        W37050   8.612   5.672   1.527  0.1539 -0.1436  0.1739
21582W        W37051  14.473   8.720  12.810 -0.0019 -0.0304 -0.0083
21583W        W37052   5.064   5.742  10.164  0.0832 -0.2980 -0.1220
21584W        W37053  13.282   9.632   3.843 -0.0487 -0.4194  0.2502
21585W        W37054  17.611  11.904  12.478 -0.0914  0.2223 -0.2207
21586W        W37055   2.136   7.316   0.370  0.0755  0.2285  0.1818
21587W        W37056   2.231  15.428   0.134  0.0635 -0.0082  0.2183
21588W        W37057   4.714  11.440   4.645 -0.0289  0.2047  0.0644
21589W        W37058  11.910   1.965   4.242 -0.1947  0.2118  0.1543
21590W        W37059   4.041   4.660  13.889 -0.1101 -0.2069 -0.1927
21591W        W37060  12.095   5.812   0.002 -0.2266  0.4855  0.2526
21592W        W37061  13.142  15.035  10.837  0.1691 -0.1433 -0.1223
21593W        W37062  15.848   0.691  11.551 -0.1544  0.0564 -0.0095
21594W        W37063  16.177  10.508  12.035 -0.1311  0.3313  0.0731
21595W        W37064  15.772  12.131  10.937 -0.1909 -0.1874  0.2778
21596W        W37065   1.875   2.511   9.660  0.1000 -0.1772  0.4982
21597W        W37066  11.436  17.833  14.060  0.3870  0.2163 -0.2754
21598W        W37067   8.350  13.027  12.942 -0.0137 -0.0459 -0.0340
21599W        W37068   2.135   4.412  13.078 -0.0064 -0.0775 -0.3716
21600W        W37069   7.014   9.377   9.295 -0.0835  0.1336 -0.1921
21601W        W37070  17.054   5.891  11.316 -0.0810  0.2100 -0.0332
21602W        W37071  18.036   5.262   2.675  0.2934  0.3349 -0.0360
21603W        W37072  15.892  12.623  11.273 -0.1419  0.1427 -0.1137
21604W        W37073  11.711   1.086  11.452 -0.2606  0.0263  0.2529
21605W        W37074  11.406   9.841   0.473 -0.1178 -0.1407 -0.2368
21606W        W37075   2.497   0.416  11.717 -0.1879 -0.1342 -0.2956
21607W        W37076   7.966  10.293  10.873  0.3154 -0.3333 -0.2563
21608W        W37077   7.217  16.502   1.777  0.4032 -0.1949  0.3107
21609W        W37078   6.122   0.603   1.429 -0.0367  0.0336 -0.0259
21610W        W37079   0.336  13.034   5.158 -0.0240  0.0995 -0.0319
21611W        W37080   8.631   9.556   0.610 -0.0382  0.2841  0.0403
21612W        W37081   8.858   7.689   4.638 -0.1756  0.0347 -0.2469
21613W        W37082   1.871  10.282  14.027  0.0788 -0.1028  0.0298
21614W        W37083  16.824   0.233   3.848 -0.1962 -0.0181  0.1857
21615W        W37084  15.283  13.658   0.584 -0.2923  0.1320 -0.0793
21616W        W37085   3.784  10.734  12.058 -0.2292 -0.0960  0.1875
21617W        W37086  10.960  18.488   4.835 -0.0589 -0.0086 -0.5316
21618W        W37087   4.402   1.008  15.553  0.0335 -0.3169  0.3842
21619W        W37088  13.850  15.151   2.946 -0.0705  0.2279 -0.0444
21620W        W37089  14.553   6.971  14.852 -0.2059 -0.0340 -0.1874
21621W        W37090   9.113  15.819   4.227 -0.1063  0.0460 -0.1495
21622W        W37091   0.009   7.178   1.961 -0.3701 -0.2431  0.0087
21623W        W37092  17.867   4.056   3.106 -0.0001  0.3214  0.1621
21624W        W37093  14.937   6.051  12.269  0.1554 -0.1908  0.4765
21625W        W37094  13.906  17.908  13.670 -0.1050 -0.0141  0.1893
21626W        W37095   1.624  10.703  11.283 -0.0166  0.0842 -0.1578
21627W        W37096   4.673  11.829  15.658  0.1062 -0.1613  0.3154
21628W        W37097   2.307  14.897   0.648 -0.0473 -0.1236 -0.0866
21629W        W37098  12.716  14.598  14.247 -0.3709  0.2178  0.0426
21630W        W37099   5.500  14.016  15.058 -0.0930  0.2423  0.1112
21631W        W37100  14.971  11.420   3.973  0.1189 -0.0347  0.1265
21632W        W37101  11.214  12.863   1.815 -0.0692  0.0011 -0.1086
21633W        W37102  10.660  18.365  13.298 -0.1873  0.0110 -0.4512
21634W        W37103   4.957  18.733   3.775 -0.1290 -0.1252  0.0713
21635W        W37104   8.115  14.843   1.163  0.2819  0.1327  0.0521
21636W        W37105   1.130  16.669  14.359 -0.1939 -0.0945 -0.1578
21637W        W37106   3.005  16.729  11.051  0.1045 -0.0626  0.1277
21638W        W37107  13.720   7.506  11.258 -0.0324  0.0388 -0.2224
21639W        W37108  12.852  14.491  11.102  0.1129 -0.2609  0.0741
21640W        W37109  11.991  13.448   1.686 -0.0358  0.1289  0.2140
21641W        W37110   0.622  11.271  11.898 -0.1475 -0.2542 -0.3450
21642W        W37111  14.496  12.721   4.666  0.1026  0.5297  0.0672
21643W        W37112  10.240   0.952   9.373 -0.1280 -0.1096 -0.3930
21644W        W37113   3.705   5.342   4.538 -0.2070  0.1219 -0.1560
21645W        W37114  17.785   8.454  14.781 -0.0408  0.0093 -0.3163
21646W        W37115  10.533   0.948  12.971  0.1119 -0.3386  0.1305
21647W        W37116  17.457   2.192  14.477 -0.1813  0.0491  0.4331
21648W        W37117  12.033  16.328  11.421 -0.0927 -0.0259  0.0487
21649W        W37118  18.317  14.769  10.438 -0.1798  0.2327  0.3477
21650W        W37119  11.436  18.214   1.644  0.1396 -0.0558 -0.3582
21651W        W37120  17.121  12.841  15.252 -0.1190 -0.3877  0.1802
21652W        W37121   6.925  15.577  12.144  0.3121 -0.0249  0.5497
21653W        W37122  18.693   7.758  12.169 -0.2693  0.2629  0.1747
21654W        W37123   1.879   4.811  12.738 -0.1741  0.0355  0.0157
21655W        W37124   9.173   0.052  11.145 -0.1246  0.1772 -0.3018
21656W        W37125   7.699   7.645   2.116 -0.2871  0.0921 -0.0340
21657W        W37126  10.027   2.885   4.878  0.0296 -0.0577 -0.1286
21658W        W37127  11.227  12.162   3.139  0.0615  0.2033 -0.3637
21659W        W37128   9.156  12.933   1.405  0.1326 -0.0533 -0.1161
21660W        W37129   3.418  10.665  14.360 -0.1752  0.3800  0.0150
21661W        W37130   6.962  18.340   2.267 -0.2154 -0.0640 -0.1976
21662W        W37131   2.409   5.800  12.503 -0.0987 -0.1783 -0.1332
21663W        W37132  15.473  18.500   3.802 -0.2235 -0.0779 -0.3037
21664W        W37133   8.795   8.364   2.589 -0.3899 -0.2753 -0.2161
21665W        W37134  13.979  14.776   4.494  0.1998  0.1316  0.0065
21666W        W37135  17.129  14.653  12.652 -0.1294 -0.0652  0.2018
21667W        W37136  10.110   2.567   0.077  0.0275  0.1489  0.0487
21668W        W37137   3.386   8.460  12.263  0.2369  0.2051 -0.1600
21669W        W37138  14.943   5.072  13.095 -0.0369  0.0461  0.1889
21670W        W37139   8.223  16.658   3.789 -0.4215  0.1599 -0.1457
21671W        W37140   1.038  17.232   5.956  0.1115 -0.2005  0.0288
21672W        W37141   6.251  12.721  12.447  0.1601 -0.0915  0.0648
21673W        W37142   6.199  18.368  12.099 -0.3663  0.1021 -0.5392
21674W        W37143   9.862  10.471   4.191  0.0683 -0.0783 -0.2435
21675W        W37144   5.970  13.420  12.237 -0.3247 -0.1353 -0.0378
21676W        W37145   7.275   4.906   3.716 -0.0885  0.2857 -0.1179
21677W        W37146   5.587   1.349  13.465  0.0923 -0.1922 -0.0634
21678W        W37147  18.364  16.217  13.681 -0.0379 -0.0291 -0.2095
21679W        W37148  12.848  10.481  13.802  0.1242  0.1718  0.1355
21680W        W37149  12.515   5.299   1.670 -0.1567 -0.3300  0.5566
21681W        W37150   7.835   3.537  11.316 -0.1787  0.1457  0.1540
21682W        W37151  11.357   6.333  12.128  0.1502  0.0363 -0.1756
21683W        W37152   7.860  14.292  12.793 -0.3355 -0.1183 -0.0034
21684W        W37153  14.120   7.744  10.961  0.3109 -0.4264 -0.0082
21685W        W37154   8.417   2.699  12.612  0.3220 -0.1609  0.2702
21686W        W37155  11.840   8.491  13.743  0.5710  0.2022 -0.1789
21687W        W37156  17.835  10.880   3.833  0.0255  0.1193  0.2009
21688W        W37157  16.902  14.436  12.263 -0.2702  0.0432  0.2724
21689W        W37158   6.543   8.088  10.999  0.0103 -0.0473 -0.3200
21690W        W37159   2.255  12.902   4.097  0.3230 -0.1928  0.1047
21691W        W37160   0.148  17.370  13.207  0.1648 -0.1721  0.2502
21692W        W37161   4.657  12.396   3.389  0.1552  0.0692 -0.5841
21693W        W37162   6.358   8.089  15.390  0.0338 -0.1317  0.1472
21694W        W37163   0.657   1.538  12.443  0.0149 -0.0586 -0.3338
21695W        W37164   9.491   5.217   2.494  0.1466  0.0923  0.2392
21696W        W37165   1.900   9.454  12.146 -0.2826  0.2363 -0.2153
21697W        W37166   2.469  16.950   0.932  0.1276  0.1234  0.1780
21698W        W37167  12.252   1.951  12.683  0.0809 -0.0095 -0.2229
21699W        W37168   5.468  12.441  10.416 -0.2212  0.0451 -0.1718
21700W        W37169  12.951  13.202   1.625  0.1573  0.1705  0.0685
21701W        W37170   9.663   7.152  15.072 -0.1941 -0.2606 -0.0004
21702W        W37171  17.310   9.080   5.258 -0.1813 -0.3392 -0.2180
21703W        W37172  12.715   7.989   4.516 -0.0584 -0.0203 -0.0288
21704W        W37173   0.825   1.089  12.254 -0.0204  0.1339 -0.1163
21705W        W37174  15.864  11.026  14.906 -0.0058  0.2448 -0.2168
21706W        W37175   0.962  17.608   9.975  0.3180 -0.0292 -0.0147
21707W        W37176  12.834  16.332   3.204  0.2260 -0.1028  0.0256
21708W        W37177   9.306  13.975  12.291  0.1334  0.1670  0.5294
21709W        W37178  16.942  14.404  14.291  0.3844  0.0414  0.3977
21710W        W37179   7.501   9.193  14.273 -0.2695  0.1210  0.0441
21711W        W37180   4.790   8.484  10.094  0.1955  0.1106  0.1737
21712W        W37181  17.956  16.367  13.243 -0.1894  0.0334 -0.0567
21713W        W37182  17.382  10.652   5.172 -0.0458 -0.2636 -0.0924
21714W        W37183   6.748   1.504  11.745 -0.0759  0.0245  0.2253
21715W        W37184   0.388  13.734   1.779 -0.0606  0.1446 -0.1468
21716W        W37185  10.853   0.506  11.495  0.2008  0.0397 -0.2363
21717W        W37186  10.676  10.169  15.597  0.3698  0.2605 -0.0845
21718W        W37187  13.553  15.901  12.395  0.0254 -0.0920  0.0981
21719W        W37188  16.738  16.916  15.461  0.2110  0.2683 -0.2975
21720W        W37189   4.094   7.629  15.044  0.2205 -0.1625  0.0132
21721W        W37190  15.798  17.232   4.147 -0.0089 -0.0583  0.2425
21722W        W37191  18.223  12.884   5.040  0.1592 -0.5238 -0.1974
21723W        W37192   4.607   8.196  12.942  0.1876 -0.0888 -0.0510
21724W        W37193   3.281  15.480  13.671  0.0499  0.0498 -0.0364
21725W        W37194   3.215   7.229  11.421 -0.0531 -0.0288  0.0942
21726W        W37195   5.172   6.449   1.585 -0.2016 -0.0877  0.0399
21727W        W37196  10.395   2.059  13.298  0.0308  0.1882 -0.1006
21728W        W37197  13.339   1.149   4.623 -0.0443 -0.0886 -0.1030
21729W        W37198   4.630   1.782  10.139  0.1985  0.1855 -0.1679
21730W        W37199  15.033  17.363  15.027  0.0691 -0.1108  0.0604
21731W        W37200   5.185  17.045   1.996  0.2144  0.0707  0.2358
21732W        W37201   3.700   3.615   3.246  0.0083 -0.1529 -0.2754
21733W        W37202  11.212  18.264   1.179 -0.0527 -0.1121 -0.0420
21734W        W37203  11.775  15.402  14.335 -0.1299 -0.0896 -0.1111
21735W        W37204   4.838  11.914   4.142 -0.2124  0.4416 -0.1488
21736W        W37205   0.150   4.609   0.363  0.2551 -0.0551 -0.0570
21737W        W37206   5.323   9.420  14.961  0.1426  0.3539  0.0473
21738W        W37207   7.970  16.567   1.985 -0.1851  0.2363 -0.0621
21739W        W37208   2.513   5.666   1.095 -0.0876 -0.1962  0.0424
21740W        W37209   7.991   0.634   1.198 -0.0903 -0.2597  0.4685
21741W        W37210  18.549  10.570  13.426  0.3030  0.0622  0.0621
21742W        W37211  11.299   8.453   1.831  0.2370  0.1749 -0.0170
21743W        W37212   0.396   5.345   2.000 -0.0974  0.2463  0.1304
21744W        W37213  15.411  16.178  10.988 -0.2388 -0.2714 -0.1582
21745W        W37214  12.253   7.125   4.830 -0.0286 -0.1607  0.2014
21746W        W37215   0.356   5.336  14.854  0.0759  0.6314 -0.0237
21747W        W37216   3.199   6.540  15.472  0.0842 -0.0031  0.0663
21748W        W37217  10.945   3.762   4.373 -0.3794  0.2292 -0.3003
21749W        W37218   9.070   5.310   3.940 -0.0024 -0.0569 -0.5199
21750W        W37219   2.215  10.312   2.884 -0.2525 -0.1121 -0.0264
21751W        W37220   4.392  16.516   3.630 -0.0201  0.2248  0.2018
21752W        W37221   4.733   2.001   3.029  0.0847 -0.0298 -0.1630
21753W        W37222  18.039   2.981  12.606 -0.2305 -0.1344  0.1751
21754W        W37223  13.723  13.653   4.709 -0.2740  0.0645 -0.0890
21755W        W37224   9.214   2.399   3.337  0.2272 -0.1286 -0.0893
21756W        W37225   3.948  14.111   4.006  0.1702  0.0554 -0.0400
21757W        W37226   9.309  13.499   1.474  0.2284 -0.2082 -0.1005
21758W        W37227   3.609   9.513  15.138 -0.3358 -0.2514  0.1035
21759W        W37228   9.118   9.131  12.135  0.1354 -0.1970 -0.2699
21760W        W37229  11.143   7.077   2.199  0.1444  0.3780  0.5786
21761W        W37230   4.714   0.144   0.960  0.0453 -0.1543 -0.1761
21762W        W37231   1.594  15.547  12.821 -0.0961 -0.2153  0.4387
21763W        W37232  13.141   4.813  13.677  0.0001  0.2753  0.1578
21764W        W37233  12.640  15.823   1.152 -0.1940  0.0349 -0.0077
21765W        W37234  14.571   9.629   5.729  0.0459 -0.0556 -0.1337
21766W        W37235   2.808  16.450  13.466 -0.2819  0.0739 -0.2566
21767W        W37236   9.671  13.615   3.535 -0.0289 -0.0835 -0.2650
21768W        W37237  11.475   5.528  11.063 -0.1976 -0.0504  0.2595
21769W        W37238   8.799   4.788  13.465  0.0139 -0.3565 -0.1913
21770W        W37239  12.481   1.241   2.945  0.1023  0.2277 -0.0377
21771W        W37240  16.306   2.200   5.679 -0.2423  0.0614  0.0960
21772W        W37241   0.389  15.884   1.074 -0.5444 -0.2683  0.0481
21773W        W37242   6.737  13.406   4.210  0.1287 -0.4493  0.0194
21774W        W37243   8.371   3.942   0.699  0.1551 -0.3835  0.0337
21775W        W37244   4.068  16.174  13.676 -0.1505  0.2795 -0.1861
21776W        W37245   4.007  16.726  10.961 -0.0873  0.3867 -0.1505
21777W        W37246  18.017  15.053   2.800  0.0926  0.4580  0.0368
21778W        W37247  15.805   8.747  12.827 -0.4026  0.1466  0.2870
21779W        W37248  17.404  16.713  11.034 -0.0173  0.3225  0.1991
21780W        W37249  10.544  13.607  12.082  0.1370  0.0024 -0.2818
21781W        W37250  13.051  12.831   2.506  0.1130 -0.1217  0.0521
21782W        W37251   7.336   2.572  10.938 -0.1552 -0.1204  0.0509
21783W        W37252  17.957   4.089  12.959 -0.1064 -0.2378 -0.0040
21784W        W37253   6.033   9.429  11.519  0.0169  0.2745 -0.2493
21785W        W37254   1.753   2.530  11.826  0.0198 -0.2269  0.0546
21786W        W37255   1.812   9.500   3.072  0.1053 -0.2071 -0.1353
21787W        W37256   7.722   8.027   1.456 -0.1653  0.1506  0.0659
21788W        W37257  13.328  14.458   3.784 -0.0457 -0.1009 -0.1565
21789W        W37258   5.518   0.496  11.940  0.0255 -0.0045 -0.1899
21790W        W37259   6.342   8.327   0.162 -0.1157  0.1719  0.0220
21791W        W37260   0.936  10.310   2.424 -0.0359 -0.0615 -0.1555
21792W        W37261  12.304   5.201  15.136 -0.1860 -0.0836  0.2729
21793W        W37262   2.866  16.508  13.943  0.2149 -0.1623 -0.0654
21794W        W37263  13.913   4.385   0.279 -0.0939 -0.0011  0.0426
21795W        W37264  14.192  16.629  13.816 -0.1148 -0.0447 -0.0430
21796W        W37265   5.018   4.901  10.895  0.0689  0.1640  0.2107
21797W        W37266   7.373   2.580   0.123  0.1575 -0.2404  0.2499
21798W        W37267   3.201   6.461  12.780 -0.0601 -0.2807  0.2805
21799W        W37268   1.321   3.046   0.214  0.0695 -0.1446 -0.0239
21800W        W37269  12.412   0.238   2.816 -0.0280  0.0730 -0.1184
21801W        W37270  12.792   3.996  13.582  0.4478 -0.2973  0.0493
21802W        W37271   1.810   1.125   5.496  0.1488 -0.1256  0.0862
21803W        W37272  16.267  17.732   1.750  0.2732 -0.3433 -0.0440
21804W        W37273   6.429   2.495   5.183  0.0313 -0.3273 -0.0239
21805W        W37274  11.242   9.107   3.123  0.1142  0.3101  0.0459
21806W        W37275   6.360  17.933   1.559  0.0086 -0.1130 -0.0311
21807W        W37276  11.518   2.336   9.546 -0.2324 -0.1248  0.2946
21808W        W37277   0.632   6.902  11.336  0.1020  0.0048  0.0801
21809W        W37278   5.072  16.011   3.935  0.2257 -0.0326  0.0386
21810W        W37279   5.940   0.413  13.618  0.0869  0.0990 -0.2267
21811W        W37280   0.250   0.358  11.451  0.0262 -0.0252 -0.0917
21812W        W37281   2.237  18.631  12.981 -0.2483  0.2184  0.1198
21813W        W37282  14.495   1.768   5.323 -0.0899 -0.0638 -0.2078
21814W        W37283   4.254  13.317  10.975  0.0727 -0.3857 -0.0600
21815W        W37284   8.940   0.140  14.959 -0.0883 -0.1244 -0.2398
21816W        W37285  16.505  11.266   3.026 -0.0694  0.3861  0.0537
21817W        W37286   2.595   6.166  10.996  0.3036 -0.0258  0.0477
21818W        W37287  10.819  15.286  12.781 -0.0557  0.1226  0.1261
21819W        W37288  11.752  11.131   1.440 -0.2933 -0.1196  0.1595
21820W        W37289   9.790   0.129   3.809  0.0690 -0.2962 -0.0540
21821W        W37290   9.231  17.377  13.892  0.0096 -0.0826 -0.0069
21822W        W37291  15.529   2.755  13.449 -0.3536  0.1995 -0.1597
21823W        W37292   5.955   8.273  15.092 -0.2126  0.1758 -0.0750
21824W        W37293  11.400  16.007   1.393 -0.1318 -0.2484 -0.2832
21825W        W37294  11.921  15.948   4.001  0.0604  0.0274  0.2691
21826W        W37295   7.359   6.213  10.664  0.0170 -0.2552 -0.0431
21827W        W37296   9.251  12.409   1.476 -0.1441 -0.0725 -0.1408
21828W        W37297   1.378  13.937   5.001  0.0121  0.1140 -0.1218
21829W        W37298  12.425  11.323   3.960  0.2272 -0.2256 -0.2296
21830W        W37299  11.099  13.987   2.895  0.2103 -0.0309  0.0571
21831W        W37300   0.127  17.306  12.164  0.0221  0.1417  0.0913
21832W        W37301   1.235   0.754  14.769 -0.3602 -0.1964  0.2862
21833W        W37302  11.873   2.283  14.035  0.1463  0.0821  0.2830
21834W        W37303  12.381  13.746   3.057 -0.0458  0.2342  0.1081
21835W        W37304  13.366  14.896   3.100 -0.0672  0.1371  0.0562
21836W        W37305   0.453   5.418  10.741  0.0093 -0.1709  0.0804
21837W        W37306  14.204   4.203   4.262 -0.0913 -0.0603 -0.2113
21838W        W37307  15.890   1.575   3.607 -0.2248  0.1878  0.1947
21839W        W37308  18.420   8.657   2.910 -0.1470  0.0561 -0.0917
21840W        W37309  17.875   8.561  12.748  0.5919  0.3550 -0.2010
21841W        W37310  13.936  11.704   2.373 -0.1865  0.1720  0.0770
21842W        W37311  15.071   6.897  10.469  0.1898 -0.1930  0.2840
21843W        W37312  17.135  10.999   0.764  0.0340  0.0353  0.2654
21844W        W37313  14.145   2.119  11.688  0.3174 -0.1858  0.2152
21845W        W37314  17.705  15.820   3.341 -0.1805  0.0673 -0.0681
21846W        W37315  12.825  13.814  14.284  0.2497  0.0740 -0.0938
21847W        W37316   8.828   0.107  12.764  0.0988  0.0811 -0.1927
21848W        W37317   9.188  10.011  15.489 -0.1538 -0.1933  0.3397
21849W        W37318   6.079  14.630   2.651 -0.0294  0.4585  0.1875
21850W        W37319   3.733  11.023   1.036  0.0289 -0.0721  0.2050
21851W        W37320  13.852   9.761  14.488  0.0321 -0.0037  0.0863
21852W        W37321   8.617   8.251  15.306 -0.1464 -0.2095  0.1866
21853W        W37322  16.015  17.198  15.497 -0.0552 -0.4616 -0.0007
21854W        W37323  11.786  14.193   2.273 -0.3823  0.1428 -0.0317
21855W        W37324  18.320   2.591  11.277  0.1393 -0.1844  0.1267
21856W        W37325   7.091  16.053  12.379  0.4387  0.0616  0.0753
21857W        W37326  15.148   2.323  11.233 -0.1834  0.1079 -0.3183
21858W        W37327  17.915  17.934  12.275  0.0809 -0.2141  0.0502
21859W        W37328  13.734   8.782   2.711 -0.1447 -0.1246 -0.1038
21860W        W37329   3.462   2.877   3.251 -0.0076 -0.1470 -0.3177
21861W        W37330  14.731   6.516  14.573  0.0593  0.1153  0.0727
21862W        W37331  14.575  14.299  12.318  0.2337  0.0764 -0.4742
21863W        W37332  10.944  16.293  14.165 -0.1926  0.2451 -0.1340
21864W        W37333  11.196  12.741  11.637  0.0169  0.2436 -0.1506
21865W        W37334  12.202  15.416   3.319  0.1017  0.0782 -0.2805
21866W        W37335   5.756   9.588  13.250  0.1690 -0.0170 -0.1263
21867W        W37336  11.631  17.788   1.271  0.0974  0.2280  0.2329
21868W        W37337   7.043  13.239   1.665  0.2490 -0.2704 -0.1932
21869W        W37338   1.307   4.879   3.309 -0.0458 -0.3139 -0.0970
21870W        W37339   0.382   2.820   0.035  0.0553 -0.1603  0.0195
21871W        W37340   7.029   0.614  10.895 -0.1315 -0.0555  0.2763
21872W        W37341  11.723   2.717  12.522  0.0550 -0.0334 -0.1256
21873W        W37342   3.461   5.660  12.440  0.1397  0.0069  0.0741
21874W        W37343  13.415   6.733   1.891  0.3925  0.4156  0.2190
21875W        W37344   3.918   0.743  15.446 -0.1193 -0.1321  0.2262
21876W        W37345  10.388   6.704  15.530  0.0246 -0.0103  0.2050
21877W        W37346   2.841   6.221   2.759  0.3412  0.1172 -0.1239
21878W        W37347   6.897  11.565  15.297  0.2039  0.0163 -0.1051
21879W        W37348   5.450  13.925   2.533  0.0498 -0.1249  0.1173
21880W        W37349  16.193   6.066  14.742 -0.0916 -0.1592  0.1686
21881W        W37350  13.250   1.693   1.977  0.0935  0.1549 -0.1049
21882W        W37351  12.708  13.768   0.455 -0.3823 -0.1871 -0.2414
21883W        W37352   9.226  14.220   3.731  0.1044 -0.0801 -0.1067
21884W        W37353   9.138  15.524   1.389  0.1834 -0.0521  0.0994
21885W        W37354   4.826   8.985   0.069 -0.1800  0.3447 -0.2140
21886W        W37355   8.303  15.904   0.683 -0.2560  0.0897 -0.3074
21887W        W37356  12.124  16.270   1.719  0.3092  0.0969  0.0971
21888W        W37357   3.796   3.213  13.999  0.0028 -0.0645 -0.0615
21889W        W37358  17.106  16.177   5.094 -0.2647  0.1691 -0.1678
21890W        W37359   7.373   3.023   1.783 -0.0610  0.1179  0.0237
21891W        W37360  15.970  16.366  14.083  0.0215 -0.1109 -0.1154
21892W        W37361  15.608  17.354  13.928  0.0223 -0.0923 -0.0279
21893W        W37362   5.624  16.224  12.333 -0.2048  0.1954 -0.0494
21894W        W37363  10.768  13.156  13.012 -0.2764  0.0373 -0.1039
21895W        W37364  14.715  15.715  10.963 -0.0332 -0.0445 -0.0808
21896W        W37365  16.717   5.809   4.106  0.0886 -0.1753 -0.1546
21897W        W37366  16.358   5.445   3.749 -0.1317  0.1945 -0.4399
21898W        W37367  15.814   0.078  15.502  0.1172  0.1481  0.0042
21899W        W37368   8.624  11.632   0.010 -0.3450  0.0136 -0.3199
21900W        W37369  12.405  10.475  13.434  0.1036 -0.2441 -0.0843
21901W        W37370  10.410   4.556  11.751  0.0148 -0.1748 -0.1263
21902W        W37371   4.928  16.074   1.124 -0.1706  0.2079 -0.0265
21903W        W37372  13.563   6.453  12.377  0.0571  0.1005 -0.2024
21904W        W37373   0.291   4.415   1.362 -0.1220  0.1276  0.0439
21905W        W37374  13.101  16.979  12.974  0.0062 -0.4017 -0.1766
21906W        W37375   1.857  13.166   4.279 -0.2112  0.2483 -0.0888
21907W        W37376  16.044   2.970   2.367  0.2142 -0.0705  0.0628
21908W        W37377   1.851  13.943  11.900  0.0122 -0.1411 -0.1859
21909W        W37378  11.125  15.088  15.096 -0.1346 -0.2547 -0.0188
21910W        W37379   7.845   5.471  14.631 -0.0479 -0.0314  0.1578
21911W        W37380   0.159   3.660   3.451  0.2855  0.1104 -0.1957
21912W        W37381  12.610   6.637   4.992 -0.0203  0.1733  0.1977
21913W        W37382   9.373   7.787   4.342  0.1247 -0.3548  0.1400
21914W        W37383  16.580  13.455  13.234 -0.0827 -0.0787  0.0661
21915W        W37384   6.510   8.767  11.982  0.1797 -0.1578 -0.2645
21916W        W37385   5.114  15.981  13.508  0.2396 -0.1375 -0.2756
21917W        W37386   0.011  16.868  13.410 -0.0758  0.2343 -0.1277
21918W        W37387   5.770  13.467   4.819 -0.1716  0.2326  0.1443
21919W        W37388   1.869   6.579   4.534  0.1605 -0.1831  0.1789
21920W        W37389   5.329   9.455  12.245  0.0690  0.3570 -0.2292
21921W        W37390  18.767  13.575  10.909  0.0202 -0.1626 -0.3930
21922W        W37391   5.580  17.145   3.505 -0.0266 -0.2325  0.0268
21923W        W37392  14.516  12.804  14.949 -0.0905 -0.0850 -0.0712
21924W        W37393  13.866  14.661  10.777 -0.2476 -0.0566  0.1925
21925W        W37394  16.257  10.082   2.127 -0.0910  0.0682  0.0876
21926W        W37395  11.315  13.110  14.972  0.0827  0.0421 -0.2608
21927W        W37396   5.844   5.105  13.622 -0.0383  0.1377 -0.0053
21928W        W37397   3.396  13.538  11.595  0.1077 -0.0855  0.1336
21929W        W37398   4.678  16.705   0.811  0.0020 -0.0849 -0.1888
21930W        W37399  13.434   2.271  11.666 -0.0046 -0.4703  0.0066
21931W        W37400   5.532   1.814   0.498 -0.1123 -0.4117  0.2264
21932W        W37401   5.549   0.276  13.237 -0.0768 -0.0732  0.0448
21933W        W37402  14.777   1.452  11.880 -0.2668 -0.0688  0.1615
21934W        W37403  17.515   5.091  11.554 -0.2038  0.3816 -0.0545
21935W        W37404  14.580  14.706  12.654  0.1941 -0.2887 -0.0477
21936W        W37405   8.917   6.847  12.217 -0.1921 -0.2123  0.6238
21937W        W37406  18.747   4.682  11.283 -0.2155  0.1167 -0.1518
21938W        W37407  14.318  16.675  11.599 -0.2211 -0.1876  0.3279
21939W        W37408  16.081  13.138  14.810 -0.1452 -0.4401  0.2325
21940W        W37409  12.232   1.738   3.191 -0.0611  0.0618  0.0963
21941W        W37410  10.932   2.204  10.241 -0.0181 -0.0271 -0.1711
21942W        W37411  18.707  15.966   5.737  0.3707  0.1669 -0.1052
21943W        W37412   3.383   3.699  10.442  0.2405 -0.1274 -0.3228
21944W        W37413   9.557  16.875  12.731 -0.0296 -0.0741  0.0453
21945W        W37414  18.025  17.098  11.495 -0.0647 -0.2975  0.3481
21946W        W37415  10.228  13.996  11.930  0.1158  0.2130 -0.2228
21947W        W37416  16.567   7.021  14.539 -0.0142  0.0433 -0.0446
21948W        W37417  10.355  12.436   4.759 -0.1955  0.4577  0.0185
21949W        W37418  16.333   3.897  15.332 -0.0978 -0.1353 -0.4961
21950W        W37419  18.529   0.762  14.775 -0.0346  0.0549 -0.0444
21951W        W37420  15.752   9.027  13.716 -0.0577  0.0976  0.0300
21952W        W37421  12.798  16.812   0.306 -0.0028 -0.0392  0.2017
21953W        W37422   0.343  11.528   4.736 -0.0168  0.4036 -0.1943
21954W        W37423  13.314  12.176  14.597 -0.0626  0.2838 -0.0723
21955W        W37424  10.285  17.825  15.105  0.1601 -0.2284  0.0279
21956W        W37425  18.767   8.309  12.767  0.2263  0.0376 -0.0880
21957W        W37426  16.663  14.991   0.866 -0.0109  0.4927 -0.1937
21958W        W37427  17.921   8.128  10.596  0.1494 -0.1583  0.1572
21959W        W37428  17.324  16.395  10.080  0.0305  0.1680  0.0817
21960W        W37429  16.423  18.731   4.640  0.1264 -0.2857  0.2243
21961W        W37430   0.795  17.716   5.735  0.1390 -0.1319  0.0617
21962W        W37431  17.067  14.014  11.953 -0.2282 -0.1161  0.3137
21963W        W37432   8.031  16.260   2.452  0.2578 -0.2620  0.0442
21964W        W37433  14.948   0.693   0.566 -0.0653 -0.1752 -0.2888
21965W        W37434   5.635   8.788   0.544 -0.1835 -0.0984 -0.2088
21966W        W37435  16.217  16.472   4.626 -0.0689  0.2865 -0.1442
21967W        W37436   4.305  17.341   5.228  0.0115  0.2971  0.3549
21968W        W37437   3.847   6.852  14.594 -0.2354 -0.3483  0.1599
21969W        W37438  13.175  16.510   0.666  0.1086 -0.0297  0.1927
21970W        W37439  12.087  14.969   4.603  0.0088 -0.0493  0.1405
21971W        W37440  13.624   7.652   4.363 -0.2071 -0.1450  0.1422
21972W        W37441  16.989   6.516   4.378  0.2041  0.1115  0.2129
21973W        W37442  14.484   1.617   4.304  0.0282  0.3126 -0.3247
21974W        W37443  11.156  16.380  14.609  0.1609 -0.0859 -0.3904
21975W        W37444   9.858  15.141   2.339 -0.2530 -0.0768 -0.1812
21976W        W37445  18.041  11.275  13.456  0.1864  0.3279  0.2774
21977W        W37446   4.712  11.197   1.313 -0.0317  0.0611  0.2893
21978W        W37447  12.921  14.190  15.534 -0.2900 -0.1293  0.0993
21979W        W37448   0.616   2.732   5.152 -0.1008  0.1897 -0.0124
21980W        W37449  13.792   9.375  12.483  0.4076 -0.0724 -0.2550
21981W        W37450  13.528   2.737  12.075  0.0118 -0.0162 -0.1533
21982W        W37451  13.332   7.436   4.900  0.2993 -0.0453 -0.0882
21983W        W37452   8.879   8.834  15.618  0.0946 -0.2021 -0.0384
21984W        W37453  17.843   9.428   2.496 -0.1338  0.2006 -0.1326
21985W        W37454   2.241  14.731  14.223 -0.0058 -0.1113 -0.0906
21986W        W37455  11.159   6.508  11.640 -0.1558  0.0138 -0.0146
21987W        W37456   4.881  12.654  11.114  0.0794  0.0374 -0.0238
21988W        W37457  14.541   5.228  14.836 -0.2552  0.1848  0.0502
21989W        W37458  15.021  11.838   4.290 -0.1849 -0.1755  0.0442
21990W        W37459  18.608   4.198   4.880 -0.0618  0.3672 -0.1183
21991W        W37460  14.781   4.560  14.026  0.0577 -0.0228 -0.1188
21992W        W37461   8.468   2.422   2.180  0.2352 -0.0439 -0.2333
21993W        W37462   3.808   7.153  10.770 -0.1915  0.1221  0.0076
21994W        W37463   0.628  15.348  11.436 -0.0357 -0.1740  0.0003
21995W        W37464   8.641   0.829  12.201 -0.0533 -0.3941 -0.0563
21996W        W37465  14.476  16.114  11.757  0.2594  0.4063 -0.0275
21997W        W37466   9.126  18.420   0.602 -0.2688  0.0307  0.0452
21998W        W37467  14.956   6.651  13.179  0.0581  0.0852 -0.3957
21999W        W37468   7.539  17.117  12.411 -0.2329 -0.1538  0.1989
22000W        W37469   6.081   1.525  10.819 -0.2154 -0.2023  0.2386
22001W        W37470   5.915  12.090   4.160 -0.0499  0.0145  0.0978
22002W        W37471  13.054  18.609  11.471  0.1043 -0.0236  0.0422
22003W        W37472  16.360   9.867   0.736  0.0970 -0.0984 -0.0413
22004W        W37473  16.071   5.962   2.440 -0.0070  0.0998  0.2121
22005W        W37474  18.255   2.379   4.317 -0.0739  0.2147 -0.1062
22006W        W37475   8.942   4.880  11.374  0.2089 -0.0889 -0.0040
22007W        W37476   5.086  11.899   0.296  0.0308  0.1668 -0.3489
22008W        W37477  18.343  15.058  14.271  0.1063  0.3469  0.2601
22009W        W37478   8.758   9.197  14.710  0.0616  0.1789  0.2127
22010W        W37479   2.115   3.524  10.805  0.0748 -0.1756 -0.1962
22011W        W37480  11.291   5.485   2.181 -0.3986  0.3040  0.1475
22012W        W37481   5.736   0.388   1.732 -0.1825  0.0221  0.1452
22013W        W37482  11.026   2.271   2.421 -0.0756 -0.1282 -0.5094
22014W        W37483   5.600  11.428   0.390  0.3334  0.2003 -0.3764
22015W        W37484   7.430  16.221   4.689  0.3849  0.2985  0.0022
22016W        W37485   1.240  17.292  14.303 -0.0237  0.1978 -0.1096
22017W        W37486  15.717   4.683  12.679  0.2652  0.0972 -0.0048
22018W        W37487   1.093  13.803   0.410 -0.1080  0.2456  0.1653
22019W        W37488   5.257  11.354   4.911 -0.1638  0.3077  0.1234
22020W        W37489   9.375   3.227   0.300  0.0893  0.1192 -0.1988
22021W        W37490  17.584  11.243   0.750 -0.0979 -0.0745  0.1635
22022W        W37491   5.821   6.121   2.923  0.4007 -0.0473  0.3403
22023W        W37492   2.414  17.333   1.746  0.0570 -0.1505 -0.1338
22024W        W37493   2.240   9.387   1.287 -0.0744  0.3715  0.0541
22025W        W37494  14.832   7.385  14.934  0.2599  0.1117  0.1145
22026W        W37495   1.774  17.502   3.060 -0.1470 -0.0116  0.2508
22027W        W37496   2.985   3.244   3.925  0.4168 -0.0243  0.1133
22028W        W37497   1.591  15.222  13.808  0.2880 -0.0246  0.2659
22029W        W37498   4.658  17.668   5.056 -0.0169  0.1277 -0.2165
22030W        W37499  16.776  14.955  12.864 -0.4767  0.0909  0.0276
22031W        W37500  10.004  12.051  11.255  0.0969  0.1369 -0.0732
22032W        W37501  12.150  12.728   2.283  0.1924 -0.0676  0.0321
22033W        W37502  18.360  17.434   3.483 -0.2266 -0.0868  0.0947
22034W        W37503   9.041   5.355  13.322  0.0823  0.3122  0.0099
22035W        W37504  15.946   8.651   0.077  0.0230 -0.3320  0.0810
22036W        W37505  10.529  10.758   0.981 -0.0056  0.1597 -0.0010
22037W        W37506   5.521   1.604  13.911 -0.2493  0.0322  0.2834
22038W        W37507  16.962   6.897   4.742 -0.0103  0.2326  0.1157
22039W        W37508  11.126   9.534   2.877 -0.1897  0.0716  0.0695
22040W        W37509   3.706   0.272  13.502  0.2267  0.3120  0.4525
22041W        W37510   9.658  14.555   3.944  0.1963  0.0245 -0.0777
22042W        W37511  14.162  18.607  14.650  0.1116 -0.2257  0.1549
22043W        W37512  13.813  14.175  14.822 -0.2218  0.0087 -0.1233
22044W        W37513   7.047   5.828  10.613  0.1162 -0.0682  0.3733
22045W        W37514  13.083  16.894  10.591  0.1115 -0.2563  0.1198
22046W        W37515   7.423  13.577   1.741  0.0284 -0.0370  0.0887
22047W        W37516   6.187   0.076   5.366  0.2979  0.0403 -0.0741
22048W        W37517  12.894  11.389  14.643  0.0960  0.1950 -0.0223
22049W        W37518   6.190   8.388  12.641  0.1590  0.2715  0.2530
22050W        W37519   9.712   6.462   3.064 -0.0768 -0.0970 -0.0563
22051W        W37520  13.363  16.253   0.012 -0.4238 -0.3249 -0.2899
22052W        W37521   9.286   8.192   0.608  0.1012 -0.2682  0.2470
22053W        W37522  17.817  15.794  13.254 -0.1090  0.0922 -0.0901
22054W        W37523  17.630   1.072  15.330  0.1192  0.0087 -0.0671
22055W        W37524  17.460  18.249   3.086  0.2341 -0.3606 -0.2924
22056W        W37525   1.714  16.790   1.535  0.1618  0.1107  0.0089
22057W        W37526   6.994   9.407   0.198 -0.0178 -0.2430  0.3184
22058W        W37527   0.219  18.018  10.958  0.6311 -0.0088 -0.0311
22059W        W37528   5.491  11.924   3.328  0.1789 -0.1232 -0.1480
22060W        W37529   8.501   8.401   3.961 -0.0593 -0.2185  0.2848
22061W        W37530  15.842   1.051   2.159  0.1198  0.0705  0.0416
22062W        W37531   9.946   7.307  11.004  0.0044 -0.0470 -0.3058
22063W        W37532   0.257  14.271   3.540  0.2023 -0.1841 -0.1772
22064W        W37533  14.611   5.835   4.571 -0.1637 -0.0442 -0.2208
22065W        W37534  15.534   3.468   1.867  0.0021  0.3129 -0.2548
22066W        W37535   8.697  11.108   5.249 -0.0900  0.2056 -0.0519
22067W        W37536   5.284  17.099  14.605  0.1552  0.1895  0.3841
22068W        W37537   5.472   4.889   0.617  0.0767  0.1413 -0.0941
22069W        W37538   5.671  14.257   2.773 -0.2544 -0.0020 -0.0316
22070W        W37539  11.437  15.572   2.886  0.2589  0.1175 -0.2890
22071W        W37540   0.629   6.552   3.950 -0.2095  0.3712  0.0054
22072W        W37541  10.745  17.987   0.864  0.2180  0.1099  0.2097
22073W        W37542  13.998   6.299  12.187 -0.0577  0.3301  0.1491
22074W        W37543   0.146   1.762   1.262 -0.2628  0.2770 -0.1442
22075W        W37544   3.288  10.368  10.358  0.0426 -0.0053 -0.1664
22076W        W37545   8.737  13.502   2.617  0.2675 -0.0923  0.0965
22077W        W37546  12.828   9.003   2.799  0.1374  0.0075 -0.0435
22078W        W37547   3.154   1.835  13.892 -0.0760 -0.0945 -0.1310
22079W        W37548   6.663   0.426   1.779 -0.3168 -0.2863  0.1888
22080W        W37549   8.355   9.903  13.102 -0.2975 -0.0852 -0.0429
22081W        W37550   1.045   0.219   2.414  0.1072 -0.0131  0.1356
22082W        W37551   2.664   2.943   4.978  0.0384 -0.0041 -0.0218
22083W        W37552   0.277   9.136   3.705 -0.2010  0.4213  0.2305
22084W        W37553  15.740  17.985  13.396  0.3472  0.1811  0.2190
22085W        W37554  15.726   7.665   3.405 -0.0234  0.0935 -0.0322
22086W        W37555   7.148   1.845   3.122 -0.0323 -0.1218 -0.0895
22087W        W37556  11.876   6.129   2.676  0.2002 -0.0214  0.0942
22088W        W37557  14.770   3.587  11.424  0.2310  0.1934  0.1935
22089W        W37558   2.390   8.586   4.462 -0.3169 -0.1309  0.0412
22090W        W37559  14.071   5.789   3.000  0.1298  0.1359 -0.2680
22091W        W37560   8.454   1.429  12.481 -0.0339 -0.0480  0.1341
22092W        W37561  13.449  17.880  13.442 -0.0147 -0.2164  0.1988
22093W        W37562  17.756  13.623  13.074 -0.1144  0.0977 -0.1558
22094W        W37563   2.940  12.893   5.645  0.3656 -0.3169  0.0524
22095W        W37564   7.041   3.568   4.491  0.0047  0.0602 -0.0235
22096W        W37565  16.688   7.138   9.375 -0.0283 -0.0456 -0.3735
22097W        W37566   8.049  17.980  13.212  0.1223  0.0323 -0.1522
22098W        W37567  11.591  14.313  12.308  0.6797 -0.0631 -0.0280
22099W        W37568  11.735  16.635   2.267 -0.1476  0.0195 -0.3993
22100W        W37569   8.367   2.819   3.366 -0.1736 -0.0870 -0.0760
22101W        W37570   3.401  15.644   5.011  0.1345 -0.1312  0.2685
22102W        W37571  13.728   4.342   2.502 -0.0915  0.0921  0.1637
22103W        W37572   0.980   2.106  13.918  0.0005 -0.0177  0.2218
22104W        W37573  14.993   9.664   4.797 -0.0093  0.2547  0.0417
22105W        W37574  17.548  14.338   3.854  0.2400 -0.0246  0.1490
22106W        W37575   8.432  16.461   4.664  0.2094 -0.3964 -0.1144
22107W        W37576   0.513   2.093  14.089 -0.0333  0.1602  0.3037
22108W        W37577  14.863   8.559   1.659 -0.4843  0.2912  0.2941
22109W        W37578  16.711   1.360   3.212 -0.3610  0.0928 -0.3061
22110W        W37579  15.886   0.353  14.100  0.0411 -0.1831 -0.2278
22111W        W37580  12.718   3.277  15.339  0.2385 -0.0154  0.0705
22112W        W37581   0.283   3.638   0.397  0.0516  0.0027 -0.1810
22113W        W37582   4.221  15.910  12.764  0.0761  0.0989  0.2171
22114W        W37583  18.322   7.267  11.433  0.0293  0.0824  0.1664
22115W        W37584   7.942   2.747   0.152  0.4705 -0.2384 -0.2916
22116W        W37585   2.960  11.703   1.352  0.0326  0.0090 -0.1836
22117W        W37586   0.544   4.629  12.109  0.1485 -0.1131  0.2781
22118W        W37587   0.687  17.797  11.987 -0.0771  0.3009 -0.3271
22119W        W37588  15.354  14.926   4.670  0.0966  0.1759 -0.0142
22120W        W37589   9.535   2.972  15.484  0.0393 -0.2287 -0.2433
22121W        W37590  11.882   7.849   2.144 -0.1286 -0.2369 -0.0506
22122W        W37591  18.759   2.676   0.301 -0.0860 -0.0735  0.1248
22123W        W37592   1.849   8.847  14.915 -0.1492  0.1610 -0.1511
22124W        W37593  13.827   1.031  14.909  0.0301  0.0054  0.1974
22125W        W37594  17.673  10.462  13.236 -0.0948  0.0066 -0.0822
22126W        W37595  10.639  18.775   0.247  0.0406  0.0591  0.1147
22127W        W37596   8.863   1.123  14.313  0.1842 -0.2403 -0.1310
22128W        W37597   0.688   6.875  15.675  0.2737 -0.1560  0.1399
22129W        W37598   0.586  11.480  10.998 -0.3857  0.2761 -0.4174
22130W        W37599  17.263  15.423  11.511  0.0464 -0.0418 -0.1801
22131W        W37600   1.062  17.441  11.363  0.0552  0.1952  0.0356
22132W        W37601   4.471  13.202   2.110 -0.1107 -0.1272  0.0407
22133W        W37602   4.549  18.541  13.478 -0.1994 -0.0959 -0.1710
22134W        W37603   2.537  14.313  12.509  0.1503  0.0354 -0.1901
22135W        W37604  12.681   7.656  11.880 -0.1200  0.2289 -0.3949
22136W        W37605  18.540  17.702   1.555  0.3396  0.0613  0.1003
22137W        W37606   7.238   6.396   5.335 -0.2232  0.0790  0.1157
22138W        W37607  12.735   5.995  14.940  0.0940  0.0351 -0.0974
22139W        W37608   7.183   2.706  12.933  0.0023 -0.0016 -0.0928
22140W        W37609  17.237   5.637  15.522 -0.1740  0.1095 -0.0724
22141W        W37610   7.435   2.065  15.649 -0.0992  0.0477 -0.0627
22142W        W37611  10.084  11.289   6.145  0.2231 -0.1700 -0.0359
22143W        W37612  16.139  18.491  14.793  0.1160 -0.2175  0.0470
22144W        W37613  17.913  10.178  14.909  0.1364 -0.0756  0.0203
22145W        W37614   7.075  12.634   0.912  0.0810  0.1882  0.0148
22146W        W37615  14.060   6.036  14.306 -0.4573  0.0710  0.0442
22147W        W37616   7.472   1.106  14.374  0.1636  0.0749 -0.0884
22148W        W37617   5.306   4.556   4.295 -0.0550 -0.0487  0.0899
22149W        W37618  16.907   7.537   4.126  0.2447  0.0469  0.2400
22150W        W37619  17.806  10.018  10.940 -0.2121 -0.0473 -0.0854
22151W        W37620  14.040   6.263  11.708 -0.0192  0.2389  0.0025
22152W        W37621   8.874  11.936  15.211  0.1615  0.0399 -0.0505
22153W        W37622  10.857   3.893  12.106 -0.1116 -0.1025  0.2373
22154W        W37623   2.778  13.474   1.114 -0.0879 -0.0174 -0.0284
22155W        W37624   1.678  11.441   2.530 -0.0683  0.0520 -0.1779
22156W        W37625  18.215   8.138  11.460 -0.0421  0.3856  0.1123
22157W        W37626   0.589   2.793  12.581 -0.2918 -0.1028 -0.0509
22158W        W37627  12.307  12.440   1.661  0.2365 -0.2002  0.0736
22159W        W37628  17.722   8.233  11.511  0.0180 -0.2141 -0.0193
22160W        W37629   9.560  12.966  11.608  0.0298  0.0317 -0.1262
22161W        W37630   2.123  14.967   0.141 -0.0904 -0.3893  0.0320
22162W        W37631   4.814  18.035   1.022 -0.1814 -0.2332 -0.3674
22163W        W37632  11.845  11.593   0.392  0.1769  0.0468  0.1550
22164W        W37633   2.368   6.777   2.442 -0.0005  0.0051 -0.0079
22165W        W37634  14.853   4.642   1.385 -0.1247  0.3450 -0.0827
22166W        W37635  18.150   1.626   4.996 -0.0607  0.1664  0.0349
22167W        W37636   0.169  12.626  11.972  0.2157 -0.0887  0.1254
22168W        W37637   5.261   4.853   3.473  0.2067 -0.2801  0.0351
22169W        W37638   1.100  12.138  12.418  0.1669  0.2541  0.0598
22170W        W37639  13.650  14.571  12.579 -0.3276  0.0253 -0.1173
22171W        W37640  11.772   8.566   0.974 -0.4701  0.2290 -0.0951
22172W        W37641  15.568   4.076   4.670 -0.3758 -0.0447 -0.1962
22173W        W37642  16.236  16.353  12.592  0.4811 -0.0644  0.3777
22174W        W37643  18.706  12.702   0.379  0.0668  0.1968 -0.0247
22175W        W37644   4.447   3.712  10.813 -0.2104  0.1142  0.1247
22176W        W37645   5.511  13.314  13.396 -0.0443  0.3960 -0.0386
22177W        W37646   3.900   8.852  11.067  0.3520 -0.3476 -0.1397
22178W        W37647  12.612   6.720   3.554  0.1873  0.0263 -0.0310
22179W        W37648   0.755  12.827   5.550  0.3176 -0.1455  0.0258
22180W        W37649   4.611  14.642   3.674  0.4493 -0.0552  0.1706
22181W        W37650  12.920   5.721   1.030 -0.1520  0.0295  0.3964
22182W        W37651   9.884   4.463  11.042  0.1601 -0.1588 -0.2741
22183W        W37652   7.119   4.404   1.495 -0.1682 -0.2786  0.2725
22184W        W37653  12.348  16.596  13.949 -0.1382  0.0466  0.0340
22185W        W37654   4.440  16.134   0.193 -0.0140  0.1886  0.1503
22186W        W37655  10.831   4.889  13.023  0.1016 -0.2028 -0.1937
22187W        W37656   4.246  10.902   4.798 -0.1880 -0.0121  0.4384
22188W        W37657   7.042  12.605   1.927 -0.3915 -0.1582  0.1521
22189W        W37658   2.858  15.480   3.199  0.1728 -0.2327 -0.1067
22190W        W37659  17.343   1.386  14.830 -0.1192 -0.0201  0.1648
22191W        W37660  17.708   7.554   0.854  0.2064 -0.2537  0.0232
22192W        W37661   4.517   6.677   3.950  0.0275 -0.0274  0.1073
22193W        W37662  10.907  14.551  11.173  0.1275  0.2310  0.0878
22194W        W37663  13.036   6.436  12.477 -0.1414  0.0560 -0.1443
22195W        W37664   4.624   1.719   5.046 -0.0226 -0.0829  0.0556
22196W        W37665  18.381   3.063   0.025 -0.0712  0.0817  0.3282
22197W        W37666  12.344  10.311   3.182 -0.0873 -0.0560  0.0318
22198W        W37667  13.682   8.914  12.513 -0.0263 -0.1348  0.1511
22199W        W37668  17.962  15.201  15.506  0.0296  0.0012  0.0032
22200W        W37669   9.426  18.036   1.703 -0.0645 -0.0699  0.4337
22201W        W37670   3.149   9.856  10.539 -0.1108 -0.2791 -0.1471
22202W        W37671  17.193  12.735  11.570 -0.1265  0.0558  0.0680
22203W        W37672  17.143  17.042  14.223 -0.0664  0.1988 -0.0054
22204W        W37673   5.621   6.429   0.110  0.3046 -0.1074  0.2107
22205W        W37674   4.769  10.797  11.697 -0.4539  0.5052 -0.2116
22206W        W37675   5.164  17.853   5.326 -0.3342 -0.2700  0.1500
22207W        W37676  13.120  13.224  11.880  0.1422 -0.1464  0.0850
22208W        W37677   5.171   7.635   0.000 -0.0847  0.0762 -0.3471
22209W        W37678  10.130   5.417   4.055 -0.0112 -0.2531  0.4863
22210W        W37679   7.169  11.047  11.809 -0.0763 -0.1927 -0.1078
22211W        W37680  16.578   3.985   1.702 -0.0958  0.1988 -0.0656
22212W        W37681   1.178   5.667  12.114 -0.0434  0.2790 -0.2516
22213W        W37682  14.123  14.319   1.788  0.1163  0.0045 -0.0604
22214W        W37683  17.696   5.030   4.169  0.0332  0.1276  0.0467
22215W        W37684  18.469   1.143  13.047 -0.2492  0.0414 -0.2319
22216W        W37685   8.365  17.211   3.174 -0.1046 -0.0647 -0.0206
22217W        W37686  13.277   0.310   3.062  0.3354  0.0667 -0.1303
22218W        W37687   3.797   4.995   3.045  0.1985 -0.3564  0.1615
22219W        W37688  16.989  17.857  12.630 -0.3798 -0.2767  0.0490
22220W        W37689  16.359  15.738   3.248 -0.0956  0.3351  0.0952
22221W        W37690   7.835   0.159  13.233 -0.2697  0.2572 -0.0440
22222W        W37691  12.964   4.196   0.538 -0.0720  0.0431  0.0939
22223W        W37692  10.205   2.958   4.019  0.0622 -0.0578 -0.1907
22224W        W37693   6.637   2.227  11.246  0.1699 -0.3642  0.2688
22225W        W37694   6.235   1.643  15.436  0.0292  0.2149  0.1999
22226W        W37695  14.047  15.224   3.865 -0.2169 -0.1359  0.2902
22227W        W37696   5.779   0.344  11.075  0.0257 -0.0414 -0.1718
22228W        W37697  15.815  10.232  12.685 -0.3407  0.3965  0.3611
22229W        W37698   0.621  15.101  11.000  0.3393 -0.2496  0.3913
22230W        W37699  12.001  18.484   0.607  0.0680  0.3322  0.0260
22231W        W37700   4.561   4.260   1.942 -0.2110  0.2191  0.2473
22232W        W37701   0.569  14.469   4.519 -0.2149  0.1308 -0.1106
22233W        W37702  12.319  16.425   1.282  0.1551  0.2176  0.1101
22234W        W37703  15.409  16.701   2.272 -0.3683 -0.0482 -0.1545
22235W        W37704   3.359   0.950   4.975  0.3002 -0.1919 -0.0396
22236W        W37705  16.094   7.637   0.396 -0.0289  0.0599 -0.2192
22237W        W37706   1.659  15.024  12.821 -0.1398  0.0104 -0.1670
22238W        W37707  12.269  14.726   5.563 -0.1540 -0.1783  0.2617
22239W        W37708   6.575  12.551   0.944 -0.0946 -0.1848  0.2638
22240W        W37709   8.253   4.803  15.016  0.0926 -0.4469 -0.0814
22241W        W37710  18.255  10.430  10.793  0.0798  0.2434 -0.1302
22242W        W37711   0.675  14.180  12.480 -0.1007  0.0981  0.5727
22243W        W37712   2.343   0.441   3.324 -0.2072 -0.1234 -0.2172
22244W        W37713  12.298   2.128  10.565  0.2095 -0.0289 -0.0238
22245W        W37714   7.052  13.376   3.545 -0.1265 -0.1657 -0.0380
22246W        W37715   5.169   7.304  10.757  0.2573 -0.0602  0.0579
22247W        W37716  13.121  10.754  14.090 -0.0700 -0.2362  0.1441
22248W        W37717   1.518   2.321   0.848  0.4469 -0.1922  0.1061
22249W        W37718   1.965   2.084   4.425  0.1926 -0.1696 -0.4385
22250W        W37719   5.017   9.684   2.292 -0.0285  0.0516 -0.0560
22251W        W37720   8.546  18.774  13.633  0.1162 -0.0065  0.1101
22252W        W37721   8.413   1.274   0.538 -0.0567 -0.0584  0.2942
22253W        W37722   7.145   4.425   0.944 -0.1445  0.2875  0.2833
22254W        W37723  12.165  12.275  13.037 -0.2353  0.0809  0.2582
22255W        W37724  17.945  18.169  10.242  0.4166  0.0525 -0.1044
22256W        W37725  13.566   8.238   4.236 -0.1149 -0.0767  0.1892
22257W        W37726  16.814   9.561  14.231 -0.1550  0.1717 -0.1332
22258W        W37727   2.634  14.429   5.460 -0.2861 -0.0070 -0.0834
22259W        W37728  12.147  13.853  10.061  0.0540  0.4018 -0.0239
22260W        W37729   1.264   4.875  15.497  0.0487  0.3447 -0.1517
22261W        W37730  14.210  12.303  14.971 -0.0386  0.2141 -0.2122
22262W        W37731   9.599   0.947   4.264 -0.0894  0.3775  0.2870
22263W        W37732   0.597  12.619   2.311  0.0672 -0.0010  0.0573
22264W        W37733  18.718   7.346  15.318 -0.0919  0.3040  0.2494
22265W        W37734  14.216  11.773   5.043 -0.2349 -0.1511 -0.1241
22266W        W37735  13.624  12.231  11.985  0.0735  0.3982  0.1327
22267W        W37736   9.640   9.178   4.196 -0.0792 -0.1569 -0.2798
22268W        W37737  13.825  10.403  15.071  0.0336 -0.0095 -0.2480
22269W        W37738   8.605   6.058   3.204 -0.1923  0.1251  0.0333
22270W        W37739  12.753  10.586  14.335 -0.1589  0.0862  0.2632
22271W        W37740   8.055   6.620  10.283 -0.0491 -0.0958 -0.1466
22272W        W37741   1.161  17.060   3.877  0.0421  0.2843 -0.0256
22273W        W37742  10.549   5.417  10.953 -0.1424 -0.0220 -0.1143
22274W        W37743   1.051   0.320  14.997  0.0942 -0.0849 -0.2018
22275W        W37744   2.799   1.039  10.690 -0.0279 -0.0491 -0.0725
22276W        W37745  14.601   2.637   3.287 -0.3845  0.0493  0.2749
22277W        W37746   7.845   2.094   5.142 -0.0384  0.0128 -0.1229
22278W        W37747  16.094   4.748  12.235  0.2654  0.0026 -0.0675
22279W        W37748   4.876  11.625   9.436 -0.0790 -0.0545 -0.0636
22280W        W37749  10.204  12.861   1.527 -0.2881  0.2816 -0.3069
22281W        W37750   1.468   3.617  11.545  0.1885 -0.0769  0.0748
22282W        W37751  10.814   7.403   0.332  0.4077  0.1072  0.0100
22283W        W37752  18.603  17.195   2.492  0.1695 -0.0032 -0.0866
22284W        W37753   3.673  15.434   0.735  0.5076  0.2885 -0.1780
22285W        W37754   9.744   2.018   5.296 -0.0524  0.1904 -0.1876
22286W        W37755   6.107   7.309  15.448 -0.0431 -0.2943 -0.0797
22287W        W37756   4.145  17.591   4.415 -0.1406  0.1096  0.2690
22288W        W37757  16.107  16.729  15.177 -0.1529  0.3463 -0.1096
22289W        W37758  12.291   8.617  12.117  0.1180 -0.2386 -0.1644
22290W        W37759   6.256   8.809  12.955 -0.0004 -0.0417 -0.2859
22291W        W37760  14.260   5.770   2.539  0.0495 -0.0921  0.2143
22292W        W37761   5.034  15.860  11.978  0.0116 -0.0425 -0.2469
22293W        W37762   3.589  10.725   4.218  0.1822 -0.0987  0.0115
22294W        W37763  12.489   7.694  12.391 -0.1119 -0.0483 -0.0422
22295W        W37764  17.765   2.692   0.229  0.0334  0.1993  0.2727
22296W        W37765  14.751  12.800   2.310 -0.1680  0.2893  0.0880
22297W        W37766  18.053  15.637   3.647  0.0351 -0.0016 -0.0372
22298W        W37767   0.570   4.771   4.958  0.0824 -0.0406  0.2161
22299W        W37768   5.540  15.936  11.926  0.1226 -0.0268  0.2329
22300W        W37769   3.853   6.849   5.006 -0.0169 -0.2805 -0.0606
22301W        W37770  12.998  10.950   4.636  0.1510 -0.2261 -0.2307
22302W        W37771   9.795  12.137   3.796  0.2740 -0.1711 -0.1239
22303W        W37772   3.726  18.328  14.095  0.1566  0.0195  0.0492
22304W        W37773   8.124   5.805   5.516  0.5978  0.0367  0.2191
22305W        W37774  12.641   3.104  13.844 -0.1011 -0.0915 -0.2371
22306W        W37775  15.788   5.237   3.794  0.1029 -0.3731 -0.0107
22307W        W37776   4.935   4.723  10.414 -0.3808 -0.2110  0.0536
22308W        W37777  11.737  15.413  13.226  0.0838  0.0701  0.3386
22309W        W37778  14.147   1.633  14.015  0.1512  0.1011 -0.1090
22310W        W37779   8.157  17.651   2.141  0.1781 -0.3824  0.3229
22311W        W37780  16.261  12.971  11.251 -0.1396 -0.3954  0.1554
22312W        W37781   4.671  14.812   2.677  0.3068  0.0320 -0.1174
22313W        W37782   8.681  18.779   1.660 -0.2171  0.0460 -0.0632
22314W        W37783   2.139   9.814   1.677 -0.1959  0.2054 -0.1729
22315W        W37784   9.455  14.490  12.135  0.1986  0.3131  0.1716
22316W        W37785  18.331   2.994  12.119  0.2410 -0.2503  0.1457
22317W        W37786   3.594  14.857   3.493  0.1370 -0.0456  0.1489
22318W        W37787  12.737   8.448  11.323  0.2062 -0.0789 -0.2616
22319W        W37788   4.493   4.022  11.242 -0.0238  0.2022 -0.4396
22320W        W37789  12.123   6.754  15.404  0.3537  0.0065 -0.1083
22321W        W37790   5.058   2.798   3.312  0.0154  0.2549  0.1863
22322W        W37791   5.610  15.507   5.688 -0.4015  0.1284 -0.0912
22323W        W37792   6.225  14.282   0.963  0.2261 -0.1726 -0.0569
22324W        W37793  15.733  17.106  11.666  0.0050  0.3645  0.1258
22325W        W37794   9.694   0.626  11.899 -0.0873  0.0996 -0.2908
22326W        W37795  11.145  11.594   0.752 -0.1085 -0.2859 -0.0902
22327W        W37796  12.847  11.494   5.248 -0.1433 -0.1679 -0.4236
22328W        W37797  15.957  13.488  12.970  0.2658  0.0356 -0.0215
22329W        W37798   7.126  12.300  11.966  0.2593 -0.3108  0.1491
22330W        W37799  11.980  16.389  10.063 -0.1458  0.1888  0.0658
22331W        W37800  15.471   5.469  15.217  0.1903  0.2203  0.1320
22332W        W37801  17.599   3.914   3.466 -0.0517  0.1796  0.0792
22333W        W37802   6.293  16.993   1.954  0.0488  0.2176  0.0658
22334W        W37803   5.266   1.072   1.657  0.1838 -0.0025  0.3639
22335W        W37804  12.349   9.409   3.886 -0.0282 -0.0487  0.0771
22336W        W37805  18.780   8.593   1.463 -0.0951  0.0778 -0.0453
22337W        W37806   5.829  11.099   2.709  0.3232 -0.0436 -0.1005
22338W        W37807   8.317   9.916   0.738 -0.3671 -0.0031  0.0515
22339W        W37808   8.406   5.162   1.423  0.0417  0.0103  0.1128
22340W        W37809   1.097  11.911   5.235  0.0979 -0.1882  0.0643
22341W        W37810  11.457  10.063   2.146  0.0505  0.1415  0.1807
22342W        W37811   0.924  16.398  10.725  0.3680  0.3974 -0.0598
22343W        W37812  13.246   8.444   9.791 -0.1977 -0.3051 -0.0430
22344W        W37813   7.842   1.376   4.031  0.0393 -0.3938  0.0719
22345W        W37814   3.873   8.456  11.855 -0.1190 -0.2283  0.0412
22346W        W37815   0.488   5.503   4.814 -0.0143  0.0907  0.0522
22347W        W37816  17.307   9.991  11.032  0.0784 -0.6163 -0.1428
22348W        W37817  15.492   6.957  15.334 -0.0407 -0.0431  0.2083
22349W        W37818   1.338  15.746  11.427 -0.0149  0.0968  0.2112
22350W        W37819   1.703  13.644   1.142  0.2490  0.0114  0.3355
22351W        W37820   5.752  13.963   0.305  0.3247  0.1393  0.0432
22352W        W37821   6.213   1.677  10.364 -0.1672  0.3551  0.3288
22353W        W37822   2.748  12.522  13.261  0.0966 -0.1728 -0.2767
22354W        W37823   2.896   1.048   4.561 -0.1990 -0.3370 -0.1170
22355W        W37824  12.974   3.882  11.977  0.1485  0.1341 -0.3037
22356W        W37825   3.536  10.094   0.967  0.1918  0.0581  0.1032
22357W        W37826  12.259   0.233   2.003 -0.2025  0.1281  0.0778
22358W        W37827   3.347  17.214  13.465  0.0173  0.0208 -0.3884
22359W        W37828  17.385   0.911  12.039  0.0087  0.1278  0.3090
22360W        W37829   8.229   9.172  12.113 -0.1229 -0.0124 -0.1876
22361W        W37830   5.890  13.134   1.212 -0.0662 -0.3299  0.1693
22362W        W37831   1.009  11.397  14.123 -0.0902  0.0674  0.0728
22363W        W37832  11.855   3.732  14.697 -0.2326 -0.0501  0.0591
22364W        W37833  13.724  12.092   3.748 -0.5876  0.1001 -0.2152
22365W        W37834  16.805  10.127   3.709  0.2283 -0.2049  0.2031
22366W        W37835   7.613   5.283  11.386  0.2114 -0.0410  0.0839
22367W        W37836  13.314  15.878   1.937 -0.2051 -0.1422  0.0194
22368W        W37837   6.864  14.729  13.763 -0.0250 -0.1874 -0.2439
22369W        W37838  17.295  11.695  12.840  0.1402  0.2586 -0.0360
22370W        W37839  14.698   1.293  15.470 -0.0171  0.1218  0.0307
22371W        W37840  12.351   5.777  14.655  0.0822 -0.0826 -0.0643
22372W        W37841   6.206  13.650  12.731  0.1060 -0.2686 -0.2470
22373W        W37842   5.843   0.213   4.499  0.0042 -0.2396  0.2107
22374W        W37843  17.794  12.687   2.765 -0.0826 -0.0200 -0.1271
22375W        W37844  13.968  14.642   3.080  0.0294  0.1055  0.0444
22376W        W37845   6.439  17.755  11.577  0.0055  0.0362  0.0346
22377W        W37846  18.756   1.361   5.717 -0.1488  0.1342  0.0954
22378W        W37847   9.222  16.398   3.515 -0.3530 -0.0542 -0.1262
22379W        W37848  14.764   8.461   5.726  0.0782 -0.1757 -0.0275
22380W        W37849   8.406  13.018  10.855  0.1203 -0.0784 -0.1098
22381W        W37850  10.736  17.512  11.110  0.0620  0.1977  0.1255
22382W        W37851  18.637  18.199  12.194  0.0709 -0.3869  0.0747
22383W        W37852   3.533   2.773  10.121  0.0481 -0.0059 -0.2857
22384W        W37853  17.062  16.893  12.824 -0.1016 -0.0117 -0.1458
22385W        W37854  17.011  12.032  13.076  0.1899 -0.1291  0.2506
22386W        W37855  16.852  16.800   1.897  0.0020 -0.0964  0.0669
22387W        W37856  18.511   7.788  14.482  0.2169  0.0246 -0.1725
22388W        W37857  15.203  13.857   3.833 -0.2320  0.1516  0.0308
22389W        W37858  16.510   2.571  13.511 -0.0714 -0.2211 -0.3173
22390W        W37859  10.512  13.381   3.935 -0.3324  0.1929  0.3248
22391W        W37860   3.485   0.061   3.881  0.0176  0.1525 -0.0941
22392W        W37861  11.494   2.546  10.919  0.1597 -0.0017  0.2501
22393W        W37862  18.368  18.343  13.018  0.1680 -0.1137  0.0854
22394W        W37863   3.772  15.045   2.487 -0.0211 -0.5285  0.1694
22395W        W37864  10.147   2.146   2.338  0.1588  0.1638 -0.1359
22396W        W37865  10.204   2.650   1.520 -0.4116 -0.1448  0.4316
22397W        W37866   0.411  12.153  13.738 -0.0631  0.3709 -0.1098
22398W        W37867   8.711   5.371  11.958 -0.1374 -0.0737  0.1930
22399W        W37868  11.974   3.897   3.408  0.1094  0.4325 -0.5081
22400W        W37869  10.708   5.701  12.287  0.0790  0.1726 -0.1024
22401W        W37870   6.310  11.935   3.742 -0.0789 -0.0880  0.0020
22402W        W37871   6.460   8.611   3.685  0.6170  0.1262 -0.1659
22403W        W37872  10.559  10.134   3.975 -0.0992  0.5278  0.0101
22404W        W37873  11.230  14.371  13.196  0.1796  0.1931  0.1591
22405W        W37874   0.833   1.771   4.473  0.0283  0.5186  0.0350
22406W        W37875  17.827  11.072   2.133  0.0480  0.4506 -0.0564
22407W        W37876  18.752   5.620   0.011 -0.0227  0.2279  0.1364
22408W        W37877  13.903   6.647   5.854 -0.3131  0.0131 -0.2142
22409W        W37878  17.258   8.869  12.230 -0.2412 -0.2088 -0.1556
22410W        W37879  18.145  11.034   2.803  0.2262  0.2501  0.2733
22411W        W37880  13.273  15.759  15.659 -0.0834 -0.0405  0.0710
22412W        W37881   5.156  16.398  12.564 -0.2795  0.0478 -0.1343
22413W        W37882   0.324   7.414   4.969 -0.0164  0.2437  0.1066
22414W        W37883   1.665   0.188  11.681 -0.0625  0.1259  0.1774
22415W        W37884   8.442   4.197  11.023  0.0445  0.1429  0.0532
22416W        W37885   1.782  13.925  13.167  0.0827 -0.0660  0.0245
22417W        W37886   3.548  16.475  10.155  0.1622 -0.3493  0.0719
22418W        W37887  14.884   7.427   5.821  0.1280  0.1486 -0.0025
22419W        W37888  10.889   5.277   4.733 -0.0433  0.3766 -0.3524
22420W        W37889  17.096  11.446   5.188 -0.2369  0.1538  0.0612
22421W        W37890   3.350   8.303  14.802  0.1716 -0.0962  0.1466
22422W        W37891  13.432   2.432  12.943 -0.0014  0.0533  0.1110
22423W        W37892  10.109  15.787   1.224 -0.2744 -0.3079  0.2774
22424W        W37893   1.158   8.142   1.457 -0.1430 -0.0276  0.1150
22425W        W37894   1.597  14.251   0.417 -0.2148  0.1848  0.0212
22426W        W37895   8.685   2.543  14.992 -0.1748 -0.3229 -0.0199
22427W        W37896   5.470  13.167  13.859  0.1772 -0.0476 -0.1334
22428W        W37897   6.659  17.313  14.551 -0.3761 -0.0285  0.3822
22429W        W37898   4.275   3.836   2.111  0.0338  0.0473 -0.3031
22430W        W37899  17.241   3.801  13.900 -0.1813  0.1696 -0.0373
22431W        W37900  15.603   7.912   4.422 -0.4327  0.0807  0.1264
22432W        W37901  10.093   2.115   1.008  0.1696  0.1236 -0.0167
22433W        W37902  16.722   1.397  10.698 -0.1873  0.1261 -0.1834
22434W        W37903  11.393  13.598   2.834 -0.1945  0.0531  0.1800
22435W        W37904   2.452   6.353  13.122 -0.1829 -0.0390 -0.0894
22436W        W37905   7.363   2.904   2.404  0.1492  0.0159 -0.0664
22437W        W37906   0.759   2.372   4.721 -0.0082  0.3172  0.0573
22438W        W37907  14.199   5.276   4.789  0.1949 -0.1167 -0.0775
22439W        W37908  17.853   4.040   0.950 -0.2347 -0.0407 -0.0132
22440W        W37909   0.358   2.384  12.778 -0.0769  0.0612 -0.3854
22441W        W37910   8.025   9.167   3.076  0.2914  0.0437 -0.0992
22442W        W37911   3.463   3.712   9.832 -0.1295 -0.0286  0.2941
22443W        W37912   8.537  15.299  11.302 -0.1506  0.1347  0.1468
22444W        W37913   1.713   6.737  13.250  0.4811 -0.0944 -0.2613
22445W        W37914   6.439  16.081   1.764  0.0397 -0.2097 -0.3567
22446W        W37915  14.493   8.191   3.138  0.2280  0.0473  0.0222
22447W        W37916   1.753   1.568   4.622 -0.0375 -0.1615  0.2578
22448W        W37917   8.930  15.256   5.520 -0.0215  0.2208 -0.0515
22449W        W37918  12.644  11.196   1.002 -0.1029  0.2684  0.1513
22450W        W37919   7.407  14.541   4.783  0.0657 -0.4101 -0.2266
22451W        W37920   7.071   7.210   9.943  0.0396 -0.0029 -0.0643
22452W        W37921   4.941  15.039   0.753  0.1156 -0.2297 -0.0765
22453W        W37922  12.108   7.538   1.039 -0.0266  0.1624 -0.1381
22454W        W37923   4.833   7.929   4.952  0.0043  0.1369  0.0673
22455W        W37924   4.025  16.742   4.919  0.2718  0.2768  0.0413
22456W        W37925  14.895  17.721   4.329 -0.2592 -0.2972 -0.5554
22457W        W37926  13.492  11.547   1.475 -0.1597  0.2477 -0.2413
22458W        W37927   2.800   3.024  13.557  0.1200  0.1515 -0.2002
22459W        W37928  12.805   3.363   1.828 -0.1486  0.1691 -0.3725
22460W        W37929  10.445   4.681  15.183 -0.1553 -0.4683 -0.0207
22461W        W37930   6.716  14.954   3.205  0.0888  0.3683  0.0868
22462W        W37931   6.848   0.770   4.470 -0.0394  0.1985 -0.1866
22463W        W37932   0.173  14.798  13.453 -0.1472 -0.0852  0.1097
22464W        W37933  11.599  10.539   5.838 -0.1019  0.2142  0.1658
22465W        W37934   9.154   2.124  15.669 -0.0723  0.2685 -0.0164
22466W        W37935  15.878   4.739   2.755  0.0845 -0.1489  0.1058
22467W        W37936   0.489  15.475   4.237 -0.0716  0.1513 -0.2188
22468W        W37937   3.061  11.856   0.787  0.1365 -0.2052  0.1331
22469W        W37938  13.582  14.709   2.677  0.0907 -0.0620 -0.1048
22470W        W37939   0.500   9.792  11.506  0.1429 -0.2706 -0.0075
22471W        W37940  13.719  15.339  13.187  0.0288 -0.1128  0.0009
22472W        W37941  13.743  14.234   3.772  0.2088  0.0719  0.1380
22473W        W37942   0.283  10.148  11.149 -0.3920 -0.3390  0.1255
22474W        W37943  16.046   9.889  11.721  0.1312 -0.0211  0.2889
22475W        W37944  13.816  18.713   1.171  0.1347 -0.3085  0.0012
22476W        W37945  10.106  18.280  15.317 -0.1224  0.0603  0.1245
22477W        W37946   6.829  12.509  11.412 -0.0601 -0.0850  0.0572
22478W        W37947  17.361  18.653   1.917  0.2345  0.1339  0.0586
22479W        W37948   6.240   3.620   3.602 -0.0149  0.1487 -0.0813
22480W        W37949  16.911  18.486  14.881 -0.0239  0.0693 -0.1253
22481W        W37950   0.401  11.053  10.166 -0.2229  0.1151 -0.1396
22482W        W37951   4.462   3.469   0.821  0.0624 -0.0398 -0.5083
22483W        W37952  13.736   8.471  10.681 -0.0158 -0.0758  0.0215
22484W        W37953   1.505   5.927   9.906 -0.0246 -0.0721 -0.1039
22485W        W37954  17.537   0.365  12.335 -0.0481  0.1266 -0.0261
22486W        W37955   6.763   3.384   3.677  0.2618  0.3383 -0.0851
22487W        W37956  10.770  12.004  10.091  0.1286  0.0168 -0.2332
22488W        W37957   6.664   6.676   4.197 -0.2158  0.0180 -0.0665
22489W        W37958   1.556   4.599   4.106  0.0075  0.2145  0.1502
22490W        W37959   2.912  16.980  13.494 -0.1550  0.1819 -0.1201
22491W        W37960   0.409   6.133  12.479 -0.4540 -0.3480  0.0324
22492W        W37961   5.321   2.046  14.237 -0.0568  0.0376  0.0516
22493W        W37962  12.806  10.826   1.347  0.0614 -0.0237 -0.1867
22494W        W37963  12.128   4.441   0.170  0.0790 -0.0049  0.0863
22495W        W37964   2.026   3.140   3.994  0.0827  0.0437 -0.1359
22496W        W37965   5.898   8.668   4.522 -0.1073  0.2261 -0.0478
22497W        W37966  12.038  17.789   3.876  0.1492  0.0530 -0.0588
22498W        W37967   4.397   2.619   4.975 -0.1893 -0.1059  0.1431
22499W        W37968   2.990   0.569   2.798 -0.3517  0.3856  0.0924
22500W        W37969  18.008  13.323  15.256 -0.0672 -0.1930  0.0967
22501W        W37970   0.945   1.795  15.325 -0.1830 -0.0940  0.1110
22502W        W37971  12.908  18.263   4.676 -0.1193 -0.1632 -0.0190
22503W        W37972   3.121   8.961  15.352  0.0316  0.3362  0.2370
22504W        W37973   8.993   0.129   3.277  0.0522 -0.0068 -0.0466
22505W        W37974   1.366   1.576  11.641  0.2408  0.0834 -0.0833
22506W        W37975  18.341   0.968  11.509 -0.2969  0.0050 -0.2199
22507W        W37976   9.714   4.172  13.718 -0.0234 -0.0606  0.3453
22508W        W37977  13.308  13.148   9.908  0.1485  0.0397 -0.2756
22509W        W37978  13.177   5.519   2.633  0.1384 -0.0643  0.2173
22510W        W37979   9.713  17.943  11.266  0.0704 -0.0248 -0.1912
22511W        W37980  10.435  16.694  15.148  0.1521  0.0672  0.0252
22512W        W37981   5.975  11.740   3.448  0.3542  0.1215 -0.2945
22513W        W37982   7.212  12.581   3.520  0.3209 -0.0714  0.1048
22514W        W37983  14.890   1.981  13.146  0.1449  0.0487  0.1845
22515W        W37984  15.529  10.908   2.909  0.0721  0.2902 -0.1136
22516W        W37985  13.478  12.151  12.416 -0.2796  0.0179 -0.2178
22517W        W37986  13.048  18.522   3.271 -0.1432  0.0312  0.0404
22518W        W37987  11.908  13.005  15.532 -0.1658  0.1579 -0.2862
22519W        W37988   4.564  15.422  15.018  0.0613  0.1149  0.1453
22520W        W37989  14.834   1.547  11.362 -0.1403 -0.1126 -0.0029
22521W        W37990   4.905  14.447  11.729  0.1839 -0.3116 -0.0693
22522W        W37991   7.793  18.208   1.617 -0.1966  0.0462  0.3432
22523W        W37992  13.410   0.621  10.462 -0.3101  0.4296  0.0957
22524W        W37993  10.398   6.878  12.193 -0.1209 -0.1441  0.2116
22525W        W37994  11.429  16.545  11.015  0.1097 -0.1937 -0.2110
22526W        W37995   3.442   1.441   5.133  0.4332  0.1054 -0.1279
22527W        W37996   8.326   6.326  14.735 -0.0267  0.3602  0.2401
22528W        W37997  16.280   2.171   1.713  0.3192  0.3540  0.0050
22529W        W37998   1.809  11.649   1.505 -0.2482 -0.1571 -0.0991
22530W        W37999   2.531   3.730   4.596 -0.0254 -0.1027 -0.0804
22531W        W38000   2.417  17.233  14.889  0.0321  0.2451  0.0515
22532W        W38001  10.718   3.987   2.152 -0.0252  0.0061 -0.1995
22533W        W38002  13.390  14.468  14.708 -0.0863 -0.1342 -0.1063
22534W        W38003   4.603   9.408   9.485 -0.2766 -0.1970 -0.1349
22535W        W38004  18.367  14.847  12.092  0.2503  0.0109  0.1426
22536W        W38005   0.796   7.822  11.703  0.1755  0.1293  0.3318
22537W        W38006  15.073  12.019   0.867 -0.3522 -0.2511  0.1221
22538W        W38007  13.587  18.545   3.407  0.2507  0.1532 -0.2337
22539W        W38008   5.786   9.863   3.289 -0.1753 -0.1882  0.0929
22540W        W38009  17.259  15.402   3.999  0.1102  0.0330 -0.0566
22541W        W38010  16.788  17.554  14.423  0.2217 -0.0746  0.1270
22542W        W38011  15.069  17.544   1.448 -0.3057  0.2941 -0.4471
22543W        W38012  12.692   4.309   3.230 -0.2208 -0.1093  0.0358
22544W        W38013   3.160   0.530   5.458 -0.0715  0.3213 -0.0934
22545W        W38014  14.823  11.981   6.370 -0.0949  0.5244 -0.3543
22546W        W38015  10.083   4.380  12.165 -0.1531 -0.1047  0.0930
22547W        W38016   7.764   0.731  15.058  0.4338  0.2778  0.0452
22548W        W38017  16.688   5.617  15.585  0.0032 -0.2380  0.0592
22549W        W38018   2.364  16.422   4.162 -0.0766  0.1587 -0.0458
22550W        W38019  11.859   5.801  15.202 -0.0663  0.1388 -0.2985
22551W        W38020  12.845  17.094  15.412  0.4072  0.0210 -0.1884
22552W        W38021  11.245   8.835   0.196 -0.2671  0.0378 -0.0021
22553W        W38022   8.099   4.886   3.609  0.0652  0.0395 -0.2512
22554W        W38023  18.699   8.742   3.764 -0.0828 -0.0425  0.1424
22555W        W38024  13.196   7.939   1.630  0.2053  0.3184  0.0149
22556W        W38025  14.076  12.517   3.505 -0.0087  0.3900 -0.3278
22557W        W38026   1.966   3.361  14.929 -0.1665 -0.1702  0.1160
22558W        W38027   2.774   6.771  12.835 -0.3502 -0.2886  0.0259
22559W        W38028   5.211  15.072  13.959 -0.1772 -0.0230 -0.2932
22560W        W38029   1.907   0.136   2.081  0.3531  0.1602  0.2760
22561W        W38030  10.220   2.993  15.470  0.0642 -0.0587 -0.4054
22562W        W38031   4.577   8.251  14.155  0.0548 -0.2053 -0.3536
22563W        W38032   7.966  18.711   0.457  0.0156 -0.1740  0.0595
22564W        W38033  11.058  16.010   1.019  0.1470  0.1822  0.2097
22565W        W38034   5.489   6.540   0.625 -0.2490  0.1710 -0.2065
22566W        W38035   0.880   1.768  14.317  0.0220 -0.1497 -0.0218
22567W        W38036  13.222  12.071  15.119  0.0643  0.1075  0.0748
22568W        W38037   0.720   3.599   5.419 -0.1852 -0.1852  0.0963
22569W        W38038   2.198  16.900   1.374  0.0583  0.1566 -0.1669
22570W        W38039  11.307   5.293  13.984  0.1873 -0.0185  0.2069
22571W        W38040  17.078   2.729   2.094  0.4489 -0.0425  0.2160
22572W        W38041   6.416  12.071  15.367 -0.1498 -0.2160  0.0950
22573W        W38042  17.897  11.397   4.138 -0.0992  0.2014 -0.0787
22574W        W38043   0.935  15.026   5.634 -0.0162  0.1825  0.0853
22575W        W38044  11.080  10.059   5.410 -0.2759 -0.3401  0.2856
22576W        W38045   0.671  11.880  14.182  0.2389  0.0631 -0.1281
22577W        W38046   9.634  17.042   4.603 -0.0463 -0.2561 -0.0293
22578W        W38047  17.649  15.321  13.130  0.2314  0.1272  0.0405
22579W        W38048  13.689   6.288  14.078 -0.0177  0.2275  0.1594
22580W        W38049   8.085   7.973  11.980  0.1235 -0.1922  0.0480
22581W        W38050   7.226  16.796  11.219 -0.2305  0.2569  0.1236
22582W        W38051  12.790   6.303   4.740 -0.0779  0.0730 -0.0886
22583W        W38052  11.484  13.434   1.555 -0.0379 -0.0146  0.0347
22584W        W38053  10.122   0.008  10.383 -0.3127  0.3069  0.0566
22585W        W38054   4.640   6.017  10.022  0.2017 -0.1985 -0.0941
22586W        W38055   6.247   4.998   3.163 -0.0434  0.3399  0.3378
22587W        W38056   3.318   7.829   2.587 -0.0718 -0.0361  0.1816
22588W        W38057   1.392   7.118  15.396  0.0473 -0.1997 -0.0807
22589W        W38058  17.529  15.659  15.228  0.4250  0.2260 -0.1883
22590W        W38059  16.750   4.839   2.961  0.0258 -0.1885 -0.1977
22591W        W38060   7.803  10.677  14.325  0.2928 -0.1610  0.1462
22592W        W38061   3.976  12.659   1.865  0.2161 -0.0198 -0.2564
22593W        W38062   4.386   0.608   5.701  0.1154  0.2917 -0.3304
22594W        W38063   6.619   5.177   5.957  0.0497  0.3957 -0.2089
22595W        W38064   0.699   2.943   2.511 -0.2515 -0.0868  0.1317
22596W        W38065   9.747   3.295  13.852  0.3186 -0.2944  0.0741
22597W        W38066  18.555  14.545  15.088  0.0301 -0.4561 -0.0951
22598W        W38067  18.593   8.953  10.306 -0.0871 -0.0741 -0.0632
22599W        W38068   1.197   2.458  11.354  0.1578 -0.2834  0.0570
22600W        W38069  12.899  17.896  11.040 -0.0313 -0.0047  0.0083
22601W        W38070   7.243   0.308  11.271  0.3127 -0.1457 -0.0731
22602W        W38071  11.774  15.751   3.264  0.0772 -0.1767 -0.3321
22603W        W38072   0.046  17.833   4.086 -0.3186 -0.1879  0.1252
22604W        W38073  11.915  15.401   1.297  0.0526  0.0238  0.1409
22605W        W38074  17.036  15.649   1.349  0.0274  0.2985 -0.1354
22606W        W38075  11.290   3.227   3.975 -0.1012  0.1751  0.0932
22607W        W38076  15.244  15.912  14.323 -0.0680  0.3856 -0.1282
22608W        W38077   1.770   0.374   4.864  0.0107  0.0738 -0.0277
22609W        W38078   7.167  13.674  12.773 -0.0730 -0.2496  0.1594
22610W        W38079   9.949   4.987   1.050 -0.0418  0.1531  0.0991
22611W        W38080  15.743   9.299   3.771  0.1242  0.2407 -0.2525
22612W        W38081   1.468  17.985  13.242 -0.3522 -0.0952  0.2207
22613W        W38082  11.876  14.482   4.720 -0.4129 -0.3691 -0.1071
22614W        W38083   7.899   9.281  11.435  0.3392  0.1012  0.1391
22615W        W38084  11.760   2.400   3.051 -0.2984  0.0644 -0.2940
22616W        W38085   2.135  10.826   3.262  0.0951 -0.1729 -0.2736
22617W        W38086   4.140  15.845   1.398  0.0442 -0.0375 -0.4440
22618W        W38087   0.123   9.597   1.425 -0.1947  0.3694  0.0981
22619W        W38088   2.061   0.982  12.697  0.1644  0.1389 -0.0658
22620W        W38089   3.667   9.737  10.616 -0.0221  0.1738  0.1867
22621W        W38090   1.420   6.924  10.850 -0.0203 -0.2280  0.0542
22622W        W38091   2.704   4.643   1.133 -0.2402 -0.1179 -0.0121
22623W        W38092  12.847  11.932   0.353  0.1506  0.0067 -0.1712
22624W        W38093  16.705  18.754   5.099  0.0259  0.2947  0.1077
22625W        W38094  16.704   7.463   3.091 -0.2462  0.4112  0.3209
22626W        W38095  15.381  15.865  15.275 -0.3435  0.3499 -0.0600
22627W        W38096  12.398   4.108   1.082  0.1656  0.0430  0.2946
22628W        W38097  18.079   3.511  12.847  0.2774  0.0029 -0.1681
22629W        W38098   3.049   4.145  15.163 -0.0408  0.2048 -0.2810
22630W        W38099   3.684  15.641  14.948 -0.0100  0.2247  0.0592
22631W        W38100   0.983   5.538   4.904  0.1729  0.3669  0.0898
22632W        W38101   8.969   3.627   3.493  0.0734 -0.0343  0.0561
22633W        W38102   3.766   3.205   2.881 -0.0290 -0.1647  0.3198
22634W        W38103   2.124   9.144  14.053 -0.1414  0.1285 -0.0740
22635W        W38104   6.250  17.307   2.781  0.3369  0.0335 -0.2698
22636W        W38105  12.502   7.036   0.487  0.1225  0.0289 -0.0617
22637W        W38106   7.222  12.684  12.939 -0.1282 -0.0932  0.0851
22638W        W38107  11.886  12.094   0.285  0.0986 -0.1523  0.1834
22639W        W38108  13.703   5.002  10.160  0.0183  0.1808 -0.3161
22640W        W38109  12.455  13.880  12.261  0.0448  0.0105  0.1837
22641W        W38110  14.619   8.692  14.936  0.0003  0.3413 -0.3549
22642W        W38111   5.706   2.141   2.152  0.1946 -0.0455  0.1313
22643W        W38112  17.565  17.765   4.845  0.4363  0.0286 -0.1468
22644W        W38113  16.123   0.222  14.564 -0.1234 -0.2268  0.0701
22645W        W38114   6.403  15.767   2.840  0.0937  0.1311 -0.2445
22646W        W38115  12.149   2.256   2.683  0.0919 -0.3073 -0.0956
22647W        W38116   5.234   5.349  11.038 -0.1690 -0.3587 -0.0017
22648W        W38117   3.317  11.679  13.186  0.2511 -0.1012  0.0061
22649W        W38118   3.282   8.959  14.137  0.1568  0.0766 -0.1806
22650W        W38119  13.730  11.908   4.909 -0.0311 -0.0312 -0.0895
22651W        W38120  10.022   4.033   2.822  0.3244  0.1456  0.0592
22652W        W38121   6.270  11.912  10.609  0.3337 -0.2486  0.0624
22653W        W38122   5.804  10.358   0.994  0.0385 -0.2220 -0.2464
22654W        W38123  10.161  14.316   3.260 -0.0444 -0.0035  0.0767
22655W        W38124   1.713   0.574  12.409  0.1262  0.2019 -0.3101
22656W        W38125  10.666   3.917   3.544  0.3104  0.0772 -0.0181
22657W        W38126   5.977  15.369  13.338 -0.0815  0.1251  0.0246
22658W        W38127  17.849   0.150  14.172 -0.0336 -0.0178 -0.0700
22659W        W38128   9.220  18.768   1.571  0.1340 -0.0445 -0.0302
22660W        W38129  10.197  12.626  15.351  0.2400 -0.2486  0.2861
22661W        W38130   7.497  18.564  14.436 -0.0877 -0.0856 -0.0855
22662W        W38131  16.720   6.308  13.259 -0.2004 -0.4017  0.3817
22663W        W38132   9.069   1.893   3.382  0.3277 -0.1592 -0.0480
22664W        W38133   5.613  18.183   4.182 -0.0417  0.2674 -0.1665
22665W        W38134  16.812   0.811  14.238 -0.0372  0.3276  0.1196
22666W        W38135   0.415   5.407   0.241  0.2514 -0.3569 -0.1994
22667W        W38136   5.236  12.743   4.459 -0.1795 -0.2217  0.3173
22668W        W38137   1.809   0.383  15.352 -0.1474 -0.1366 -0.0014
22669W        W38138  15.802   5.434   0.122 -0.0499  0.1413 -0.1421
22670W        W38139  11.386   0.709   5.134  0.0364  0.2217  0.1103
22671W        W38140  13.775   2.521   4.930  0.1185 -0.0905  0.3453
22672W        W38141   8.519  16.229  11.832  0.0481  0.2025 -0.1195
22673W        W38142  12.327   7.157   3.457 -0.2437  0.0755 -0.1117
22674W        W38143  10.583  10.010   0.488 -0.2023  0.1058 -0.1108
22675W        W38144  16.380   8.187  12.856 -0.0613 -0.3043 -0.5323
22676W        W38145  13.155  10.132  13.998  0.3959 -0.0143  0.1219
22677W        W38146  11.411   3.040  11.144  0.2031  0.1874 -0.1319
22678W        W38147  15.284   7.643   5.644 -0.2574  0.0608  0.1203
22679W        W38148  15.773  10.969   6.403  0.0760 -0.1117 -0.1050
22680W        W38149  16.306  14.953  12.693 -0.1580  0.1057 -0.1268
22681W        W38150   0.146   9.305   4.174 -0.0418 -0.3154 -0.0416
22682W        W38151   7.417   1.196  10.914  0.1212  0.3044  0.0008
22683W        W38152   7.473   8.647  13.410 -0.4188  0.3184 -0.2332
22684W        W38153  13.454   5.051  11.733  0.0777  0.2378  0.0893
22685W        W38154  10.351   8.274   0.354  0.2029  0.3347  0.2002
22686W        W38155   9.311   4.011   5.524 -0.1087 -0.2142  0.4932
22687W        W38156   4.927  13.155   4.653 -0.1019  0.3283  0.0047
22688W        W38157   4.822  11.536   5.156  0.1786 -0.0513  0.1790
22689W        W38158  12.274  11.833  10.951  0.0416  0.2252  0.0500
22690W        W38159   7.166  10.221  12.291 -0.0017  0.1831  0.0872
22691W        W38160  12.668  14.409  11.673 -0.2836 -0.0061  0.2592
22692W        W38161   7.812   0.116   5.269  0.1097  0.0295  0.2237
22693W        W38162   2.266   0.337  13.185 -0.1492  0.0472  0.0249
22694W        W38163   4.259  15.183  15.621 -0.0044  0.1424 -0.2027
22695W        W38164   4.960   8.394  13.664 -0.1592 -0.0598  0.2108
22696W        W38165  14.696  18.181   4.758  0.2157  0.1337  0.2302
22697W        W38166  11.573   6.837  13.949  0.0678  0.2768 -0.1065
22698W        W38167   2.619  16.898   3.859  0.0914 -0.0586  0.3061
22699W        W38168  11.027   7.032   5.440 -0.3304 -0.0944 -0.0935
22700W        W38169  16.196  15.035   0.752 -0.0302 -0.1837  0.0411
22701W        W38170   0.125  11.018   1.182  0.0190 -0.2631 -0.2167
22702W        W38171  17.437  15.401  14.793 -0.3524 -0.1046 -0.4983
22703W        W38172   4.817   3.649  14.750 -0.0471 -0.3158 -0.1475
22704W        W38173   9.040   6.410   3.147 -0.1411  0.1316  0.0581
22705W        W38174  10.239  16.259   0.956  0.0623 -0.0456  0.2238
22706W        W38175   9.766   7.558   2.543 -0.0997  0.1670  0.0130
22707W        W38176   7.394  13.158  11.046 -0.0294 -0.0307  0.1558
22708W        W38177  16.075  10.297   5.521 -0.0804 -0.0665  0.0665
22709W        W38178  10.358  17.882   3.287 -0.1006 -0.2510 -0.0746
22710W        W38179  13.447  18.578   2.905 -0.0080  0.2772 -0.4931
22711W        W38180   5.051   4.750   2.482  0.0757  0.0809 -0.3067
22712W        W38181  12.895   1.397   4.643 -0.0388 -0.2928 -0.0970
22713W        W38182   9.655  12.801   4.531  0.0753 -0.2492 -0.0246
22714W        W38183   6.941  11.504  11.799  0.0447 -0.3253  0.2106
22715W        W38184   6.510   1.323   1.777 -0.2066  0.0852 -0.0752
22716W        W38185  15.753   4.741  13.292 -0.4048  0.0152  0.1336
22717W        W38186   0.965   7.467   5.866  0.2109 -0.1616  0.3375
22718W        W38187  16.691  18.366   5.419 -0.3473  0.0495 -0.0444
22719W        W38188   0.946  13.743  12.063  0.1285 -0.3729 -0.1708
22720W        W38189   9.923   9.533   1.892  0.2291 -0.0079 -0.0745
22721W        W38190   8.352   9.918  10.185 -0.0292  0.0134 -0.0181
22722W        W38191  18.070   9.443   4.004 -0.0889 -0.4605 -0.2998
22723W        W38192  14.415   7.169   1.353 -0.2780  0.4185 -0.0240
22724W        W38193   7.308   4.971  14.060 -0.1080  0.0695  0.0053
22725W        W38194  14.315  16.468   3.056  0.1671  0.2557 -0.0322
22726W        W38195   4.975   0.487   5.048  0.0119  0.1818  0.1321
22727W        W38196  13.232  16.934  15.187  0.0852  0.1397  0.1182
22728W        W38197   6.054   9.058   0.875  0.0011 -0.0452  0.0728
22729W        W38198   3.027  15.945  13.561 -0.0040 -0.3968  0.2176
22730W        W38199   9.597   9.670   2.286 -0.0211  0.0448 -0.1482
22731W        W38200  17.306   1.128   5.217 -0.2380  0.3285 -0.1027
22732W        W38201  10.958  12.137   0.420  0.1414  0.2791 -0.0586
22733W        W38202   1.230  15.748  12.490  0.0676 -0.0202  0.1305
22734W        W38203   3.302  12.247   1.300 -0.1100  0.0257 -0.4994
22735W        W38204   6.735  18.204   1.089 -0.0522  0.1184 -0.0351
22736W        W38205  13.508   4.116  10.823  0.0159 -0.3330  0.1822
22737W        W38206   5.150   4.554   0.293 -0.0460 -0.1359 -0.2024
22738W        W38207   5.616  17.010   5.108 -0.0927 -0.0185 -0.1873
22739W        W38208   9.901   7.783  11.852 -0.0016 -0.0464 -0.1083
22740W        W38209  17.397  11.596  15.117  0.2213  0.0228 -0.0288
22741W        W38210  16.156   3.327   5.021  0.1089 -0.3891 -0.1364
22742W        W38211  12.938   6.107   3.315  0.1903  0.0004 -0.2344
22743W        W38212  18.429   0.757   4.719  0.2783 -0.0346 -0.0926
22744W        W38213   8.760  14.988   4.454  0.1141 -0.0285  0.1306
22745W        W38214   0.183   4.768   1.946 -0.1717  0.1253  0.0213
22746W        W38215   5.159   1.766  12.502 -0.0184 -0.2518 -0.4076
22747W        W38216   9.078  15.475   3.430 -0.1980  0.1542 -0.2277
22748W        W38217   6.441   5.847   1.302  0.0144 -0.0619 -0.1075
22749W        W38218   8.158   9.856   1.806 -0.1177  0.0009 -0.2569
22750W        W38219   9.857  18.453   1.597  0.4323 -0.0717  0.0947
22751W        W38220  12.331  17.523  11.692 -0.1919 -0.1670 -0.0331
22752W        W38221  12.769   7.350   2.790 -0.0228  0.2311  0.3125
22753W        W38222  10.382   5.998  11.964 -0.2700 -0.1511 -0.0523
22754W        W38223  12.952  12.609   0.639  0.0284 -0.0574 -0.2646
22755W        W38224   3.790  16.578  13.790 -0.0189  0.2595 -0.0581
22756W        W38225   2.473   4.757   3.615  0.2185  0.1373 -0.2745
22757W        W38226   4.890   3.872   2.045  0.1591  0.2427 -0.2828
22758W        W38227  16.772  10.292  12.711 -0.1649 -0.1272 -0.1067
22759W        W38228   2.123   0.251   5.644 -0.3224 -0.3028 -0.0378
22760W        W38229   4.073  15.824  11.002  0.1612 -0.1540 -0.0782
22761W        W38230   4.755   2.705   2.929  0.1584 -0.2617 -0.1047
22762W        W38231   3.358   0.730   1.753 -0.2078  0.2624 -0.0842
22763W        W38232  10.979  17.033  11.987  0.2981  0.1502  0.0099
22764W        W38233   3.423  17.046   2.096 -0.0905 -0.0233  0.1120
22765W        W38234  12.701   1.645   2.678  0.2407  0.1245 -0.0580
22766W        W38235   4.478   8.921  10.346  0.0147 -0.0221  0.0075
22767W        W38236   6.468  13.085  13.414  0.2051  0.3959 -0.1283
22768W        W38237   5.635  13.115   2.260 -0.1977 -0.3518  0.0123
22769W        W38238   2.109  11.607  13.909 -0.1695  0.4389 -0.1228
22770W        W38239   4.469  15.650  11.878 -0.1459  0.2024 -0.0921
22771W        W38240   4.368   6.155   2.355 -0.2928 -0.4449 -0.1190
22772W        W38241  17.868  18.135  14.716  0.1268 -0.0126 -0.3978
22773W        W38242  14.260  16.671   5.361 -0.0536 -0.1399 -0.2542
22774W        W38243   2.092  16.560  10.642 -0.4867  0.0915 -0.4151
22775W        W38244   2.565  13.092  15.027  0.1295  0.0134  0.3189
22776W        W38245   0.472   2.227  11.307 -0.0954  0.1246  0.3047
22777W        W38246   0.086  15.477  14.993 -0.1498 -0.2425  0.1973
22778W        W38247  10.186   0.845  10.566 -0.0695 -0.1704  0.2752
22779W        W38248  16.590  16.813   4.519 -0.0678 -0.2841  0.2731
22780W        W38249   0.925  11.687   4.191  0.2319 -0.0341 -0.1259
22781W        W38250   0.694  16.904  14.983 -0.1082  0.4648  0.1017
22782W        W38251  18.044   7.851   3.290 -0.3297 -0.3487 -0.1099
22783W        W38252   5.286   6.445  14.125  0.1390  0.1785  0.2090
22784W        W38253   8.708   5.010   5.283 -0.2880 -0.4431  0.5329
22785W        W38254  12.773  11.912   1.985 -0.1068 -0.0497 -0.1460
22786W        W38255  12.880   0.430  10.715 -0.0306  0.0732  0.2339
22787W        W38256  14.641   8.896  11.107  0.0729 -0.0280 -0.1391
22788W        W38257   4.991  13.486  15.627  0.0572  0.1936  0.1912
22789W        W38258  17.438   7.821  12.289  0.2494 -0.0868  0.0092
22790W        W38259  12.376  14.049  13.435 -0.0483  0.1882 -0.0553
22791W        W38260  14.715  18.649  15.229  0.2577 -0.3670 -0.1761
22792W        W38261  18.037   5.728   0.343 -0.0326 -0.0521  0.0199
22793W        W38262  16.635   0.290   0.111 -0.3434 -0.0109 -0.2527
22794W        W38263  10.680   1.285   1.628  0.1685 -0.1241  0.0646
22795W        W38264   2.550   0.772   3.680  0.3505 -0.1136  0.1710
22796W        W38265  10.855   0.169  12.337 -0.2826  0.0782 -0.1100
22797W        W38266  17.329   1.907   3.071  0.0367  0.1511 -0.0364
22798W        W38267   4.483  13.371  12.305 -0.0719 -0.0088  0.3935
22799W        W38268  16.463  11.509   1.119 -0.0363  0.0629  0.2679
22800W        W38269  13.108   9.251   4.130 -0.0798 -0.3048 -0.0690
22801W        W38270  12.220   5.874   4.527  0.1574 -0.3075 -0.0108
22802W        W38271   7.784   4.314  12.632 -0.1376 -0.0843  0.0801
22803W        W38272  10.485   7.263   1.892 -0.2202 -0.2895  0.1993
22804W        W38273   2.122   4.329  14.202  0.3073 -0.1833  0.4530
22805W        W38274  10.670   7.317   2.475 -0.3580 -0.1714  0.1185
22806W        W38275   9.984  17.646   2.360 -0.0971  0.0713 -0.0161
22807W        W38276  17.818   6.562  12.054 -0.0699  0.0389 -0.3708
22808W        W38277   1.910   1.998  10.597 -0.4275 -0.4194 -0.1673
22809W        W38278  10.340   3.531  13.750  0.1970 -0.3171  0.0476
22810W        W38279  14.112  13.072   4.664  0.0662  0.0884 -0.1722
22811W        W38280  10.250   4.923  13.922  0.2403 -0.1538  0.0327
22812W        W38281  14.647   8.066  13.427 -0.0500 -0.2729  0.0220
22813W        W38282  11.663  18.009  10.622 -0.0732  0.0253  0.2491
22814W        W38283  14.753  15.443  12.347 -0.0367  0.1993 -0.2100
22815W        W38284   7.616   6.525  11.006  0.0355  0.1009 -0.2023
22816W        W38285   1.685   9.939  14.987 -0.0239  0.0984  0.1126
22817W        W38286  10.040   0.067   5.957  0.0926 -0.1170  0.1216
22818W        W38287   5.489  13.293  12.850  0.0154  0.1371  0.0269
22819W        W38288  17.861   4.029  13.669 -0.5019  0.0214 -0.1871
22820W        W38289   8.767   1.087  11.642 -0.0827 -0.2180 -0.1335
22821W        W38290   7.629   8.778   9.560  0.0917  0.0768 -0.1646
22822W        W38291  17.279   4.105  12.585 -0.2162 -0.1549 -0.2472
22823W        W38292  17.641  18.616   4.338  0.1139  0.1175  0.1170
22824W        W38293  18.389  10.097  11.961 -0.1203 -0.0409  0.4264
22825W        W38294  15.814  17.738   3.150  0.0825  0.2853  0.0303
22826W        W38295  17.581  16.285   3.663 -0.0865 -0.2159 -0.1022
22827W        W38296   1.576  17.060   2.282  0.0735  0.1238  0.1372
22828W        W38297   7.408  10.951  13.720 -0.0376  0.0222 -0.2646
22829W        W38298   0.485   4.299  14.026  0.1695  0.1796  0.1469
22830W        W38299  17.573   9.192  12.080 -0.4352  0.0824 -0.0849
22831W        W38300   9.318  10.475  10.719 -0.1585 -0.3374 -0.0052
22832W        W38301   6.558  15.263  12.471 -0.0478  0.1194 -0.1371
22833W        W38302   7.948   3.897   0.961 -0.4248  0.1496  0.0661
22834W        W38303   8.634  18.249   1.473 -0.2150  0.1022 -0.0592
22835W        W38304   3.190   6.559   2.632 -0.1296  0.0430  0.0363
22836W        W38305   8.129   1.698   0.343  0.1814  0.1339 -0.1760
22837W        W38306   1.579   8.518   1.923 -0.0029 -0.0076  0.0315
22838W        W38307  15.472  13.936  11.239  0.1070  0.0353 -0.2411
22839W        W38308  16.451  18.017  10.850  0.1862  0.1433 -0.2812
22840W        W38309   4.570  10.327   4.363 -0.3921 -0.1871  0.2180
22841W        W38310   8.580  13.488  15.331 -0.2039 -0.2929  0.1384
22842W        W38311   4.269   9.845  14.976  0.1863 -0.2322 -0.2242
22843W        W38312   2.866  18.021  15.380 -0.0461 -0.3479 -0.0364
22844W        W38313   4.053   4.340   9.963  0.0054 -0.1041 -0.0446
22845W        W38314   5.500   7.389  13.193 -0.2569  0.1486  0.0347
22846W        W38315  10.424  12.661  14.333  0.1202 -0.1266 -0.0064
22847W        W38316   0.971  11.339   5.472 -0.0025  0.1828  0.1459
22848W        W38317   3.681  13.739   4.534 -0.1548  0.3138 -0.0913
22849W        W38318   4.186  14.307   1.459 -0.1465  0.1281 -0.0874
22850W        W38319   4.355  11.699   5.888 -0.1311 -0.1132 -0.0781
22851W        W38320  13.650   5.682   4.881 -0.1506 -0.0152 -0.1702
22852W        W38321   7.318   0.116   1.493 -0.1472  0.0338  0.1356
22853W        W38322   0.921   5.912   3.173  0.0587 -0.2697  0.2283
22854W        W38323   7.526   2.942  13.585  0.1091  0.2849  0.2766
22855W        W38324  10.546  14.242   3.524  0.3809 -0.1357 -0.1253
22856W        W38325  17.265   1.147   5.728 -0.1384  0.1461  0.1119
22857W        W38326  11.475  10.650   0.579  0.0856  0.1179  0.1369
22858W        W38327   6.770   2.474  12.553 -0.1999  0.0213  0.1521
22859W        W38328   8.627  16.123   0.999  0.1101 -0.3625  0.0094
22860W        W38329  13.611   3.161  10.731  0.2509  0.2112 -0.2024
22861W        W38330  15.818  11.466   6.233 -0.1346  0.0946 -0.0273
22862W        W38331   5.623   3.177  13.471  0.1436  0.1465 -0.1547
22863W        W38332   8.067  13.656   5.870 -0.0848  0.0067 -0.5119
22864W        W38333  17.798   2.005   1.865 -0.3948  0.0238  0.0172
22865W        W38334   9.360  12.028   0.322 -0.5249 -0.0570 -0.0624
22866W        W38335   3.719   5.472   0.403 -0.0456 -0.1847  0.1241
22867W        W38336  15.422   4.376  13.278 -0.1886 -0.1112  0.0607
22868W        W38337  10.696  15.501   0.577 -0.0182  0.0159 -0.2370
22869W        W38338  17.021   3.952   1.426 -0.3010  0.1748 -0.0693
22870W        W38339   8.025   1.965   0.842 -0.0619  0.1327 -0.4083
22871W        W38340  12.584   2.208  11.531 -0.0825  0.0032  0.0119
22872W        W38341   9.214   7.150  11.364 -0.0916  0.0983 -0.0508
22873W        W38342  17.439   1.699  12.358 -0.3063  0.0734 -0.1826
22874W        W38343  10.120  11.739   3.602  0.0293  0.0858 -0.0157
22875W        W38344   8.702  10.410  12.217 -0.0813 -0.2077  0.3624
22876W        W38345  14.136   2.064   5.555  0.0321 -0.0137 -0.3707
22877W        W38346  15.569  15.971   2.566  0.2622  0.0566  0.0374
22878W        W38347  11.892  17.044  15.054 -0.1640  0.1629  0.0417
22879W        W38348  10.968   4.276   2.483  0.4048 -0.0300  0.3429
22880W        W38349   1.280   4.965  13.487  0.0325 -0.1319 -0.1889
22881W        W38350   7.720   4.200   3.999  0.2680  0.1256  0.1644
22882W        W38351   0.974   8.942   1.301 -0.0602 -0.2036  0.3265
22883W        W38352   6.677  14.721  11.900  0.1961  0.0602 -0.1537
22884W        W38353   5.263   3.559   3.530 -0.2850 -0.1754 -0.0873
22885W        W38354   6.225   6.149   2.649  0.0071 -0.3437 -0.0149
22886W        W38355  18.528   5.590  14.779  0.0674 -0.2804 -0.0423
22887W        W38356  15.938  17.270  14.915 -0.1743  0.2259 -0.0986
22888W        W38357  13.679   7.476   2.296  0.1157  0.1926 -0.3447
22889W        W38358  14.419  16.276   5.058  0.0038  0.1159 -0.1494
22890W        W38359  16.161   4.462  11.816 -0.3427 -0.4402 -0.1768
22891W        W38360   3.070  18.538   1.002 -0.0196 -0.1802 -0.2311
22892W        W38361   6.346  13.340   5.711  0.0665  0.1341  0.0656
22893W        W38362  12.473   3.659  13.779  0.0287 -0.3783 -0.3646
22894W        W38363  10.862   2.079  12.473 -0.1785  0.1709 -0.3891
22895W        W38364   8.584   8.947   1.924  0.0907  0.0607  0.5536
22896W        W38365  15.170   5.046   2.235  0.0088  0.0628 -0.2564
22897W        W38366   9.966  16.071   3.297  0.0550  0.2124  0.0523
22898W        W38367   0.357   9.644  12.610  0.0083  0.4177 -0.1832
22899W        W38368  17.277  15.205  12.747  0.0055  0.3776  0.2599
22900W        W38369  15.705  17.241   9.856 -0.1347 -0.1896 -0.1201
22901W        W38370  14.526  13.135   1.255 -0.0291 -0.2282 -0.1317
22902W        W38371   6.988   6.967   1.720 -0.0955  0.1720 -0.2611
22903W        W38372   0.837  12.710   0.380 -0.0955 -0.4035  0.0245
22904W        W38373  11.383  13.496  11.956 -0.1545 -0.0431  0.1130
22905W        W38374  11.774   3.038  14.178 -0.0227 -0.1369  0.2475
22906W        W38375   6.458   5.954   3.142  0.2502 -0.2707 -0.0093
22907W        W38376   0.576   9.814  15.087 -0.0051  0.2280  0.2587
22908W        W38377   3.680   7.558  12.102 -0.0522  0.0979 -0.2630
22909W        W38378  11.762  12.898  13.875 -0.1404  0.0388  0.1418
22910W        W38379   9.909  10.862   4.491  0.1845 -0.1173  0.0167
22911W        W38380   6.760  10.223  11.510 -0.1487 -0.3089  0.0214
22912W        W38381  15.909  15.845  12.851 -0.2216 -0.4878  0.0346
22913W        W38382  17.239   2.209   4.148 -0.3711  0.2344 -0.0424
22914W        W38383   4.290  12.487   1.290 -0.2664  0.1647 -0.0515
22915W        W38384  16.477  11.376  12.459  0.2705  0.2320  0.1061
22916W        W38385   8.347   6.062  11.113  0.2552  0.2939 -0.1183
22917W        W38386   8.426  15.990  11.400  0.1576 -0.3749  0.3455
22918W        W38387   2.777   9.299  12.392 -0.0753 -0.1878 -0.2734
22919W        W38388  16.654   7.719   1.646  0.0340  0.0104 -0.1465
22920W        W38389   7.143   0.122   0.073  0.1518  0.2547 -0.1801
22921W        W38390  17.504  11.916  13.979 -0.2369  0.2030 -0.0186
22922W        W38391   5.790   0.414  14.651  0.1042 -0.1373 -0.0253
22923W        W38392   6.790  15.952   0.137 -0.2085 -0.0746 -0.0356
22924W        W38393   2.661  11.634  13.161 -0.1867 -0.1688 -0.1441
22925W        W38394   5.317   7.025  15.058  0.1197 -0.0168  0.3073
22926W        W38395   3.415   5.465  11.573 -0.2240  0.0263 -0.2888
22927W        W38396  18.250   3.107   3.663 -0.0132 -0.1183 -0.0307
22928W        W38397  15.687   7.411  12.543  0.0047 -0.0545 -0.2980
22929W        W38398   7.749  12.858   3.719  0.1741 -0.0650 -0.0667
22930W        W38399   7.510   9.371   0.386  0.1166  0.0360 -0.1280
22931W        W38400  15.374  17.458  11.639  0.0950  0.0109 -0.0062
22932W        W38401   2.309   2.957   0.017 -0.2747 -0.0844  0.0209
22933W        W38402   2.430  10.205  12.517  0.0070  0.0608  0.0076
22934W        W38403  17.308  16.549   5.424 -0.2762 -0.0325  0.2151
22935W        W38404  18.404   2.325   0.413  0.1311 -0.1497 -0.0156
22936W        W38405   0.565   1.052  14.339  0.0208 -0.2873 -0.0481
22937W        W38406  17.525  16.906  10.593  0.0646  0.0789  0.1825
22938W        W38407  13.042  14.621   4.128 -0.0571  0.0031 -0.0457
22939W        W38408   7.825   6.878   4.225  0.1131  0.2294 -0.0172
22940W        W38409  10.216  15.651  12.973  0.1908  0.1309 -0.0784
22941W        W38410  13.884   0.760  10.623  0.2249  0.0669  0.2628
22942W        W38411   8.295   6.803  14.507  0.1748 -0.1872 -0.1351
22943W        W38412   5.643  15.716   0.068  0.0127  0.1981  0.0474
22944W        W38413   8.790   4.562   3.174  0.1657  0.1833 -0.0761
22945W        W38414   4.471   9.856  11.715  0.1893 -0.1195 -0.3088
22946W        W38415   9.646   4.055  15.042 -0.3903 -0.2676 -0.1575
22947W        W38416   4.681  10.747   9.146  0.2658 -0.2268  0.0389
22948W        W38417   6.242   0.324   2.416 -0.0883  0.2731 -0.1338
22949W        W38418  15.839  10.317   2.317 -0.1502 -0.0430  0.0459
22950W        W38419   1.068   9.415   0.286 -0.0274 -0.0087 -0.1773
22951W        W38420   5.072  10.099   4.285  0.3652 -0.0003  0.2079
22952W        W38421  13.960   4.520   1.722  0.0949  0.1917  0.3460
22953W        W38422  11.458  16.900   4.726  0.0512  0.0823  0.1179
22954W        W38423  16.864  12.386  11.708  0.0372 -0.1284  0.0143
22955W        W38424  10.049  14.277   5.400 -0.1055 -0.0462  0.2566
22956W        W38425  12.648  17.239   3.091 -0.0430  0.2296 -0.1861
22957W        W38426   5.282   5.198   4.709 -0.1616  0.5681 -0.0613
22958W        W38427  18.226  14.816  13.752  0.1112  0.1838  0.0285
22959W        W38428  18.232   9.767   5.700 -0.2063 -0.3285 -0.2104
22960W        W38429  17.861   5.356  13.147 -0.0595 -0.1054  0.1203
22961W        W38430   2.512  14.718  13.777 -0.1625 -0.3071 -0.1833
22962W        W38431  16.864   4.712  14.266  0.4710 -0.1143  0.3069
22963W        W38432   1.052  12.898  13.024  0.0066  0.0795 -0.0409
22964W        W38433   4.326   9.822   4.428  0.0740 -0.0925 -0.1904
22965W        W38434   7.188  15.069   3.755  0.0499 -0.0674  0.1222
22966W        W38435  17.608  14.220   6.213 -0.1886  0.3089  0.2343
22967W        W38436   7.620  18.224  13.532 -0.2815  0.0349 -0.0664
22968W        W38437   9.085   6.315  13.008 -0.0057 -0.1755  0.1556
22969W        W38438   3.962   4.737  14.842 -0.4668 -0.1748  0.4716
22970W        W38439  13.221  13.794  12.111  0.0294 -0.0763  0.0472
22971W        W38440  14.620   3.326   3.460  0.4590 -0.0618 -0.1470
22972W        W38441   2.162  14.517   3.562  0.2851  0.1482  0.0028
22973W        W38442   0.840   9.804  12.868 -0.2189  0.0270  0.2972
22974W        W38443  15.801  11.787  11.451  0.0159 -0.1634 -0.1440
22975W        W38444   1.633   1.178   1.222  0.1108  0.0650  0.0371
22976W        W38445   3.703  10.394   1.975  0.0668 -0.1116 -0.2578
22977W        W38446   7.743  13.904  14.904 -0.0716 -0.1838  0.3451
22978W        W38447  12.641   1.043   4.384  0.1484  0.2231 -0.0186
22979W        W38448   5.828   6.529  10.929 -0.0658  0.0171  0.2341
22980W        W38449  13.316   2.075   4.611  0.1895  0.1262  0.1249
22981W        W38450   0.801  16.451  15.355 -0.1014 -0.0667  0.2386
22982W        W38451  10.101   9.156   2.156  0.1581  0.3315  0.1972
22983W        W38452  12.817  17.691  11.594 -0.0532  0.3563 -0.0486
22984W        W38453   3.288   5.455  10.002  0.1358 -0.0265 -0.2166
22985W        W38454   3.023   1.339  14.691 -0.1554 -0.2106 -0.0811
22986W        W38455  12.886   6.619  11.272 -0.2126  0.0459 -0.1193
22987W        W38456  12.981   7.250   0.516 -0.2847 -0.2579  0.0676
22988W        W38457   8.759   4.019  12.364 -0.1018 -0.1489  0.0621
22989W        W38458   7.395  11.784   3.136  0.1614 -0.1767  0.2316
22990W        W38459   4.898   4.199  14.107 -0.3970 -0.0075 -0.1407
22991W        W38460   8.530   1.503  10.472  0.1140 -0.5026  0.3852
22992W        W38461   1.945   0.597   2.327  0.0792 -0.0889 -0.1310
22993W        W38462  15.163   3.410   2.735  0.1511 -0.1766 -0.0278
22994W        W38463  17.996  15.553   5.189  0.2013 -0.0941 -0.0015
22995W        W38464  16.997   6.012  12.865  0.0423 -0.1693 -0.0797
22996W        W38465  15.503  14.216   0.712 -0.0404 -0.0672  0.0227
22997W        W38466  11.811   4.634  14.999 -0.1775  0.1380 -0.1149
22998W        W38467  17.754  13.542   5.468  0.0457 -0.2543  0.0499
22999W        W38468   4.667   8.252  15.067 -0.3686 -0.2058  0.1383
23000W        W38469   4.584   4.523  15.519  0.0303  0.1038 -0.2016
23001W        W38470   2.897   0.962   2.082 -0.0861 -0.1833 -0.2113
23002W        W38471   3.811  18.037  13.724  0.1938 -0.0484 -0.0471
23003W        W38472  10.736  12.571  13.877 -0.0142  0.1197 -0.2489
23004W        W38473  16.438  18.508   1.216 -0.0621  0.0393  0.0582
23005W        W38474  14.866   9.280   2.290  0.1656  0.2761 -0.0561
23006W        W38475   0.839   9.734  15.594  0.1654  0.0256 -0.0367
23007W        W38476   1.511  17.721   0.779  0.1802  0.1910  0.2877
23008W        W38477  12.854  17.045   1.804  0.0180  0.2386 -0.2151
23009W        W38478   0.519  14.995  15.517  0.2580  0.0391  0.0313
23010W        W38479   8.773   1.354  13.444 -0.0129  0.3388  0.4681
23011W        W38480   2.117  11.731  15.081 -0.0412 -0.1298 -0.0261
23012W        W38481  10.845  10.751   4.809  0.2379  0.2126  0.2055
23013W        W38482   4.672   4.697   4.135  0.6654  0.2556 -0.2209
23014W        W38483  18.669   6.081  11.163  0.0714 -0.0301 -0.0687
23015W        W38484   9.666  13.782   2.488  0.1588  0.2785  0.0355
23016W        W38485   9.688   3.732  14.068  0.1988  0.2632 -0.1086
23017W        W38486   7.072   8.261   5.068 -0.0387  0.2184  0.0067
23018W        W38487   4.217   2.717   1.888  0.1088 -0.0479  0.2257
23019W        W38488  18.432   6.096  14.823  0.1032 -0.0149  0.4762
23020W        W38489   9.748   0.312   2.838 -0.0050 -0.0099  0.4101
23021W        W38490  16.610  16.816  11.401  0.1591 -0.2810 -0.1397
23022W        W38491   1.817   0.826   1.465  0.0202 -0.2573 -0.0490
23023W        W38492   7.322   1.469  14.659 -0.2531  0.0376  0.2066
23024W        W38493   2.136   8.881  11.182 -0.2941 -0.3104  0.0935
23025W        W38494   3.785  12.596  15.238 -0.4409 -0.4177 -0.1417
23026W        W38495   6.887   5.692  14.083 -0.2452  0.0702 -0.1640
23027W        W38496  10.244  14.976  14.602  0.3714  0.0020 -0.1480
23028W        W38497   3.528   1.613   2.557 -0.0413 -0.1590 -0.2667
23029W        W38498   7.374   9.114  11.651  0.1725 -0.1815  0.0869
23030W        W38499   4.389   9.345   3.797  0.0819 -0.1613  0.3027
23031W        W38500  16.655  13.364   5.908  0.0471  0.2217 -0.0126
23032W        W38501  10.509   4.457   0.319 -0.0964 -0.0145  0.1884
23033W        W38502   4.744  13.528   1.765 -0.0391 -0.1904 -0.0879
23034W        W38503  15.902  13.181  12.098 -0.1516 -0.1560  0.2668
23035W        W38504   7.184  17.761  10.964 -0.1204  0.0659 -0.0385
23036W        W38505   0.054   3.487  11.160 -0.0550  0.1743  0.1537
23037W        W38506  17.924   0.235  11.110  0.3368  0.0178 -0.4233
23038W        W38507   4.336  16.288  14.852 -0.1277 -0.2833  0.1282
23039W        W38508   4.000  12.925   4.361  0.0473  0.1289 -0.3510
23040W        W38509   8.972  18.442  13.505 -0.3487 -0.1232  0.2121
23041W        W38510   8.812  17.005   3.190 -0.0574  0.2333  0.0955
23042W        W38511   0.717   7.175   2.665 -0.0083 -0.0710 -0.1900
23043W        W38512  17.542   4.839  14.575  0.2447  0.1751 -0.0484
23044W        W38513   9.927  13.735   3.141  0.3217 -0.1621  0.1442
23045W        W38514   7.060   8.882   4.342  0.2414 -0.0599 -0.0571
23046W        W38515   4.112   7.012   1.049  0.1651 -0.0359 -0.0773
23047W        W38516   3.841   2.003   2.528 -0.3026 -0.1172 -0.3579
23048W        W38517  14.592   9.810  13.967  0.0063 -0.1943  0.0786
23049W        W38518  17.158   6.442   4.859  0.0535 -0.1303  0.1133
23050W        W38519  13.654  16.650  14.489 -0.1799 -0.2469 -0.1340
23051W        W38520   9.734   1.183   2.757  0.2839 -0.1342  0.1489
23052W        W38521  16.363   3.241   3.530 -0.4246  0.0910 -0.2710
23053W        W38522  12.933   0.048   5.867  0.0855  0.0458  0.5336
23054W        W38523   2.677  14.458   3.368 -0.0642  0.4505 -0.0256
23055W        W38524   6.155  10.315  14.875  0.2099  0.1526  0.1211
23056W        W38525  11.329   9.021  10.709  0.2333  0.0418  0.2205
23057W        W38526   3.545   5.945  11.907 -0.2691 -0.0471  0.3674
23058W        W38527  15.836  10.908   0.460 -0.2935 -0.1388 -0.1422
23059W        W38528   1.577   1.133  11.691 -0.0178 -0.1060  0.0409
23060W        W38529   9.398  15.533  13.439  0.1309 -0.0680  0.1243
23061W        W38530   9.662   8.673   9.521 -0.0472 -0.2401  0.1795
23062W        W38531   3.522  18.507   1.310  0.0214  0.2841  0.0043
23063W        W38532   3.091  15.031  11.601  0.0778  0.1805  0.3136
23064W        W38533  18.768   8.436  10.789  0.2544  0.1054  0.1209
23065W        W38534   7.012   4.855  14.546  0.3376  0.3022  0.2128
23066W        W38535   3.442   9.090   9.378 -0.1093 -0.1320  0.1546
23067W        W38536  17.171   3.688  15.485 -0.1279  0.1427  0.3608
23068W        W38537   2.414  17.825  11.169  0.0635  0.0819  0.1699
23069W        W38538  18.300  13.368  13.355  0.0910  0.0172 -0.1204
23070W        W38539   9.465  18.517  14.419  0.1147 -0.0443 -0.0147
23071W        W38540   9.763   1.684   4.941 -0.0378 -0.2364  0.2972
23072W        W38541   2.021  15.974   1.716 -0.1056 -0.2164  0.0349
23073W        W38542   5.101   4.268   2.287  0.0483 -0.0217 -0.0311
23074W        W38543  16.422  14.546   0.863 -0.1373  0.1425  0.2176
23075W        W38544  14.160   2.642   3.465 -0.2092  0.2641 -0.0285
23076W        W38545   8.673  12.876  12.484  0.0932 -0.2807 -0.0961
23077W        W38546   1.976   8.139   3.456 -0.0357 -0.0182  0.2227
23078W        W38547   8.548  15.019   2.844 -0.3139  0.0241 -0.4456
23079W        W38548  15.000  17.104  10.572  0.5687  0.5002  0.1132
23080W        W38549  11.995   3.420  10.552 -0.0237  0.1286  0.0511
23081W        W38550  18.433   5.367   4.394  0.1028  0.0351  0.2304
23082W        W38551   5.946  11.659   0.712  0.0189 -0.0967  0.0746
23083W        W38552  16.167  11.138   4.759 -0.0849 -0.0119 -0.1510
23084W        W38553   3.379  18.092  12.942 -0.0732 -0.0486  0.2206
23085W        W38554  14.915   7.270   1.535 -0.0436 -0.1122  0.2056
23086W        W38555   5.956  16.089   2.995 -0.1493  0.0742 -0.0058
23087W        W38556  17.666   1.005   1.012  0.2489 -0.2039 -0.1329
23088W        W38557   5.943  13.436  11.110  0.0131 -0.1334 -0.0665
23089W        W38558  18.566  18.211  15.067 -0.0992 -0.1089 -0.1327
23090W        W38559  10.042  18.714   9.407 -0.0575  0.2697  0.0042
23091W        W38560   3.355   1.296  15.070  0.1559 -0.4400 -0.1322
23092W        W38561   1.694   6.061  11.262  0.1189 -0.2208 -0.1895
23093W        W38562  11.859  16.968  13.982  0.1276  0.0618 -0.1905
23094W        W38563   7.707  12.105   0.281  0.0316 -0.1123 -0.0775
23095W        W38564  11.686  13.840   5.575 -0.1656 -0.2402 -0.3762
23096W        W38565  10.824  14.743   2.691 -0.0346 -0.1784  0.2023
23097W        W38566  18.323   2.816  15.155  0.2135  0.0606  0.1863
23098W        W38567  11.442   0.612   9.599  0.0183  0.2378 -0.2100
23099W        W38568   9.141   2.045  14.021  0.3432  0.1452 -0.1290
23100W        W38569   8.178   3.679  12.968 -0.0113 -0.3064  0.0668
23101W        W38570   0.484   2.397   0.595  0.0742  0.0746 -0.1257
23102W        W38571  16.580   9.735  14.709 -0.1765  0.3908  0.2532
23103W        W38572  17.171  10.254   1.410 -0.2857  0.0545 -0.1346
23104W        W38573   7.467  16.232  13.937 -0.0769  0.1688 -0.1811
23105W        W38574   6.121  15.190  12.253  0.3619 -0.2285 -0.0517
23106W        W38575   5.880  15.087  14.990  0.1637  0.1459  0.1747
23107W        W38576   6.574  13.503   3.682 -0.0635 -0.1096 -0.3534
23108W        W38577  13.138   4.763  14.764  0.0360  0.1221  0.2268
23109W        W38578   3.283   9.473   9.634  0.2117 -0.2605  0.0405
23110W        W38579   0.813   5.168  15.532 -0.1285  0.1177 -0.2658
23111W        W38580  17.760   7.347   1.352 -0.0075  0.0731  0.0325
23112W        W38581  12.726   6.037  12.501  0.1410 -0.1110 -0.1386
23113W        W38582   9.268  17.697  14.358 -0.3479 -0.3532  0.0502
23114W        W38583   0.287   2.193  12.237 -0.1101 -0.0626 -0.3719
23115W        W38584   3.419  12.864   1.430  0.0729  0.0501 -0.0523
23116W        W38585  12.992  11.664   6.140 -0.3192 -0.1747  0.0104
23117W        W38586  17.762   0.341  13.335 -0.1896  0.1691 -0.0786
23118W        W38587   7.765  11.785  12.153 -0.1360 -0.0894 -0.0242
23119W        W38588   0.661  18.505  12.663  0.3883  0.5199  0.0399
23120W        W38589  14.749   6.855  13.659 -0.0417 -0.0181  0.3521
23121W        W38590  12.861   6.893  10.289 -0.2910  0.2484 -0.0812
23122W        W38591  11.423  11.742   4.972 -0.2206 -0.0580  0.0369
23123W        W38592  10.179  14.130   0.081 -0.0589 -0.0401  0.3256
23124W        W38593  16.135   5.998   1.285  0.0778  0.1088 -0.0907
23125W        W38594   0.738  16.160   4.857  0.1057  0.2325  0.2170
23126W        W38595  11.587  18.653   1.370 -0.0459  0.2801  0.0876
23127W        W38596   5.305   8.243  14.030  0.0701 -0.2319  0.1213
23128W        W38597   7.781  12.020   1.821 -0.3791  0.2117 -0.0337
23129W        W38598   2.434  17.834  15.262 -0.0011  0.0184  0.0474
23130W        W38599   4.956   4.229  12.128 -0.2033  0.2357 -0.1142
23131W        W38600   8.991   1.321  12.938  0.1869 -0.1403 -0.1621
23132W        W38601   9.102   9.964  14.695  0.0219 -0.2483 -0.1796
23133W        W38602   9.603   6.662  13.706  0.0600 -0.0970 -0.0352
23134W        W38603   5.649   4.689   0.239  0.0342  0.1421  0.1853
23135W        W38604   9.515   5.126   1.212  0.2794 -0.1006  0.2072
23136W        W38605   9.478   0.782   0.014 -0.1204 -0.1783 -0.1482
23137W        W38606   8.098  16.565   0.065 -0.2871 -0.2470 -0.0648
23138W        W38607   3.646   5.233  12.504  0.0428  0.1031  0.0113
23139W        W38608  16.986  13.460  12.592  0.1319 -0.2239 -0.2681
23140W        W38609   7.404  14.732   5.382  0.1058  0.0076  0.3272
23141W        W38610  16.357   3.578   3.973  0.0630  0.0742  0.2399
23142W        W38611  14.539   1.648   3.320 -0.0695 -0.0044  0.3581
23143W        W38612   4.622  15.971  12.353 -0.0635 -0.2000 -0.0458
23144W        W38613  17.081   8.264   1.177 -0.2516  0.2727  0.0718
23145W        W38614   8.259  17.581   4.400  0.0065 -0.1629  0.3068
23146W        W38615   2.709  14.954   0.238 -0.1317 -0.0299  0.1579
23147W        W38616   3.499   8.715   3.037  0.2549 -0.0211  0.0644
23148W        W38617   0.999  14.179   0.686  0.0559 -0.0738  0.1707
23149W        W38618   7.311  17.669  12.437 -0.1766  0.0037 -0.0009
23150W        W38619  16.853   9.993   4.292 -0.2045  0.0264  0.0853
23151W        W38620  13.110   8.101  13.958 -0.0029  0.1123 -0.0125
23152W        W38621  17.819  15.544  14.452  0.1565  0.0710 -0.1250
23153W        W38622  16.591   1.945  11.480  0.3814  0.3203  0.0421
23154W        W38623  11.737   5.660   4.633 -0.1983 -0.2494  0.0318
23155W        W38624  10.386   0.442   0.175  0.0297 -0.3125 -0.2660
23156W        W38625  11.345   6.958  14.370  0.1148 -0.2405 -0.0946
23157W        W38626  11.594  10.016  11.747  0.0765 -0.0689  0.0389
23158W        W38627   1.502  11.256   0.872 -0.1184 -0.0119  0.1044
23159W        W38628   1.334   9.716   9.686 -0.1610 -0.0684  0.2630
23160W        W38629  11.687  14.345  15.664  0.1754  0.0740  0.2719
23161W        W38630   5.077   2.287  11.694  0.2658 -0.1556 -0.2289
23162W        W38631   9.224  12.326  14.074 -0.1610  0.1979  0.1813
23163W        W38632   5.380   5.848   5.506  0.0040 -0.0019  0.0609
23164W        W38633   1.087   3.723  11.956 -0.1586  0.2547  0.1969
23165W        W38634  11.155   4.617   5.868  0.0191 -0.0815 -0.0387
23166W        W38635  18.069  14.872   1.179 -0.1792  0.0303 -0.1274
23167W        W38636  12.377   8.743   5.488  0.1868  0.1353 -0.3063
23168W        W38637   3.846  18.027  11.246  0.1474  0.0238  0.0752
23169W        W38638   4.889  17.748   2.643  0.3063  0.1005  0.2631
23170W        W38639   6.854   1.572   5.044 -0.0832  0.3360  0.4027
23171W        W38640  12.766  15.347   1.177 -0.1274  0.3339  0.0932
23172W        W38641   5.031  16.886  12.191  0.3266 -0.2454 -0.2013
23173W        W38642  12.473   5.199  10.980 -0.3841  0.0328 -0.1805
23174W        W38643   0.048   0.343  14.459  0.1083  0.0364  0.3442
23175W        W38644  14.228   2.943   3.002 -0.1316 -0.1612 -0.1768
23176W        W38645   3.853  16.325  11.170 -0.2130  0.0504  0.1635
23177W        W38646  16.369  11.655  15.527  0.0367 -0.0734  0.1600
23178W        W38647   6.679   7.402  14.690  0.2410  0.0900 -0.3912
23179W        W38648   2.971   0.969  15.059  0.2962  0.1241  0.0869
23180W        W38649   7.598  15.950   1.876 -0.1641 -0.0467  0.0077
23181W        W38650   2.797   2.280   1.247  0.1464 -0.1167  0.1306
23182W        W38651   1.714   5.158   2.659 -0.0710  0.1038  0.0025
23183W        W38652  10.737  14.254  13.242  0.1725  0.1395 -0.2698
23184W        W38653  12.419  17.062  12.700  0.4058  0.1950  0.0964
23185W        W38654   8.748  16.872  10.305 -0.1478  0.1557 -0.0402
23186W        W38655  16.216   6.721   4.991 -0.2134  0.0466  0.1765
23187W        W38656   4.765  17.210   0.617 -0.0006 -0.1387 -0.0137
23188W        W38657  14.654  15.811   2.588 -0.2268 -0.0621  0.2417
23189W        W38658   2.444   7.598  14.765 -0.1210  0.2561 -0.0063
23190W        W38659   0.049   5.283  12.641 -0.2896 -0.2144  0.1132
23191W        W38660   7.562   6.995  10.105 -0.1440 -0.0396 -0.2733
23192W        W38661   5.683  16.578   4.884 -0.2997 -0.1128  0.2965
23193W        W38662   5.576   6.996  10.702  0.3004 -0.0253  0.1748
23194W        W38663  10.701   5.240  13.916  0.0672 -0.3748  0.0373
23195W        W38664   8.102   8.718   1.145  0.0694  0.1555  0.0090
23196W        W38665  16.301  17.636  13.325  0.1252 -0.0428  0.0763
23197W        W38666   9.737   1.350   4.494 -0.1541  0.0684 -0.0052
23198W        W38667   5.294  15.867   0.890 -0.1556  0.0725  0.1203
23199W        W38668  10.858  16.649  11.563  0.0227 -0.3402  0.0173
23200W        W38669   7.413   0.508   2.930  0.0271  0.2221 -0.2512
23201W        W38670   6.948   3.222  14.398  0.2959 -0.2957 -0.1482
23202W        W38671  16.527   1.296  11.913 -0.0612  0.0520 -0.0520
23203W        W38672  10.358   4.676   0.990 -0.0838 -0.0939  0.0127
23204W        W38673   3.699  10.392  12.611  0.3327 -0.0688  0.1991
23205W        W38674  16.996   7.907   4.960 -0.1323  0.0728  0.0421
23206W        W38675  12.176  17.326  10.230 -0.4104 -0.0048  0.1463
23207W        W38676   4.135   5.406   1.759  0.0142  0.2280 -0.2507
23208W        W38677   9.127  18.305   4.300  0.0523  0.0092  0.1461
23209W        W38678  10.519   1.230   3.020 -0.2758  0.1885 -0.4623
23210W        W38679   5.272  18.420   1.719 -0.2538  0.1800 -0.0523
23211W        W38680   8.825  10.404  12.838  0.0392  0.0431 -0.0916
23212W        W38681  10.008  15.469  15.344  0.1738 -0.3060 -0.2519
23213W        W38682  17.325  15.741   2.932  0.1177  0.1261 -0.5670
23214W        W38683  17.838   7.458   0.368  0.1388  0.2752 -0.1617
23215W        W38684   9.293   9.183  14.822  0.2468 -0.1201  0.0700
23216W        W38685  10.387  16.815  13.707  0.2234  0.1881 -0.1166
23217W        W38686  15.716   6.163   3.648 -0.1725 -0.0844 -0.3734
23218W        W38687  17.495   3.435  12.128 -0.1979 -0.1751  0.0662
23219W        W38688  16.630   6.744  12.454 -0.0181  0.2407 -0.2163
23220W        W38689   2.819  16.269   1.145 -0.0025 -0.0040 -0.2656
23221W        W38690  12.955   3.362  12.981  0.1526  0.0550 -0.0780
23222W        W38691  12.202   8.611   1.587  0.0047 -0.4087 -0.1541
23223W        W38692   4.629   1.963   3.567 -0.2262  0.0589  0.3694
23224W        W38693  12.457   2.832  11.183 -0.1216  0.0973  0.0350
23225W        W38694   4.807  18.596   1.901 -0.1695  0.2357 -0.2165
23226W        W38695   6.224  13.776   0.123 -0.0093  0.1087  0.1201
23227W        W38696  13.645  14.672   3.505  0.0852  0.2299  0.1622
23228W        W38697   0.858   9.378  13.173 -0.0702 -0.1935 -0.1913
23229W        W38698   9.216   3.527  13.987  0.0578 -0.0359 -0.3421
23230W        W38699  18.101   0.063  11.729  0.1862 -0.4453  0.3867
23231W        W38700  17.627   4.418  12.754 -0.1061 -0.0259 -0.2121
23232W        W38701   0.104   9.280   2.264 -0.1899 -0.1072 -0.0370
23233W        W38702  17.352  13.302   3.942  0.3758  0.1171 -0.0529
23234W        W38703   3.244   9.464  13.485  0.1048 -0.0876  0.2653
23235W        W38704   2.975  17.732   0.699 -0.1702 -0.4003 -0.0133
23236W        W38705   0.239  12.836   2.821 -0.1913  0.3594  0.2653
23237W        W38706  18.602  16.747   1.140  0.1643  0.0748  0.0185
23238W        W38707   9.310  13.418  14.577  0.0131  0.1194 -0.0637
23239W        W38708  16.551   9.043   0.339 -0.1452  0.1117 -0.1334
23240W        W38709   1.191   4.414  15.352 -0.1048  0.2109 -0.4285
23241W        W38710   1.930   4.312   4.206 -0.1882  0.0882  0.0256
23242W        W38711   1.991   8.998  12.520  0.0861 -0.2036  0.3145
23243W        W38712   4.650   8.022  10.421  0.2118 -0.2355  0.0252
23244W        W38713   6.819   6.755  13.456 -0.1866 -0.1557  0.2213
23245W        W38714   9.421   5.204   3.521  0.3922  0.0191 -0.2431
23246W        W38715  15.673   5.547   1.922 -0.0495 -0.0855 -0.0314
23247W        W38716   7.575   4.779   2.066  0.0676  0.1944 -0.1745
23248W        W38717   3.077   6.312  10.981 -0.3066  0.0921  0.0847
23249W        W38718  13.114  18.254  11.983  0.2007  0.2622  0.2404
23250W        W38719   7.683   0.505   3.958  0.2900  0.0147  0.1562
23251W        W38720   2.961  15.700  13.975 -0.0789 -0.0339 -0.0696
23252W        W38721  16.050  10.725  11.226  0.0357  0.0227 -0.1556
23253W        W38722  17.157  14.604   4.827 -0.1464 -0.0331 -0.3069
23254W        W38723   8.088  15.615  14.243 -0.1379 -0.0204 -0.1425
23255W        W38724  14.182  16.190   5.554 -0.1702  0.2777  0.0617
23256W        W38725   9.959   8.380   3.064  0.3396 -0.0289  0.1870
23257W        W38726  12.035  16.152   3.533  0.1197  0.0155  0.0087
23258W        W38727   0.963   1.566   0.662  0.3614 -0.1615  0.1790
23259W        W38728   3.853  17.436   3.994  0.1312  0.1683 -0.0160
23260W        W38729   9.373  11.574  11.863  0.1894 -0.0897 -0.0805
23261W        W38730  14.357  17.816  11.687  0.0546  0.3155 -0.4177
23262W        W38731  13.642   0.349   1.701  0.1072  0.0585  0.0553
23263W        W38732   9.268   1.079   2.986 -0.0617 -0.2591 -0.1235
23264W        W38733   2.553   8.520   1.927  0.0178 -0.0446  0.2366
23265W        W38734  16.842   1.349  13.398 -0.0935 -0.0882 -0.1053
23266W        W38735  14.378  13.209  11.998  0.1535 -0.1148 -0.1795
23267W        W38736   7.256   8.524   3.165  0.0335  0.0857 -0.2495
23268W        W38737  14.250  15.924  14.602  0.0174 -0.0342  0.1979
23269W        W38738   6.057  12.520  14.694  0.3941 -0.0647 -0.0381
23270W        W38739  10.322   5.357   4.765 -0.0700 -0.2558  0.0319
23271W        W38740  11.144  12.329   1.639 -0.0326 -0.0808  0.0553
23272W        W38741   1.538  13.073   4.792  0.0633 -0.2734  0.0868
23273W        W38742  13.079  15.091   3.507  0.0060  0.0790 -0.2333
23274W        W38743  13.309   9.285  15.534 -0.2117 -0.0013 -0.0623
23275W        W38744  14.843   6.224  15.263  0.0696 -0.0795 -0.0896
23276W        W38745   1.886   4.622   1.440  0.0168  0.1809 -0.1370
23277W        W38746   7.751   3.651  15.400 -0.2317 -0.0941  0.1138
23278W        W38747   0.312   6.126   2.719  0.0907 -0.0261 -0.2427
23279W        W38748  17.315   8.321   3.752 -0.1044  0.2320  0.1776
23280W        W38749  11.991   9.999  14.534  0.1382 -0.1601 -0.0647
23281W        W38750   7.492  16.074  12.652 -0.1279 -0.1289 -0.0422
23282W        W38751  18.324   6.921  12.226 -0.0238  0.2910 -0.1372
23283W        W38752   4.135   1.399  14.784 -0.4874  0.0311 -0.2049
23284W        W38753   7.597  11.841  11.671  0.2528  0.2003 -0.0332
23285W        W38754   7.031   3.692   3.922 -0.2829 -0.1378  0.0544
23286W        W38755  13.904   6.934  13.482  0.0909 -0.0966  0.3447
23287W        W38756  13.012  11.062   3.560 -0.0535 -0.0089 -0.1035
23288W        W38757   0.143   5.641   1.176 -0.1838 -0.1570  0.0403
23289W        W38758   1.238   3.049   3.333 -0.0668 -0.1638 -0.0898
23290W        W38759   4.484   3.776   3.896  0.1536  0.0412 -0.2667
23291W        W38760  14.555   1.689  12.284 -0.2953 -0.1991 -0.0589
23292W        W38761  17.325   3.936  12.018 -0.1440  0.1294  0.0345
23293W        W38762   7.486  16.114   3.770  0.1613 -0.2497  0.3838
23294W        W38763   7.397  14.669  11.969  0.1475 -0.0222  0.0157
23295W        W38764   2.921   7.611  12.752  0.0862  0.3016 -0.1357
23296W        W38765  13.159   4.745  10.279  0.0162 -0.2681 -0.2002
23297W        W38766   5.379   8.723  14.321  0.1218  0.1928  0.1302
23298W        W38767  14.264  17.876  15.182  0.2532  0.0894  0.1071
23299W        W38768   2.076   8.517   0.648  0.0663 -0.0124 -0.0080
23300W        W38769  16.506  10.367   4.256 -0.0807  0.1552  0.3835
23301W        W38770   5.898  14.899  10.795 -0.0269 -0.0096 -0.2818
23302W        W38771   8.478  12.702  15.342 -0.1763 -0.5830  0.0707
23303W        W38772  16.284  17.692   0.901  0.1711 -0.3395 -0.2937
23304W        W38773   3.221   5.465   4.573 -0.1483  0.4027 -0.0976
23305W        W38774   9.153   8.790  13.086  0.2146  0.2540 -0.0678
23306W        W38775   7.440  10.341   0.310  0.1781  0.2060  0.1158
23307W        W38776   8.104  11.812   0.393  0.0348 -0.3410 -0.2488
23308W        W38777   9.221  11.091   1.282  0.3535  0.1947 -0.0195
23309W        W38778  15.547   9.858   0.450  0.1312 -0.3094 -0.0796
23310W        W38779  16.384   5.426   2.906 -0.1512 -0.0887 -0.1459
23311W        W38780  17.122   4.616  15.461 -0.0324 -0.0298 -0.0379
23312W        W38781   3.744  10.837  15.185  0.0588  0.4892 -0.0149
23313W        W38782  11.912  14.166   4.000 -0.0896  0.2977 -0.0560
23314W        W38783  10.784  15.441  14.471  0.0087 -0.2370 -0.0154
23315W        W38784   1.278   0.433  13.726  0.0166 -0.1094 -0.1844
23316W        W38785  13.083  11.104   5.176 -0.1481  0.2535  0.2818
23317W        W38786  13.608   6.274  11.393 -0.0413  0.1439 -0.6125
23318W        W38787  18.628  10.341   4.598  0.1912 -0.1063 -0.1144
23319W        W38788   2.071   1.608   2.504  0.1535  0.0074  0.1128
23320W        W38789  11.617  15.808  12.309  0.2834  0.1854  0.1105
23321W        W38790  14.120   0.730  11.951  0.0128 -0.1875  0.1193
23322W        W38791  12.953  17.880   5.022 -0.0737 -0.3024  0.1952
23323W        W38792   2.895  10.772  13.186 -0.0595  0.1670 -0.1310
23324W        W38793  18.287  15.515  14.669  0.1287 -0.1533  0.1042
23325W        W38794  10.795   3.499  13.240  0.0885 -0.0300  0.2604
23326W        W38795  17.068   3.031  10.750  0.0298  0.2365 -0.1157
23327W        W38796  15.909  13.351   2.963  0.0077  0.2264  0.2673
23328W        W38797  13.322  18.699   9.993  0.1450 -0.1501 -0.1580
23329W        W38798   4.595  11.503  15.226 -0.0919 -0.4251 -0.3065
23330W        W38799   9.396   6.149  11.042  0.2388 -0.3885 -0.0924
23331W        W38800   5.109  18.432   4.212 -0.2881  0.2585 -0.2036
23332W        W38801  16.447  12.838   1.768  0.0896 -0.0136  0.3339
23333W        W38802  17.214  14.205   0.327 -0.4884  0.2003 -0.0166
23334W        W38803  14.488   7.885   3.997  0.1486  0.1389  0.1964
23335W        W38804  17.765   5.180   1.181  0.1895  0.1248 -0.0935
23336W        W38805   7.664  18.344   4.114 -0.1564  0.0595  0.2263
23337W        W38806   1.165   7.470   2.608 -0.0134  0.0076  0.0033
23338W        W38807  17.571   8.287  13.109 -0.2340  0.1077  0.4329
23339W        W38808  18.707   7.801  14.036 -0.0479 -0.0878  0.1280
23340W        W38809   3.405  17.241   3.532  0.0505  0.2620  0.0166
23341W        W38810   6.817  17.949  14.349  0.2690 -0.0466  0.0004
23342W        W38811   1.377   8.989   1.652  0.4285 -0.3972 -0.0801
23343W        W38812   4.762   8.787   4.599 -0.3648  0.0686  0.0898
23344W        W38813   6.160   7.335   2.196 -0.3109  0.0955 -0.0759
23345W        W38814   0.390  14.407   4.053  0.0288  0.1581  0.0896
23346W        W38815   1.777   8.261   9.904  0.1343  0.0011  0.1660
23347W        W38816  16.414   9.805   3.386  0.1301 -0.0725 -0.1327
23348W        W38817   5.183   6.900   0.692 -0.0668  0.0436  0.1523
23349W        W38818   4.152  15.871  14.667  0.0117  0.1475 -0.0965
23350W        W38819  13.298  12.961  14.048  0.0154 -0.0194  0.0131
23351W        W38820   4.576  15.666   4.146 -0.2991  0.1650  0.0023
23352W        W38821  15.986  12.373   2.003 -0.0117 -0.3968 -0.1782
23353W        W38822   1.088  15.351  14.677  0.2040 -0.1334  0.1442
23354W        W38823   6.698   5.913  14.575 -0.1194 -0.3111  0.0906
23355W        W38824   9.883   8.233   1.056 -0.2500 -0.2883 -0.2691
23356W        W38825  14.845  14.533  14.789 -0.1422  0.0413  0.1220
23357W        W38826   6.534   3.286  11.437  0.0740 -0.1631 -0.1113
23358W        W38827   8.677   7.431   3.174 -0.1027  0.1786  0.0783
23359W        W38828  18.325  18.273   5.161  0.0314  0.0635 -0.1014
23360W        W38829  12.100   0.268  14.189 -0.0893 -0.0894 -0.4493
23361W        W38830  16.249  15.219  15.085  0.0619  0.0423  0.1567
23362W        W38831  10.634   9.402   4.535  0.1803 -0.0398  0.1209
23363W        W38832  12.342  12.018   4.583 -0.0484  0.1229 -0.2850
23364W        W38833   9.606   4.291  12.227 -0.0242  0.2451 -0.0325
23365W        W38834   7.486   1.831  11.952 -0.2631  0.0603 -0.1776
23366W        W38835   2.654   4.360  10.767 -0.2017  0.4453  0.1952
23367W        W38836   8.296   9.904  11.459 -0.1546  0.0345  0.1171
23368W        W38837  17.937  15.777   6.254  0.2939  0.1731 -0.3772
23369W        W38838  16.392   2.991   2.659  0.1141  0.0445  0.1134
23370W        W38839   4.215  17.341   3.160 -0.1427  0.2932  0.3059
23371W        W38840   3.068   5.828   3.001 -0.1074  0.0647  0.1218
23372W        W38841  10.393  17.049  10.838 -0.0544  0.4247  0.1671
23373W        W38842  15.896  17.751  13.880  0.1038 -0.3147 -0.1954
23374W        W38843  12.956  17.646   1.886 -0.1631  0.0888 -0.0064
23375W        W38844  14.648   5.873  13.676  0.1130 -0.0916 -0.1564
23376W        W38845  17.027  10.164  13.922  0.0779 -0.0563  0.0727
23377W        W38846  15.145  10.110  11.222  0.0704  0.2496 -0.1732
23378W        W38847  16.230  10.365  13.025 -0.2297 -0.0716  0.2246
23379W        W38848   8.757  12.289   2.198  0.0958  0.3543 -0.0560
23380W        W38849   3.013  16.691  12.877  0.0475  0.0543  0.0282
23381W        W38850  17.034  15.072   3.534 -0.1904  0.0659 -0.2764
23382W        W38851   2.295   3.929   0.642 -0.0162  0.0645  0.0215
23383W        W38852  15.907   2.329  10.816 -0.0021  0.3520 -0.2689
23384W        W38853   1.421   7.900  15.645 -0.0828 -0.2375 -0.0651
23385W        W38854   0.596   0.516   3.701 -0.1950  0.1727 -0.3874
23386W        W38855   6.075   1.604   2.772  0.3146 -0.0948 -0.2225
23387W        W38856  11.676   8.431   1.461 -0.0845  0.0893 -0.1758
23388W        W38857  10.266   1.174  12.609 -0.0973 -0.1005  0.2115
23389W        W38858   2.891  14.473  10.847 -0.1367 -0.0033  0.1180
23390W        W38859   3.345   0.866   2.308 -0.2961 -0.0006  0.1819
23391W        W38860   6.137  10.347   3.404  0.2890  0.0831 -0.0352
23392W        W38861   1.348  16.764   5.260  0.1173  0.3365 -0.2749
23393W        W38862  11.919  15.027   3.525  0.0091 -0.1357 -0.0509
23394W        W38863  18.575   6.978   3.184 -0.0875  0.0005 -0.2499
23395W        W38864   7.464   4.298  14.128  0.1700 -0.2753  0.0852
23396W        W38865   1.606  13.133   0.028  0.1676 -0.2238 -0.2617
23397W        W38866   0.892  18.521   0.215 -0.1925  0.0128  0.1081
23398W        W38867  14.569   9.986  12.018 -0.1790  0.1236 -0.3635
23399W        W38868  11.025   5.129   2.395 -0.0507  0.0691 -0.0109
23400W        W38869  11.338  16.525   1.498  0.1862  0.3222  0.0584
23401W        W38870  11.216   1.470  13.743  0.2579 -0.1157 -0.0577
23402W        W38871  17.680  16.860   2.586 -0.2225  0.1043 -0.0310
23403W        W38872  18.145   2.864  10.025 -0.1117 -0.0509 -0.0245
23404W        W38873   8.021   0.640  13.296  0.0973 -0.0729  0.0385
23405W        W38874   6.906   4.382   0.376  0.1526  0.0603 -0.1542
23406W        W38875  16.482   1.004   3.607  0.1700 -0.1066 -0.0770
23407W        W38876  12.815  16.731   5.735  0.0158 -0.1509 -0.2156
23408W        W38877   7.939   0.977  14.630  0.1658 -0.1657 -0.0021
23409W        W38878   9.136  15.024   3.267  0.0854  0.1696  0.0970
23410W        W38879  11.478  10.347   3.653  0.1854  0.2008  0.2245
23411W        W38880  14.414  10.130   4.884 -0.3631 -0.1284  0.1094
23412W        W38881   4.771   1.423  15.575 -0.1410 -0.0469 -0.4023
23413W        W38882  12.477  15.892   5.133 -0.0872 -0.0598  0.0435
23414W        W38883  18.403   3.690  14.815  0.0838 -0.1042  0.3428
23415W        W38884  13.520   6.926  12.502 -0.0781  0.0868  0.3068
23416W        W38885   8.974  18.741  12.259 -0.1473  0.1078 -0.0723
23417W        W38886  10.361  17.907   2.101  0.3535  0.0433 -0.4589
23418W        W38887  15.073   7.136   2.171  0.2140  0.0967 -0.3057
23419W        W38888   9.082  13.218   0.481  0.0456  0.0994  0.1526
23420W        W38889  14.991  14.508   5.943  0.0701 -0.1968 -0.0454
23421W        W38890  16.491  10.883   3.362 -0.0674  0.1407 -0.1110
23422W        W38891  17.933   5.174   3.197 -0.1501 -0.1451 -0.1163
23423W        W38892  16.923  18.351  10.993  0.2636  0.0684  0.1138
23424W        W38893  12.047   7.921  15.339  0.5360 -0.0511 -0.1628
23425W        W38894   0.747  18.571   1.971  0.2142 -0.0992  0.0394
23426W        W38895   7.174  16.493  14.733 -0.2066 -0.0328  0.1142
23427W        W38896   0.223   9.063  15.561 -0.0297 -0.3159  0.0527
23428W        W38897  17.677  12.013  13.037 -0.0633 -0.2933 -0.4088
23429W        W38898  16.138  13.862   4.707 -0.3490  0.4432  0.2105
23430W        W38899   9.862   9.344   3.279  0.2145  0.0469  0.1174
23431W        W38900  18.174  13.353  12.605  0.1354  0.0791 -0.0470
23432W        W38901  12.578  12.797   1.997 -0.0680  0.2292 -0.0866
23433W        W38902   4.556  14.852  13.330  0.4009  0.2227 -0.2840
23434W        W38903   9.818  12.475   5.912  0.0204 -0.4112  0.5786
23435W        W38904  14.839  13.272   2.372 -0.0208 -0.3177 -0.1125
23436W        W38905   5.628   9.105  13.569 -0.2318  0.3489  0.1848
23437W        W38906   2.820   5.773   4.803 -0.3291  0.3725 -0.0778
23438W        W38907  18.618   0.052  11.539  0.4495  0.0348  0.2473
23439W        W38908   3.460  13.057  15.073 -0.2751 -0.0652 -0.0452
23440W        W38909  12.158  18.226   4.057  0.1902  0.2432 -0.3283
23441W        W38910  11.173   6.363  10.719 -0.0811 -0.4389  0.1338
23442W        W38911   6.648  10.064  12.472 -0.0384 -0.0870 -0.0840
23443W        W38912  13.228   6.047  12.695 -0.1191 -0.0880  0.2268
23444W        W38913   2.717   4.297   4.504 -0.0424  0.1579 -0.1261
23445W        W38914   4.035   3.282   3.963 -0.0492 -0.0815  0.2034
23446W        W38915  10.178   9.865   5.309  0.0502  0.2346  0.0326
23447W        W38916   3.676  15.312   3.697 -0.0496  0.1809 -0.1380
23448W        W38917   9.378   9.003   2.543 -0.0142 -0.2552  0.4202
23449W        W38918  15.227  11.058   3.744 -0.1341  0.0893 -0.1493
23450W        W38919   6.623   4.925   1.661 -0.0145  0.1441  0.0885
23451W        W38920   7.543  11.917   4.618 -0.0060  0.1980  0.0491
23452W        W38921   7.754   9.856   0.666 -0.3214 -0.0791  0.3055
23453W        W38922  13.403   0.739   5.508 -0.3960  0.3045 -0.1105
23454W        W38923  11.251  16.755   4.123 -0.1895 -0.4451  0.1429
23455W        W38924   7.686  12.342   3.530  0.1257  0.2151 -0.0430
23456W        W38925  14.956   4.711  11.324 -0.2893  0.2456 -0.0258
23457W        W38926   9.619   9.535   3.697 -0.0004  0.1332  0.0204
23458W        W38927   8.565  18.219  14.358 -0.3051  0.5153 -0.2661
23459W        W38928  10.040   0.405  10.702  0.1333 -0.0926 -0.2103
23460W        W38929   5.042  18.513  10.708  0.0756  0.1351 -0.3510
23461W        W38930   2.043  14.504  11.915  0.0771  0.0722  0.0077
23462W        W38931   0.334   1.581  13.178 -0.1970  0.2557  0.0841
23463W        W38932  13.145   0.578   3.426 -0.4637 -0.1249  0.0080
23464W        W38933   9.813   9.171   0.519  0.1660  0.1414 -0.0392
23465W        W38934   3.013   5.619   2.535 -0.3923  0.0801  0.2451
23466W        W38935   6.961  16.840   3.512 -0.0820 -0.2423  0.0730
23467W        W38936  15.062   5.799  15.099  0.0740 -0.1196  0.1954
23468W        W38937  16.553  17.622  12.836  0.3852  0.1683  0.2769
23469W        W38938   8.670  17.680   2.337  0.0288 -0.2312  0.0156
23470W        W38939   8.357   2.429   4.888 -0.2066 -0.0203  0.2159
23471W        W38940   6.348   8.444   2.551 -0.1606  0.0187  0.0991
23472W        W38941   6.659  13.848   4.491  0.1148 -0.0181 -0.0207
23473W        W38942   6.693  12.424   0.132  0.1111 -0.2088 -0.1352
23474W        W38943   7.163   0.298   3.400 -0.2226  0.2186 -0.1032
23475W        W38944   6.316   1.535   0.304  0.0883  0.0275  0.0874
23476W        W38945  12.761  16.059  11.665 -0.0171  0.2959 -0.0993
23477W        W38946   0.769  13.783   5.232 -0.0844 -0.0424 -0.1913
23478W        W38947  11.511   4.229   1.263  0.1166 -0.0236 -0.2219
23479W        W38948   6.505   4.676  13.289  0.0833  0.0254  0.1662
23480W        W38949   4.860  18.053  14.923 -0.1358  0.4551 -0.0874
23481W        W38950   4.807   3.952  11.737 -0.0703 -0.1113  0.2308
23482W        W38951   2.907  11.359   0.618  0.0365 -0.0624  0.0531
23483W        W38952   3.528   6.319  13.209 -0.0328  0.3611 -0.1383
23484W        W38953   9.770  12.620  13.280  0.0493  0.2102 -0.0067
23485W        W38954   4.755   4.859  11.782 -0.0218  0.4390  0.3112
23486W        W38955  14.036   2.606  13.043 -0.1840 -0.0575  0.0845
23487W        W38956   4.680  11.578  13.825 -0.0481 -0.0558  0.2870
23488W        W38957  11.008  16.264   4.890  0.1220  0.0498  0.0925
23489W        W38958   7.767   4.416  11.924  0.1613  0.1024  0.0897
23490W        W38959   6.171   5.531  13.681 -0.3466  0.0397 -0.1906
23491W        W38960  11.249   6.223   1.529 -0.4782 -0.5227  0.2081
23492W        W38961   0.601   8.149   4.892 -0.0317 -0.2414  0.2891
23493W        W38962  16.813  14.354  11.718 -0.0113  0.2506  0.0269
23494W        W38963   3.072   9.015  12.752 -0.3021  0.0519  0.2902
23495W        W38964   4.066  16.566   4.041  0.2575  0.0014 -0.1372
23496W        W38965   0.780   8.171  15.166  0.2871 -0.0886 -0.0635
23497W        W38966  12.410   8.730   5.973  0.6888 -0.0336 -0.3266
23498W        W38967   6.169   4.339   0.991  0.1166  0.0053  0.0799
23499W        W38968  13.052  12.741   4.664  0.3186  0.1080 -0.1727
23500W        W38969  13.868   1.017   9.417 -0.0167  0.0431  0.0638
23501W        W38970   6.983   9.072   3.871 -0.0192 -0.2340  0.3575
23502W        W38971  13.645   7.950   0.513 -0.0853 -0.0951 -0.0062
23503W        W38972   6.344  16.937  11.539  0.0902 -0.0390  0.0151
23504W        W38973   5.632   3.431   2.398  0.0912  0.1220  0.0258
23505W        W38974  15.981  14.455  12.527  0.0180 -0.2778 -0.1393
23506W        W38975  14.149  16.719  14.305  0.0027 -0.2073  0.1139
23507W        W38976   0.776   3.884  13.351 -0.0731  0.1621 -0.0838
23508W        W38977   7.156   7.523  12.375  0.0476  0.2021 -0.2360
23509W        W38978  12.217   9.417   0.170 -0.1045 -0.3211  0.2409
23510W        W38979   2.822  16.485   3.262 -0.0272 -0.0089  0.0298
23511W        W38980  13.199   1.680  13.669 -0.1464  0.1585  0.0587
23512W        W38981  18.681   1.654   1.718  0.0326 -0.2194  0.1923
23513W        W38982  14.378  18.621  13.240  0.0531  0.1358  0.0788
23514W        W38983  10.018   2.099   4.329 -0.0718  0.1524 -0.2029
23515W        W38984   8.311  10.847  14.324 -0.0863  0.0976 -0.0447
23516W        W38985  16.125   9.411   3.492  0.0893  0.2553 -0.2054
23517W        W38986  10.484   5.352  11.940 -0.5365 -0.0058 -0.0511
23518W        W38987   6.964  12.945   2.290  0.2103 -0.2939  0.4262
23519W        W38988   6.670   5.388  13.784  0.0547  0.2180 -0.1175
23520W        W38989  12.601  13.860   2.406 -0.2370 -0.1085 -0.0090
23521W        W38990   4.159   2.082   4.476  0.1211 -0.0421  0.1618
23522W        W38991   1.880   0.666  11.658 -0.1159 -0.1140 -0.0332
23523W        W38992   2.493  14.259  15.138  0.0380 -0.0936  0.2403
23524W        W38993   4.567   9.953  10.813  0.0643 -0.0773  0.1637
23525W        W38994   6.769  11.038  14.011  0.0572 -0.0147 -0.0218
23526W        W38995   8.214   0.551  14.755 -0.0922 -0.0209  0.0526
23527W        W38996   4.436  16.848   1.430 -0.3409 -0.2306 -0.0747
23528W        W38997   6.992   3.716  12.230 -0.0823  0.0551  0.1035
23529W        W38998   1.680  11.503  14.317 -0.4697  0.0139  0.3385
23530W        W38999   8.944   4.532  11.006  0.1662  0.1523 -0.0146
23531W        W39000  13.227   5.050   4.173  0.0055  0.3883 -0.0473
23532W        W39001   4.556   6.989   2.690 -0.3872  0.3219  0.0520
23533W        W39002  17.480  10.918  14.391  0.0285 -0.0156  0.0153
23534W        W39003  15.569  11.049   5.057  0.5400  0.0676  0.0699
23535W        W39004   5.999   8.433  13.109 -0.0513  0.0436 -0.3075
23536W        W39005   0.759   8.830   2.861 -0.0143 -0.0808 -0.1598
23537W        W39006   9.883  11.536  11.819  0.6237  0.2767 -0.1963
23538W        W39007  13.919   6.659  14.770 -0.0331 -0.2093 -0.2429
23539W        W39008   6.436   3.006   2.852  0.1321  0.1160  0.0294
23540W        W39009   9.844   2.177  12.487 -0.0164  0.0793  0.0907
23541W        W39010   4.197  18.457   5.012  0.1311 -0.1688  0.7164
23542W        W39011  16.484   7.154   2.677 -0.3285 -0.2131  0.4000
23543W        W39012  17.059   1.040  10.815 -0.2276  0.1347  0.1572
23544W        W39013  16.961  13.576  15.189 -0.0717 -0.0473 -0.1231
23545W        W39014  11.615  14.052   2.783  0.0803 -0.0613 -0.0869
23546W        W39015   3.713  13.664   3.915 -0.1297 -0.1113  0.1241
23547W        W39016  17.215  12.757  13.587  0.0306  0.1414 -0.2990
23548W        W39017   8.705   8.315  12.742  0.2952 -0.1111 -0.2842
23549W        W39018   6.844  15.223   2.312  0.0820 -0.1609  0.0833
23550W        W39019  10.265  11.512  12.611 -0.1203  0.3262  0.0898
23551W        W39020  16.689  14.979   5.664  0.2791  0.2255 -0.0296
23552W        W39021  18.279   7.448   1.395  0.3837 -0.1770  0.0236
23553W        W39022   8.230   3.800  11.445 -0.0056  0.1278 -0.2108
23554W        W39023  10.459  12.518   3.633  0.0603  0.1313 -0.0937
23555W        W39024   0.092   3.279  14.101 -0.0407  0.1526  0.0876
23556W        W39025   1.633  17.688  14.081 -0.1942  0.0410 -0.3109
23557W        W39026   4.307   4.922   3.698  0.2248  0.0546  0.0206
23558W        W39027   6.550  12.757  11.014  0.1076 -0.1432 -0.1078
23559W        W39028   5.406   8.008   5.044  0.0521 -0.1034 -0.0862
23560W        W39029   7.078  12.334   4.203 -0.1048  0.0141 -0.0801
23561W        W39030   0.836   4.787  13.524  0.2959 -0.2818 -0.1889
23562W        W39031   0.955  14.152   2.352 -0.1155 -0.3018 -0.1436
23563W        W39032  14.763   0.154   0.955  0.0089 -0.2242 -0.1406
23564W        W39033   3.117   6.515   4.888  0.0419 -0.2811  0.1533
23565W        W39034  18.289  14.032  14.813  0.2056 -0.1170  0.2380
23566W        W39035   0.214  16.615   0.903 -0.2019  0.0249 -0.1300
23567W        W39036   0.009   4.235  14.334  0.1942 -0.0108  0.3079
23568W        W39037  14.966   3.658   3.109  0.3937  0.1132 -0.0620
23569W        W39038   6.201   6.512  15.601  0.1289 -0.0667  0.1622
23570W        W39039  11.973   0.819   1.299  0.1371  0.2630  0.0674
23571W        W39040   1.107   6.615  15.598  0.2450  0.2429  0.1977
23572W        W39041   8.563   3.345  15.484  0.1531 -0.0684  0.1371
23573W        W39042  12.355  18.143   5.358 -0.1519  0.1429  0.0350
23574W        W39043  14.053  17.857   0.501 -0.0770 -0.4580 -0.0622
23575W        W39044  16.296   6.569  11.374  0.1213  0.0954  0.1713
23576W        W39045   5.163  16.422  12.059 -0.0612 -0.0164  0.0787
23577W        W39046   3.765   1.156   2.475  0.0047  0.3373  0.0593
23578W        W39047   9.606   5.941  14.382 -0.1143  0.0361  0.3243
23579W        W39048   0.465   6.568   2.505 -0.1192  0.1633 -0.0754
23580W        W39049   9.755   4.819  12.396 -0.2824 -0.0642  0.2029
23581W        W39050  10.888   5.392  12.943 -0.0695  0.0011  0.3075
23582W        W39051  17.283   6.505  14.482  0.4238  0.1618  0.0611
23583W        W39052   3.032  11.012   1.359  0.0654  0.0987 -0.0638
23584W        W39053  10.528  15.142  14.180 -0.0472  0.0051 -0.3440
23585W        W39054   1.134   2.301   1.174 -0.4576  0.4249  0.1444
23586W        W39055   3.626   3.344  11.031  0.1015  0.0155 -0.1020
23587W        W39056   3.217   5.626   5.096 -0.1618 -0.0535 -0.2598
23588W        W39057   6.339   5.209   1.947  0.5873  0.0612  0.1798
23589W        W39058  15.527  10.780  14.723 -0.0493 -0.2646 -0.1304
23590W        W39059   5.156   6.765   3.540  0.2572  0.2809  0.2379
23591W        W39060   6.009   0.882  11.810  0.2038 -0.0548 -0.3010
23592W        W39061  17.875   6.012   5.488  0.0036 -0.2844  0.1542
23593W        W39062   0.324  13.847  13.391 -0.0481 -0.2687  0.1771
23594W        W39063   1.879   3.876   3.951  0.0770 -0.0204 -0.0626
23595W        W39064  18.353   2.911   5.071  0.1875 -0.1754 -0.1262
23596W        W39065   4.654  17.365  10.834 -0.0374 -0.0443 -0.1241
23597W        W39066   9.427   4.464  10.725 -0.0613  0.2585  0.2365
23598W        W39067   2.414  10.440  12.019  0.1610 -0.0672 -0.1379
23599W        W39068   0.712  17.324  11.747  0.0491 -0.0844 -0.2102
23600W        W39069  12.887   7.651   4.852  0.0337 -0.3533 -0.3932
23601W        W39070  12.588  10.792  15.283 -0.2993  0.0025  0.1938
23602W        W39071   9.991   8.641  11.464  0.1452 -0.2204 -0.4603
23603W        W39072   2.940  14.812  14.198 -0.2154  0.0547 -0.0748
23604W        W39073  11.675   7.362  13.153 -0.3456 -0.2938 -0.0003
23605W        W39074  13.048   3.272   2.789 -0.3673  0.1022  0.0637
23606W        W39075  16.867  13.601  14.517 -0.1500  0.0329  0.0758
23607W        W39076   5.736   2.276  15.458  0.1552  0.3055  0.0255
23608W        W39077   6.284   2.224   5.564 -0.0449  0.1096 -0.1511
23609W        W39078   6.081   3.949  10.657  0.3539  0.0875 -0.1121
23610W        W39079   4.311  14.383  11.393 -0.3671 -0.2496 -0.0319
23611W        W39080  15.562   2.166   0.357 -0.0955 -0.2419  0.1541
23612W        W39081   8.761   5.248   4.470  0.0121  0.0390 -0.1950
23613W        W39082   6.299  12.543   4.372  0.2195 -0.2094  0.2985
23614W        W39083   7.817   0.553  12.075  0.0601 -0.0740  0.1519
23615W        W39084  10.087  12.228  12.615  0.4709  0.0940  0.0551
23616W        W39085  11.783   3.501   2.885 -0.1938  0.1685 -0.0294
23617W        W39086  11.710   0.115   4.628  0.1285 -0.2093  0.0375
23618W        W39087  17.022   9.566  10.907  0.0429  0.3164  0.2401
23619W        W39088  16.180  10.923  11.736  0.0097 -0.0425 -0.2778
23620W        W39089  11.199   9.747  13.176  0.0250  0.0973  0.1836
23621W        W39090   2.325   2.176  13.909 -0.0121 -0.0796  0.0584
23622W        W39091   0.756  13.945  14.617 -0.2897  0.0024 -0.2184
23623W        W39092  12.328  12.358   1.093  0.2499  0.0575  0.1337
23624W        W39093   6.324  10.234  13.716 -0.1142 -0.0425  0.1075
23625W        W39094  11.902   7.365   4.523  0.0376 -0.1222 -0.2900
23626W        W39095   8.899   9.338   2.657 -0.2000  0.0541  0.0623
23627W        W39096   7.208  15.356   9.972 -0.0301 -0.3342 -0.2877
23628W        W39097  10.351  17.488  14.303  0.3161 -0.3278  0.0201
23629W        W39098  12.397   7.629   3.589 -0.2973 -0.1737 -0.0691
23630W        W39099   7.895   2.601  13.695  0.4532 -0.0004 -0.0746
23631W        W39100  14.094   1.918   0.651  0.2173  0.1521 -0.4823
23632W        W39101   0.852   8.545   1.559 -0.0826  0.2201  0.0820
23633W        W39102   9.838  10.147  12.477 -0.1636 -0.2793  0.1609
23634W        W39103   3.318   1.531   5.701 -0.1124  0.2498  0.0603
23635W        W39104   5.028  12.657  10.595 -0.1425  0.0518 -0.2579
23636W        W39105  15.158   2.957  12.288 -0.1651 -0.0071  0.1947
23637W        W39106  12.383   5.400  15.632  0.2789  0.2942 -0.0665
23638W        W39107  16.053  18.386  13.434  0.0410  0.1309 -0.2628
23639W        W39108  13.587  17.284   2.800 -0.0520  0.3609 -0.0916
23640W        W39109  10.111   8.841  10.551 -0.0107  0.3379 -0.0444
23641W        W39110   7.154   0.205   1.034  0.1024 -0.3691 -0.1531
23642W        W39111  17.994  12.342  15.454 -0.1129  0.2315 -0.1359
23643W        W39112  18.311  14.803   4.316  0.2054  0.0437 -0.0061
23644W        W39113   8.334   6.250   2.899  0.4172  0.0326  0.1832
23645W        W39114  10.997  17.203   3.945  0.1753  0.1147 -0.1968
23646W        W39115  17.718   9.297   1.646  0.0533  0.0777  0.5774
23647W        W39116   8.293   2.367   4.268 -0.2553  0.1141  0.0441
23648W        W39117  18.660   9.816  15.369 -0.1516 -0.3383  0.0151
23649W        W39118   0.297  16.654   2.933  0.2827  0.0546 -0.0733
23650W        W39119   8.692   5.830  12.210  0.0552 -0.1707  0.1811
23651W        W39120   2.779   5.057  14.225 -0.3903  0.0113  0.3547
23652W        W39121   9.807  10.620   2.674  0.1938  0.0242  0.0552
23653W        W39122  14.520   8.989   5.701 -0.2671 -0.0248 -0.0178
23654W        W39123   1.615  18.154  13.927  0.0021  0.0387  0.0959
23655W        W39124   7.200  13.459   2.393 -0.3165 -0.2161 -0.0765
23656W        W39125  13.914   0.658  12.453  0.4623 -0.0165 -0.0954
23657W        W39126  16.192  15.492  12.101 -0.0856  0.1181 -0.2060
23658W        W39127  12.708   5.717   0.205  0.1885  0.1653 -0.2533
23659W        W39128  13.474   7.225  13.313 -0.1251  0.2431 -0.2201
23660W        W39129  13.833  17.672  14.441 -0.0854  0.0108 -0.1283
23661W        W39130   1.389   4.246   2.286 -0.3187 -0.1324 -0.0830
23662W        W39131   9.458  15.644  10.759  0.1177 -0.0696 -0.0058
23663W        W39132   4.251  14.969   2.890 -0.2784  0.0992  0.2340
23664W        W39133  14.609   7.454   2.258 -0.2801 -0.0860 -0.0282
23665W        W39134  13.023  13.755   0.073 -0.0846 -0.1494 -0.0572
23666W        W39135  15.526  13.664   2.984  0.0223 -0.1646  0.0595
23667W        W39136  15.756   0.332   1.883 -0.0433 -0.2183  0.1388
23668W        W39137   2.537  11.403   2.210  0.0115 -0.1216  0.0784
23669W        W39138   2.496   0.798  15.350  0.3352  0.3029 -0.1545
23670W        W39139  15.387  10.551  11.442 -0.1569  0.3855 -0.0208
23671W        W39140  18.576   5.166  10.215  0.0042 -0.2153  0.1870
23672W        W39141  13.992  17.253   3.292 -0.1174  0.0890 -0.0533
23673W        W39142   9.805   2.182  11.435 -0.1748  0.1468 -0.0087
23674W        W39143   5.527  18.294   1.261  0.2348 -0.3794  0.0222
23675W        W39144   2.065  11.687   4.821  0.1450  0.2002 -0.3026
23676W        W39145  11.211  16.900  14.570  0.3987  0.0179 -0.0284
23677W        W39146  10.037  11.981   1.946 -0.0136 -0.1920 -0.2918
23678W        W39147  15.000   8.171  11.569 -0.2234  0.3735  0.1402
23679W        W39148  14.360  18.322   2.081 -0.2858  0.3230  0.4045
23680W        W39149   7.969   8.618   2.649 -0.1502 -0.1622  0.0902
23681W        W39150  12.879  14.897  15.057 -0.2070  0.0514 -0.2387
23682W        W39151   1.967  18.020   2.053 -0.0392  0.1846  0.1181
23683W        W39152  14.164   2.066  12.251 -0.0873  0.0484 -0.1636
23684W        W39153   1.379   0.914   0.657 -0.3047  0.1364  0.0198
23685W        W39154   9.528   2.802  13.457  0.1053 -0.1863  0.0554
23686W        W39155   5.192  15.916  12.513 -0.0425  0.0503 -0.0239
23687W        W39156  12.836   5.326   4.442 -0.3341  0.1730  0.0930
23688W        W39157   1.183   8.276  14.758 -0.1410 -0.4085 -0.0783
23689W        W39158   9.622  15.604   1.117  0.1001  0.3519  0.0866
23690W        W39159  10.340   1.626  14.764 -0.0002  0.0853 -0.2226
23691W        W39160  10.723   8.509   2.491 -0.1422 -0.2092  0.2606
23692W        W39161   7.398   4.624  12.838  0.1023  0.0350  0.1783
23693W        W39162   3.806   2.505   2.210 -0.1265  0.1907 -0.2961
23694W        W39163   2.028  15.614  15.410 -0.2176  0.2048  0.0783
23695W        W39164  15.895   3.662   4.203  0.0194  0.0267  0.1575
23696W        W39165   7.305  12.773  14.543 -0.0836 -0.0370 -0.0118
23697W        W39166  16.832   7.717  11.015  0.0335  0.0339  0.0328
23698W        W39167   6.234   5.270  11.482  0.1315  0.0362 -0.2724
23699W        W39168   4.006  12.990  14.911 -0.1788  0.1121 -0.2066
23700W        W39169  18.451  15.986   1.570  0.2014 -0.1672 -0.2401
23701W        W39170  15.929   2.544  11.829 -0.0030  0.0203  0.0485
23702W        W39171   5.129  14.983  10.314  0.1159 -0.2682  0.2703
23703W        W39172  14.631  17.635   4.983  0.0937 -0.1995 -0.3226
23704W        W39173   6.342  16.407   2.856 -0.4107  0.1072 -0.1770
23705W        W39174  10.387   9.263   5.509 -0.0658  0.0265  0.0464
23706W        W39175   6.065   8.534  15.522  0.0401 -0.0537 -0.2711
23707W        W39176  16.330   7.835  12.229 -0.5832 -0.0629  0.0147
23708W        W39177   9.680  11.946  15.315 -0.0211  0.0048 -0.1537
23709W        W39178  14.567   5.430   0.359  0.3199  0.2187 -0.0465
23710W        W39179   9.207   1.294  11.106  0.1926 -0.1394 -0.0112
23711W        W39180  15.373  13.279   1.014 -0.0803  0.1717 -0.2093
23712W        W39181   9.172  10.898   1.737 -0.1383  0.0655 -0.1984
23713W        W39182   2.513  15.671   3.530  0.0556  0.1024  0.0540
23714W        W39183   3.661  17.820   1.975  0.1693 -0.0503  0.2747
23715W        W39184   9.859   6.930  11.338  0.1120 -0.1606 -0.0913
23716W        W39185   9.703   7.444  14.618 -0.0398 -0.1631 -0.1300
23717W        W39186   9.320   3.240  12.196  0.1081  0.1501  0.3433
23718W        W39187  17.204   6.517   2.564  0.1669 -0.0960  0.2455
23719W        W39188  13.591   4.406   1.313  0.1262  0.3679  0.0995
23720W        W39189  13.745   4.914   0.102  0.1503 -0.0251 -0.1167
23721W        W39190   9.782  13.922   5.226 -0.1950 -0.3186  0.2521
23722W        W39191   0.725   3.173   3.275 -0.1333 -0.2006 -0.0720
23723W        W39192   1.257   5.272  14.224  0.0833  0.1263  0.0065
23724W        W39193   3.185  11.782  11.835 -0.0677 -0.0851  0.0086
23725W        W39194  15.201   4.760   1.761 -0.0066  0.3562 -0.1109
23726W        W39195  11.608  15.966   3.646  0.0242 -0.1174 -0.1005
23727W        W39196  13.441   0.973   3.708  0.2043 -0.0751  0.0193
23728W        W39197  16.174  11.465   3.483  0.2515  0.0611  0.0492
23729W        W39198  14.631   7.979  12.848 -0.1007  0.0316 -0.1097
23730W        W39199  11.721   4.682  14.449  0.0109 -0.3102  0.5030
23731W        W39200  15.740  17.227  12.420  0.2749 -0.0510 -0.0335
23732W        W39201   0.630  16.949  10.776 -0.2713 -0.5255  0.4006
23733W        W39202  17.909  10.776  10.769  0.0489 -0.1819  0.2935
23734W        W39203   8.314   1.721  13.908  0.1515 -0.0633 -0.0074
23735W        W39204   3.335   6.962  12.640  0.1988  0.0504  0.1598
23736W        W39205   9.684  14.225  10.693  0.2885  0.3160  0.0932
23737W        W39206   3.825   8.621  14.770  0.4070 -0.0742 -0.0236
23738W        W39207   0.277   2.516  11.758 -0.0967 -0.0942 -0.1923
23739W        W39208  15.223  12.920   3.855 -0.3875  0.0637  0.0298
23740W        W39209   1.336   9.102   3.631 -0.0152 -0.0384  0.0836
23741W        W39210  17.240  10.077   3.420  0.0684 -0.0196  0.0636
23742W        W39211   7.522   9.161   2.688  0.0085 -0.0665  0.1975
23743W        W39212   9.898  10.610  11.464 -0.0006 -0.1080  0.1620
23744W        W39213   2.360   0.416   5.154 -0.1154  0.0321  0.1309
23745W        W39214   2.362  17.984   3.258 -0.0336 -0.3537 -0.1449
23746W        W39215  18.353   4.125  10.604  0.0767 -0.1242 -0.1856
23747W        W39216   8.947  18.703   0.205 -0.0434 -0.0724 -0.1281
23748W        W39217  12.028  10.619   4.515 -0.0569 -0.1934  0.0620
23749W        W39218   8.243  10.463  12.312 -0.0401  0.2400 -0.2404
23750W        W39219  11.979  17.936  13.201 -0.2939 -0.1511 -0.1770
23751W        W39220   7.993   5.342   2.814 -0.1343 -0.0555 -0.0596
23752W        W39221   8.180   8.731  11.167  0.1083  0.2184 -0.1332
23753W        W39222   1.436   0.913   0.141  0.1106  0.0799 -0.1190
23754W        W39223  18.722   1.110   3.928 -0.0468  0.1588 -0.1776
23755W        W39224   5.904   8.696  13.583  0.1933  0.2435  0.1395
23756W        W39225   9.473  14.754   2.360 -0.0672 -0.1957 -0.1203
23757W        W39226   0.080  10.333  11.653 -0.0906  0.0699 -0.1293
23758W        W39227   9.488   0.068  14.790  0.1237  0.1996  0.1303
23759W        W39228   2.024   7.165  15.561  0.0085  0.1948 -0.2176
23760W        W39229  14.046  12.161   5.271 -0.1991 -0.2929  0.2198
23761W        W39230   9.964   3.552   2.553 -0.2433 -0.0862 -0.3416
23762W        W39231   3.309  10.210  12.877 -0.4846  0.3341  0.3512
23763W        W39232  11.871  10.698   3.904 -0.1357  0.4034 -0.0478
23764W        W39233  15.606   6.149   2.808  0.0487 -0.0125 -0.1534
23765W        W39234   5.563   6.011  13.996 -0.1941  0.1179  0.2988
23766W        W39235  18.559   8.623  14.265  0.0950 -0.2688 -0.1047
23767W        W39236   9.081   8.840  13.845  0.1948  0.1859 -0.0595
23768W        W39237  10.043  16.679  13.111 -0.1306 -0.0572 -0.0160
23769W        W39238   0.724   5.271  13.481 -0.1266 -0.2765  0.0935
23770W        W39239   1.852  15.736   4.146  0.4650 -0.0388  0.0621
23771W        W39240   3.902  17.125   1.356 -0.0167  0.0108  0.1339
23772W        W39241   8.697  16.634  11.013 -0.1260  0.3540 -0.3797
23773W        W39242  12.122  14.149   0.452  0.2432  0.3262 -0.0179
23774W        W39243  10.948  13.209   4.792 -0.1037  0.1776  0.0014
23775W        W39244  18.182  13.695   0.658  0.0182  0.1951 -0.0730
23776W        W39245  14.288  15.397  10.905  0.0017 -0.0637 -0.0753
23777W        W39246  11.347  11.309   1.264 -0.2287  0.0044 -0.2629
23778W        W39247   0.630   4.486   0.590  0.4246 -0.0759 -0.1265
23779W        W39248  10.713  13.008   2.603  0.0790 -0.2509  0.3042
23780W        W39249   8.800  15.683  11.192 -0.2421 -0.1071 -0.2615
23781W        W39250   5.237  11.140  12.472 -0.0311 -0.0440  0.2317
23782W        W39251   7.983   3.430   1.119  0.0249  0.0987 -0.3514
23783W        W39252   1.025   9.041  12.416  0.2859  0.3738 -0.4501
23784W        W39253  12.304   5.316  13.372  0.0323  0.2156 -0.1744
23785W        W39254   5.586  12.401   0.912 -0.0816 -0.1360  0.1117
23786W        W39255   4.237  11.156  10.677  0.0387  0.2643 -0.3871
23787W        W39256   1.909   4.840   4.401  0.0383  0.1064  0.1537
23788W        W39257   7.927   3.767   4.201 -0.1205  0.0913 -0.1814
23789W        W39258   9.622  14.038   4.588 -0.3704 -0.0154 -0.0612
23790W        W39259  10.333   8.098   1.208  0.0979 -0.2071 -0.2194
23791W        W39260   8.930   9.982  12.256 -0.3314  0.2956  0.0147
23792W        W39261   7.214   3.911  10.970  0.0208  0.1107  0.2153
23793W        W39262  16.601   6.340  12.060  0.1538 -0.0495 -0.0076
23794W        W39263  11.340   1.696   3.474 -0.5074 -0.0680 -0.3568
23795W        W39264   2.658  11.801   1.836 -0.0596 -0.0223  0.2121
23796W        W39265  17.978   2.349  14.364  0.5177 -0.3358 -0.0526
23797W        W39266   9.218  14.637   4.674 -0.1112 -0.0622  0.3222
23798W        W39267   4.723   7.084  14.293 -0.0592 -0.1681 -0.0923
23799W        W39268   8.846   1.303   1.935  0.2598  0.0438 -0.3185
23800W        W39269   1.173  12.406   3.498 -0.3442  0.0435 -0.1557
23801W        W39270   3.384   0.520   3.763 -0.0420  0.0092 -0.2349
23802W        W39271   7.460   7.522  10.152  0.0731 -0.2963  0.0908
23803W        W39272   5.056   8.428   0.627 -0.2023  0.0020 -0.0604
23804W        W39273  16.607   1.622  13.826 -0.0008  0.4202  0.1024
23805W        W39274   1.930  14.064   3.225  0.1528 -0.0316 -0.0103
23806W        W39275  15.250  12.894   2.400 -0.3189 -0.1305 -0.2362
23807W        W39276  13.293  11.181   0.434  0.3386  0.0343 -0.1040
23808W        W39277   7.192  11.521   4.598  0.0754  0.0713  0.2712
23809W        W39278   1.203   1.736   1.076  0.0946  0.0190  0.0711
23810W        W39279   1.760   4.659  15.372 -0.2905 -0.3161  0.3196
23811W        W39280   0.950   6.482  11.489  0.2247  0.1458 -0.2967
23812W        W39281   8.745   0.533   3.473  0.2276 -0.0140  0.1173
23813W        W39282   0.263   1.080   3.023 -0.0267  0.0557 -0.1360
23814W        W39283   4.769  10.382  12.013  0.1029 -0.1228  0.2965
23815W        W39284  17.137   1.132   0.212 -0.0227  0.1360 -0.0842
23816W        W39285   7.625  17.677  15.362  0.0031  0.1877 -0.3832
23817W        W39286  13.563   6.155   1.023 -0.0360  0.0157 -0.0524
23818W        W39287  16.084  18.065  12.973  0.1244  0.1042  0.1888
23819W        W39288  11.582  17.785  12.845  0.0231 -0.2713 -0.1021
23820W        W39289   7.500   2.391   4.349  0.0085  0.1868 -0.1086
23821W        W39290   2.248  11.326  15.303  0.2255 -0.2276  0.2400
23822W        W39291  14.455   3.986  11.390 -0.3318 -0.0542 -0.0981
23823W        W39292   8.634   7.549  10.733 -0.2456  0.1367  0.0262
23824W        W39293  17.928   2.811   1.715  0.1964  0.0107 -0.0118
23825W        W39294  18.252  11.720   4.111 -0.0272 -0.0136  0.0104
23826W        W39295   1.915  11.263  11.743 -0.0893 -0.0198 -0.3686
23827W        W39296  17.757   3.784   4.229  0.0570 -0.0793 -0.1825
23828W        W39297  17.828  17.674  13.500  0.0258  0.2918 -0.1372
23829W        W39298  14.643  12.179  10.228 -0.0406  0.0095 -0.1421
23830W        W39299  12.723   2.666   5.011 -0.1491 -0.3711  0.1711
23831W        W39300   5.948  17.919  14.847 -0.0175  0.1301  0.1144
23832W        W39301   7.297   7.505   0.776  0.3209  0.1019 -0.4583
23833W        W39302  12.926  17.642  13.547  0.0821 -0.0360 -0.3759
23834W        W39303   0.318  10.639  11.365  0.1891 -0.1895  0.1793
23835W        W39304   1.058  17.218   5.156  0.3003  0.2101  0.0154
23836W        W39305  12.579  11.983  12.932  0.1563  0.1521  0.0418
23837W        W39306  17.393  18.154  15.576  0.1764  0.0974  0.0179
23838W        W39307  11.772   8.676   4.678  0.3078  0.0059  0.1786
23839W        W39308  13.592  17.116   3.674 -0.3169 -0.2592  0.1003
23840W        W39309  15.469  12.037   4.162 -0.1138  0.3436 -0.1952
23841W        W39310  14.594   0.360   0.179  0.1176  0.1763 -0.0664
23842W        W39311   4.335  14.441  10.894 -0.2056 -0.3312  0.1202
23843W        W39312   8.171  10.959   5.068  0.2635  0.2411 -0.0450
23844W        W39313   0.576   3.681   0.899 -0.0143 -0.1714 -0.3617
23845W        W39314   9.048  16.018  11.684  0.0382 -0.1317 -0.2540
23846W        W39315   6.303  15.369  13.677 -0.1903  0.2193  0.0773
23847W        W39316   3.555  14.517   0.443  0.1514  0.0088  0.0248
23848W        W39317  12.696  13.224   0.631 -0.1791  0.0215  0.2683
23849W        W39318   7.539   1.782  14.214 -0.0613  0.3886  0.2846
23850W        W39319  17.943  12.001   3.747 -0.2616 -0.1863  0.0408
23851W        W39320   9.601   3.096  10.174  0.4517  0.0060 -0.3623
23852W        W39321  10.885  13.925  14.545 -0.0573  0.1999  0.0591
23853W        W39322  18.570  15.917   4.568  0.2329 -0.1119 -0.1706
23854W        W39323   2.647  11.881  11.327 -0.0471  0.0514  0.2243
23855W        W39324  13.382   6.251   2.104  0.0294 -0.2060  0.0697
23856W        W39325  15.020   6.694  11.622  0.2438  0.1676 -0.0375
23857W        W39326   2.786   1.818  10.238  0.0097 -0.1167  0.1869
23858W        W39327   8.437   5.582   2.610 -0.2220 -0.2035 -0.0141
23859W        W39328   7.635   7.760  13.275  0.0103 -0.0882  0.2469
23860W        W39329   8.329  12.783  14.302  0.2058 -0.2310  0.0840
23861W        W39330   3.558   4.092   4.652  0.2210 -0.1134  0.4311
23862W        W39331   3.175   7.543   3.000 -0.1190 -0.0908  0.2701
23863W        W39332  16.695   0.805  12.168  0.1747  0.1152  0.1846
23864W        W39333   4.977   4.092   0.354 -0.0434 -0.0768 -0.0728
23865W        W39334  18.698   7.350  12.984  0.3518  0.0087 -0.0965
23866W        W39335   8.987  16.318  14.147  0.0247 -0.0744 -0.1128
23867W        W39336  18.504  16.375   6.033  0.2004 -0.1750  0.1669
23868W        W39337   7.305  13.972  13.565 -0.1052 -0.1330  0.1600
23869W        W39338   1.458   8.988   2.251  0.1292  0.1100 -0.0674
23870W        W39339   6.383   0.724   0.018  0.1248 -0.2085  0.0155
23871W        W39340  16.426  10.711   2.913  0.0131  0.1202  0.1804
23872W        W39341   5.615   8.700   3.789  0.0448 -0.0482 -0.1594
23873W        W39342  18.053   3.153   2.622  0.1885 -0.0296 -0.1232
23874W        W39343  14.652   3.448   2.774  0.1982  0.1827 -0.1606
23875W        W39344   7.511   2.790   2.962 -0.0989  0.0488  0.1694
23876W        W39345  18.634  15.445   0.569  0.1312 -0.0035  0.0719
23877W        W39346  13.852   8.129   2.484  0.0040 -0.1699  0.1618
23878W        W39347   3.740   3.938   0.051  0.0217  0.1410 -0.6197
23879W        W39348  17.515   6.335  10.087  0.3227 -0.1087  0.2291
23880W        W39349   6.103   4.370   3.835  0.1816  0.2645 -0.2275
23881W        W39350   1.959  14.536   5.114 -0.2061 -0.1185  0.2643
23882W        W39351  12.975  12.591  14.902  0.0364  0.0390  0.2427
23883W        W39352   4.438  14.029  13.191  0.2964  0.0131  0.3863
23884W        W39353  12.470   1.809  13.228  0.3009 -0.0421 -0.0102
23885W        W39354  17.103  11.355   1.623 -0.1792 -0.1118  0.3609
23886W        W39355  14.050   0.127   3.562  0.0641  0.0985 -0.0120
23887W        W39356  16.021   6.362  14.249 -0.1750  0.2263 -0.0745
23888W        W39357  12.220   2.650   3.837 -0.1351  0.1956 -0.1175
23889W        W39358   5.704   8.026   2.390  0.0195  0.0787  0.1389
23890W        W39359   4.277  13.476   0.057 -0.0677  0.2616 -0.0389
23891W        W39360   6.683   6.656   4.756 -0.0100 -0.1958  0.1258
23892W        W39361  12.237  18.052   0.563  0.0982  0.0232  0.4224
23893W        W39362  14.813  10.343   4.647  0.0738  0.1466  0.0481
23894W        W39363   3.901  10.990   0.538  0.3193  0.2730  0.0073
23895W        W39364   2.171  17.187  12.943 -0.0505  0.2468 -0.1289
23896W        W39365  13.859   8.285   3.646 -0.1553  0.0959  0.0232
23897W        W39366  10.250  11.233  13.768  0.5004 -0.0780  0.2195
23898W        W39367   8.472  17.094  13.806 -0.1356  0.1728  0.1253
23899W        W39368  12.202  10.616   0.397  0.1140  0.4098  0.1132
23900W        W39369   0.840  13.137  11.665  0.3679  0.2227  0.1635
23901W        W39370   8.260   1.725  15.439  0.2982 -0.1264  0.2489
23902W        W39371   4.640  13.939  12.251  0.3043  0.0279  0.0941
23903W        W39372  15.342  16.319   4.481  0.1930  0.0490 -0.1479
23904W        W39373   2.675   2.878   0.720  0.3393  0.0908  0.0310
23905W        W39374   4.665   3.913  12.580  0.2091 -0.0346  0.2903
23906W        W39375   1.564   0.442   0.103 -0.0386 -0.2353  0.0323
23907W        W39376   6.584   3.444   2.659 -0.0069  0.1536 -0.0997
23908W        W39377  16.697   1.413   0.932 -0.1288 -0.2499  0.0647
23909W        W39378  12.447  10.239   3.825 -0.1711  0.0876  0.0944
23910W        W39379  11.575  10.510  11.523 -0.0982  0.1409  0.1541
23911W        W39380   7.457   3.089  15.558  0.1929  0.0676  0.1057
23912W        W39381  13.989  18.250  13.319  0.1655  0.1891  0.1137
23913W        W39382   9.844   6.078   5.632  0.0092 -0.0373  0.2490
23914W        W39383  16.096   8.829   1.086 -0.1908 -0.0526 -0.0844
23915W        W39384  16.633   7.064  15.042  0.0267 -0.2098 -0.4067
23916W        W39385   2.579  16.848   0.406 -0.2848 -0.1844 -0.0330
23917W        W39386  16.334   1.592   2.380  0.2223  0.1056  0.3866
23918W        W39387   8.929  14.358  11.119 -0.3623 -0.1099  0.3241
23919W        W39388   6.608   1.195   0.430  0.2874  0.0142  0.0499
23920W        W39389   5.083  14.255  15.134 -0.0781  0.0554 -0.4154
23921W        W39390   2.355   2.962   1.117 -0.0370 -0.0728 -0.3064
23922W        W39391  11.515  18.522   0.531  0.2031 -0.3312 -0.0590
23923W        W39392  15.322   1.866   3.788  0.1570 -0.0914 -0.0547
23924W        W39393   7.439   6.112   2.288  0.1570 -0.4195 -0.0285
23925W        W39394  10.640  17.775   1.430 -0.0625 -0.2436 -0.1963
23926W        W39395   0.963   5.793   0.859  0.1660  0.1712  0.0912
23927W        W39396   4.232   1.514  13.652  0.0514  0.2351  0.1935
23928W        W39397  16.311   3.973  13.341 -0.1946 -0.1508  0.2192
23929W        W39398   0.040   8.185  14.391 -0.2221 -0.1825  0.0659
23930W        W39399  18.646   1.662   4.903  0.1484  0.1054  0.0442
23931W        W39400  12.877  14.241   3.781  0.2546 -0.0978  0.0228
23932W        W39401   5.517   5.681  13.021 -0.0986  0.2760 -0.1584
23933W        W39402   0.742  17.437  14.998 -0.2242  0.1157 -0.2607
23934W        W39403   0.064   3.785  11.575 -0.3824  0.1570  0.1149
23935W        W39404   3.107   8.819  12.186  0.1487  0.1668  0.3225
23936W        W39405  13.744   1.170   3.318  0.1356 -0.4232 -0.1899
23937W        W39406  12.617  13.375  14.078  0.3147  0.0308 -0.0353
23938W        W39407   8.871  14.526   0.585 -0.0042 -0.0216 -0.0469
23939W        W39408   3.149  11.614  14.834  0.2441  0.0582  0.0960
23940W        W39409   6.276   5.262   2.499 -0.3758 -0.0289  0.1125
23941W        W39410   5.717   3.275   0.188  0.0410  0.0027  0.3295
23942W        W39411  17.313  18.520  11.826  0.0955  0.1058  0.2363
23943W        W39412   3.699  13.597   0.909  0.2433 -0.1374  0.1320
23944W        W39413  13.660   6.368   0.564  0.1679  0.1033 -0.2421
23945W        W39414  15.311   7.384  15.108  0.0813  0.0648 -0.2550
23946W        W39415   1.117  10.307   0.752 -0.3173 -0.1339  0.1204
23947W        W39416   4.175  14.604  14.055 -0.0410  0.1781 -0.2387
23948W        W39417   8.333   4.072  13.921 -0.0981  0.0597  0.3740
23949W        W39418   3.443  11.213   4.299  0.1480  0.0895 -0.3469
23950W        W39419   3.095   4.538   3.289 -0.2916 -0.0395  0.1364
23951W        W39420   1.041   4.399  11.190  0.1433 -0.0815 -0.1865
23952W        W39421  17.916   7.832  11.804 -0.2295 -0.0602 -0.3731
23953W        W39422   4.473  11.821  13.015  0.0099  0.0706  0.2226
23954W        W39423  17.849   7.676   1.954 -0.0984 -0.0052  0.3870
23955W        W39424  16.110   7.788  14.888 -0.1870  0.1058 -0.1754
23956W        W39425   7.631   7.175   0.733  0.2808 -0.0060  0.0239
23957W        W39426  18.699  15.320  14.520 -0.1126  0.3327 -0.2362
23958W        W39427   8.822  17.032  15.093 -0.0532  0.0669 -0.0599
23959W        W39428   3.746  18.667  15.466 -0.2599 -0.1822 -0.0790
23960W        W39429   5.398  14.986   0.629  0.1937 -0.0629  0.0629
23961W        W39430   8.915   3.502  10.475  0.1219  0.0331  0.2467
23962W        W39431   7.131  10.477  10.370 -0.1798  0.0605 -0.2210
23963W        W39432   8.522   0.771   1.262  0.1496 -0.1538 -0.0859
23964W        W39433  11.433   5.766   3.663  0.1540 -0.2842  0.1374
23965W        W39434  14.217   4.724   2.116  0.0989  0.0713  0.0681
23966W        W39435  12.500  10.878   1.733 -0.0193  0.0805  0.1816
23967W        W39436   5.666  10.807  10.090 -0.1922 -0.0391 -0.1175
23968W        W39437   2.833  17.798   3.335 -0.1406 -0.0787 -0.0795
23969W        W39438  14.934  11.691  12.565 -0.0216 -0.0465  0.0955
23970W        W39439   4.174   8.019  14.381 -0.2667 -0.4988  0.0937
23971W        W39440   7.582   8.496  12.826 -0.2689  0.0295  0.1602
23972W        W39441  13.498  10.102   4.581 -0.1500 -0.0644 -0.2847
23973W        W39442  13.893   2.719  15.556 -0.0990  0.0561 -0.0104
23974W        W39443   2.142   9.039   3.641  0.0122  0.1109  0.0579
23975W        W39444  15.209   4.691   2.575 -0.2402 -0.1400  0.1889
23976W        W39445   3.740  17.524   0.074 -0.3214  0.2465  0.0765
23977W        W39446   2.306  11.212  13.644 -0.1668  0.0603 -0.1802
23978W        W39447  10.825   0.962   0.731 -0.0287  0.1278  0.5182
23979W        W39448  16.744   5.574   6.035 -0.0296 -0.2690 -0.2348
23980W        W39449   2.016   6.650  12.416  0.0519 -0.0703  0.0876
23981W        W39450  13.433  13.346   2.826  0.1169 -0.2700  0.1556
23982W        W39451  10.010  11.782   4.109  0.1521  0.0975 -0.2776
23983W        W39452  16.140  16.425  13.626 -0.3362 -0.3112 -0.1554
23984W        W39453   1.308  10.888   3.902  0.0865  0.2435 -0.0780
23985W        W39454   1.811   9.181  10.972 -0.2299 -0.0217  0.1736
23986W        W39455   9.429  11.321  11.046  0.0223  0.1159 -0.0857
23987W        W39456   9.512  12.514   5.081 -0.0797 -0.0717  0.0004
23988W        W39457   9.531   5.645   3.314  0.2427  0.0552  0.1577
23989W        W39458   9.972  12.247   0.486  0.2293  0.2345  0.1143
23990W        W39459   1.110   1.265  12.619 -0.0382  0.0821  0.0927
23991W        W39460  15.788   2.054   3.568  0.1562 -0.4259 -0.1498
23992W        W39461  17.653   1.305  12.603 -0.2178 -0.1737 -0.1457
23993W        W39462   9.683  10.891   1.380 -0.1364  0.2087 -0.0829
23994W        W39463   9.305   1.226   0.264 -0.3669 -0.1500 -0.1852
23995W        W39464   0.491   6.513   0.776 -0.2073  0.0328 -0.0936
23996W        W39465   8.137   6.689  12.572 -0.3193 -0.0648 -0.2781
23997W        W39466   0.222   4.268  11.617 -0.0446  0.1345 -0.0528
23998W        W39467   3.166  10.136  11.391 -0.3230 -0.1033  0.1789
23999W        W39468   8.690   4.262  15.455  0.4564 -0.0526 -0.1443
24000W        W39469  14.679  15.578  13.042 -0.2391 -0.0499  0.0236
24001W        W39470   7.037  10.337   4.111  0.0340  0.2703 -0.2766
24002W        W39471   5.030  14.236  12.786  0.1096  0.1595  0.1873
24003W        W39472  16.477  13.483   4.812 -0.3331 -0.2186 -0.0563
24004W        W39473  12.150  15.965   1.194  0.1950 -0.1143  0.2611
24005W        W39474  10.098   5.651   1.892 -0.3372 -0.1113 -0.1806
24006W        W39475  10.244   2.214   1.724 -0.0496  0.3858  0.1644
24007W        W39476   3.393   0.041  11.422 -0.0286 -0.0143 -0.1318
24008W        W39477   5.109  18.008  10.719  0.0448 -0.0290 -0.0529
24009W        W39478   6.683   2.274   2.377  0.0919 -0.2643  0.0103
24010W        W39479   0.411   4.750  11.606  0.1138  0.2669  0.1908
24011W        W39480  12.535  14.842  11.277  0.2076  0.3085 -0.0536
24012W        W39481  17.512  17.879  12.665  0.1216 -0.0142  0.5951
24013W        W39482  11.968   6.416  14.022  0.2562 -0.1362  0.3938
24014W        W39483  12.277   8.107   3.538 -0.1244  0.1825  0.3086
24015W        W39484  14.808   5.566  14.551 -0.1009  0.1453 -0.2080
24016W        W39485  16.026  14.847  14.143  0.0968 -0.2769 -0.2102
24017W        W39486  10.852   2.196  14.708 -0.0858  0.2332  0.2767
24018W        W39487   0.356   3.597  14.736  0.2358  0.1023  0.4686
24019W        W39488  11.935  17.269  11.882 -0.5386  0.2730 -0.0036
24020W        W39489   4.580   1.318   4.701 -0.1215  0.0628  0.2957
24021W        W39490  12.495   1.114   3.908  0.2135 -0.1070  0.1472
24022W        W39491  17.374   8.426  10.556 -0.0820 -0.0210  0.5179
24023W        W39492   6.150  16.924  13.567 -0.0351 -0.2475 -0.3216
24024W        W39493   0.489  11.199  15.433  0.2583 -0.1929 -0.0762
24025W        W39494   3.083   7.894   4.436  0.0626 -0.0824 -0.0080
24026W        W39495   2.451  18.389  11.357  0.0131 -0.3324 -0.1992
24027W        W39496   7.363   6.659  14.960 -0.0924 -0.0084 -0.0411
24028W        W39497  17.638   9.118  11.501  0.2734 -0.1746 -0.0159
24029W        W39498  18.071  13.471   1.723  0.0113 -0.1436  0.2148
24030W        W39499   8.838   1.755  12.380 -0.0200 -0.3834 -0.1818
24031W        W39500  14.281  15.403  13.315  0.2730 -0.1482 -0.0366
24032W        W39501   2.094  13.266  15.488  0.1796 -0.0323  0.2272
24033W        W39502  18.748  12.415  15.202  0.2757 -0.0205  0.2835
24034W        W39503  12.562  16.164  12.700 -0.0702  0.5335  0.0790
24035W        W39504   1.148  14.854   2.328 -0.0324 -0.0798 -0.0866
24036W        W39505  11.574   2.686  11.989  0.2165  0.2071 -0.0268
24037W        W39506  13.683   8.074   1.124 -0.1103 -0.4670 -0.0292
24038W        W39507   3.757   1.688  15.062  0.0413 -0.0042 -0.0767
24039W        W39508  15.432   3.993   1.073  0.1248 -0.0862 -0.0882
24040W        W39509  10.519   6.750   1.711 -0.0369  0.3319 -0.2560
24041W        W39510   6.673  17.766   5.783 -0.0751 -0.1292 -0.0235
24042W        W39511   8.129   5.510   1.151 -0.1573 -0.0491  0.3251
24043W        W39512   0.058   0.671   3.747  0.2195 -0.0850  0.1872
24044W        W39513   5.023  13.351  11.924 -0.1362  0.1281 -0.0052
24045W        W39514  15.853  14.500  15.447  0.0005  0.1745 -0.0629
24046W        W39515   9.304   5.060   3.022  0.2167 -0.0522 -0.2531
24047W        W39516   1.158   6.504   2.046  0.3812  0.1108 -0.1433
24048W        W39517  18.580  12.898   1.570 -0.3013 -0.2152  0.0991
24049W        W39518  17.572   0.404   4.394  0.2064  0.0381 -0.1770
24050W        W39519  10.080  10.791   5.426  0.0847  0.3058 -0.1111
24051W        W39520  10.264  15.508   0.326 -0.2144 -0.1201  0.4004
24052W        W39521  13.143   4.375  13.403 -0.2982  0.1617  0.0373
24053W        W39522   5.259  13.253   2.610  0.0451  0.0646  0.2800
24054W        W39523   7.679   9.819   4.838 -0.4028  0.1350  0.2445
24055W        W39524   1.648   5.116   2.153 -0.2112  0.1125 -0.0828
24056W        W39525   6.234   4.474  10.506  0.2271 -0.0149 -0.1365
24057W        W39526  14.738  14.026  15.630  0.1883  0.0615  0.0889
24058W        W39527   9.366  10.675   2.876 -0.0765 -0.1385  0.0851
24059W        W39528   2.703  17.972   4.917 -0.2416  0.0606  0.1873
24060W        W39529   4.665   3.803   1.209  0.1029 -0.0293  0.4626
24061W        W39530  11.649   2.037   0.266  0.5187  0.1013 -0.0651
24062W        W39531   3.767   7.210  13.779 -0.1699 -0.0779 -0.0320
24063W        W39532   4.534   4.832  13.732 -0.0692  0.0784 -0.2243
24064W        W39533   9.615  15.832  13.091  0.0802 -0.1090  0.0291
24065W        W39534   1.233   3.021  13.571 -0.0670 -0.2630 -0.3450
24066W        W39535   3.811   9.154  14.796  0.1467 -0.3511 -0.3096
24067W        W39536   9.546   3.550   4.901  0.0363  0.1660 -0.3286
24068W        W39537   2.819  18.113  10.958  0.4017  0.2405  0.1545
24069W        W39538   8.004   8.823  15.465  0.0136  0.2872 -0.0025
24070W        W39539   9.360   1.761  11.090 -0.1966  0.0426 -0.1495
24071W        W39540  15.299   7.055  14.174 -0.0660 -0.1995  0.0587
24072W        W39541   9.748   2.655   2.992 -0.5050  0.1142  0.2127
24073W        W39542  13.711   4.827   4.390 -0.0264  0.1938  0.2348
24074W        W39543   2.644  18.318  11.886 -0.0133  0.1438 -0.0726
24075W        W39544  13.652   4.296   4.224  0.0813  0.0736  0.1200
24076W        W39545  18.785  13.040   4.231 -0.2420  0.1275  0.1858
24077W        W39546  15.303   2.176  10.125 -0.2171  0.0505 -0.0935
24078W        W39547  16.570  13.451  10.540  0.3846  0.0678  0.0313
24079W        W39548  15.923   1.386   2.710 -0.1823  0.1027  0.1367
24080W        W39549   6.103   0.610   2.931 -0.0509  0.1221 -0.2349
24081W        W39550  18.209  17.107  13.855  0.0329 -0.0952  0.2290
24082W        W39551   0.564  18.269  13.541 -0.1750 -0.0673  0.1211
24083W        W39552   7.728  10.735  10.683 -0.1619  0.2105  0.1223
24084W        W39553   7.914   6.225   0.621 -0.1678 -0.4079 -0.2524
24085W        W39554  18.022   9.747   5.174  0.0674  0.4053  0.2413
24086W        W39555   2.048  14.636  12.378 -0.3318 -0.1688 -0.1867
24087W        W39556   8.072   8.816   1.987 -0.1157  0.3234  0.2008
24088W        W39557   5.306  14.173  10.900 -0.0154 -0.1075 -0.0054
24089W        W39558   5.469   1.397   4.815 -0.0062 -0.2664  0.0171
24090W        W39559  15.192   2.296   4.962  0.0412 -0.1028  0.0858
24091W        W39560  11.015   4.394  14.448  0.0660  0.1149 -0.2505
24092W        W39561  15.800   2.509   3.829  0.1710 -0.2596 -0.3259
24093W        W39562   9.378   8.032   3.759 -0.1108  0.0545 -0.3425
24094W        W39563  18.720   3.752   2.944 -0.0210  0.2511 -0.0702
24095W        W39564  18.298  11.647   1.097  0.0729 -0.3986  0.0213
24096W        W39565   1.178  18.072   0.808 -0.1611  0.1116  0.0463
24097W        W39566   3.116  14.131   2.547 -0.1461  0.2499  0.0517
24098W        W39567   5.148   5.520  12.776  0.0538  0.3137  0.1213
24099W        W39568  16.140  13.741   3.661  0.1515 -0.0734 -0.0318
24100W        W39569   6.901   8.382   0.921 -0.0252  0.0763 -0.1967
24101W        W39570  14.777  16.473  11.505  0.3184 -0.1075 -0.1051
24102W        W39571  13.887  11.370  11.676 -0.1382 -0.2146  0.1098
24103W        W39572   6.545   9.595  12.559  0.1864 -0.0739  0.1616
24104W        W39573   6.345  12.079   0.574  0.0366  0.0189 -0.2007
24105W        W39574   7.387   5.577   2.383 -0.1543 -0.0300  0.1840
24106W        W39575   2.705   5.858  13.521 -0.0721  0.1408  0.1378
24107W        W39576   6.212   5.283   1.475  0.2390  0.2384 -0.0279
24108W        W39577   9.123  14.849   0.330  0.0638  0.2182 -0.2832
24109W        W39578  16.634  15.746  12.177  0.2510 -0.3153  0.2391
24110W        W39579  13.045   6.280  15.200  0.0097 -0.1101 -0.0527
24111W        W39580  13.542  15.742   3.418  0.0477  0.1619  0.3058
24112W        W39581   0.262   6.092   1.387  0.0974 -0.1463 -0.1512
24113W        W39582   5.367   5.884   2.481 -0.1341  0.0543  0.1233
24114W        W39583  12.642  18.743   3.745 -0.1461  0.1337 -0.2001
24115W        W39584   7.210   8.510   0.375 -0.0554  0.2310 -0.3145
24116W        W39585   1.273  14.839   3.334 -0.1847  0.1442  0.0861
24117W        W39586  17.672  15.087  13.601  0.1618  0.1961 -0.1628
24118W        W39587  11.681   0.659  12.557 -0.1569 -0.0179  0.5017
24119W        W39588   9.735  12.457  11.472 -0.1049  0.2502  0.3020
24120W        W39589   9.879   3.600  13.373  0.1258 -0.2620 -0.1731
24121W        W39590   8.363  13.752   2.298  0.0284 -0.2293  0.0442
24122W        W39591   4.257   6.479  14.659 -0.0823 -0.2396 -0.3865
24123W        W39592   9.765   7.107   1.239 -0.2385 -0.1979  0.1195
24124W        W39593  17.873  18.078   0.867  0.1146  0.0703  0.0119
24125W        W39594  16.085  13.359  13.438 -0.1970  0.1282 -0.0778
24126W        W39595   3.694  16.701  15.508  0.1254 -0.1227 -0.3283
24127W        W39596   8.706   5.598   2.151  0.1155  0.2157 -0.0164
24128W        W39597  15.379  16.357  13.042 -0.0477  0.3530  0.1243
24129W        W39598   7.556  17.655  13.388 -0.2546 -0.1188  0.0051
24130W        W39599   8.034  12.319   0.603  0.1060  0.1481  0.2412
24131W        W39600   3.371  18.591   3.033  0.0671 -0.0279  0.0356
24132W        W39601  13.751  12.214  13.558 -0.0409 -0.0897  0.2007
24133W        W39602   4.315   2.930  14.567 -0.2323  0.3691 -0.0112
24134W        W39603  17.816   2.768  13.090  0.3035  0.2138 -0.1159
24135W        W39604   8.827   7.348  14.296  0.0385  0.0698 -0.2078
24136W        W39605   3.976  17.281  10.735 -0.4014 -0.1810  0.1686
24137W        W39606  16.151  15.727  10.634 -0.0693  0.0103  0.2132
24138W        W39607   2.825   4.563   2.751  0.2345 -0.3649 -0.2496
24139W        W39608   9.571   8.840  13.840 -0.2136 -0.0337 -0.2846
24140W        W39609  10.354  11.117  13.323 -0.5138 -0.2096  0.0635
24141W        W39610   9.188  13.736   4.434 -0.1188  0.0078  0.0579
24142W        W39611  15.483   7.331  12.114  0.1338  0.0768  0.3140
24143W        W39612  14.727  13.826   3.574  0.1524 -0.0842  0.0862
24144W        W39613   1.078  15.188   1.923 -0.0418  0.2474  0.0979
24145W        W39614   6.049   2.707  14.478  0.0798  0.1760  0.0664
24146W        W39615   6.001  10.845   2.255  0.1452 -0.0976 -0.2865
24147W        W39616   0.678  10.286   4.245 -0.3506  0.0059  0.0616
24148W        W39617  13.021   0.855  11.543 -0.2311 -0.0454  0.2585
24149W        W39618  12.376   2.872  10.734 -0.0237 -0.0652  0.2564
24150W        W39619   0.638  11.626   1.508  0.0863  0.0687 -0.4835
24151W        W39620   2.757   1.802  15.664 -0.1037  0.0685 -0.0315
24152W        W39621   2.683   7.013   2.137  0.4400  0.0270 -0.1546
24153W        W39622   4.366  18.161  11.242  0.1583 -0.1752  0.5056
24154W        W39623   0.572  18.434  10.170 -0.0838  0.1047  0.0225
24155W        W39624  14.881   9.546   1.778  0.0036  0.0060 -0.1454
24156W        W39625   6.109  18.688  14.612  0.2187 -0.1735 -0.1985
24157W        W39626  18.396   1.922  10.232  0.0148 -0.0653  0.3217
24158W        W39627  17.481   7.793   4.935 -0.1359  0.3887  0.0512
24159W        W39628   8.223  16.853  13.190 -0.2666 -0.1085  0.3655
24160W        W39629   8.237  12.058   3.639 -0.1313  0.1689 -0.3806
24161W        W39630  10.550  17.330  15.081  0.0392  0.1614 -0.1547
24162W        W39631   4.650   2.764   4.562  0.0938  0.1749 -0.0802
24163W        W39632   0.736   6.331   0.036 -0.3136 -0.1105 -0.6109
24164W        W39633   1.578  10.536  12.309  0.2366 -0.1880 -0.0562
24165W        W39634   4.107  13.779  14.489 -0.1015 -0.0394 -0.0467
24166W        W39635  10.246  12.605  13.433  0.1274  0.4157 -0.1957
24167W        W39636   7.008  14.043  13.075 -0.0789  0.0025  0.1485
24168W        W39637   7.690   0.752   2.015 -0.4346 -0.0149  0.2247
24169W        W39638  14.707   2.244   5.194 -0.1166 -0.1455  0.1971
24170W        W39639  14.934   2.003   3.532 -0.2951 -0.1767  0.1173
24171W        W39640   3.958   2.916  11.284 -0.0934  0.0922  0.2906
24172W        W39641   4.342   1.778  13.089 -0.2206 -0.2300  0.0362
24173W        W39642  17.921  18.041  15.666 -0.3776 -0.2114 -0.0068
24174W        W39643  11.436  17.190  14.988  0.2247  0.1432  0.2125
24175W        W39644  13.234   6.145  12.164 -0.0203 -0.0809  0.0357
24176W        W39645   3.797  13.488   0.168 -0.1863  0.0035 -0.1830
24177W        W39646   5.880   5.136   0.774 -0.1213  0.2271 -0.3096
24178W        W39647   9.501   3.074  11.772 -0.1536 -0.1900 -0.1306
24179W        W39648   0.705   8.915  14.149  0.0675  0.1400 -0.3446
24180W        W39649  18.637   7.811   2.601 -0.0282 -0.0668  0.1393
24181W        W39650   9.781   3.850  14.531  0.0389  0.0078 -0.0273
24182W        W39651  17.801  14.409   2.081 -0.1792  0.0698  0.1714
24183W        W39652  17.671  11.816  11.149  0.0703 -0.0293 -0.2246
24184W        W39653  11.666  15.531   4.332 -0.0667 -0.0410 -0.3263
24185W        W39654   7.442  10.208  12.681  0.1549 -0.2657  0.0959
24186W        W39655   4.627  17.600  15.054 -0.2162 -0.0387 -0.5740
24187W        W39656   6.193  12.256   0.108  0.0522 -0.2944 -0.1840
24188W        W39657   1.527  15.288   2.216  0.1384 -0.1335 -0.0868
24189W        W39658  13.823  13.449   1.580 -0.3314  0.1322  0.2742
24190W        W39659   2.981   3.709   3.251  0.0592 -0.1344 -0.1652
24191W        W39660  13.033   8.180   1.103  0.5425 -0.0545  0.1981
24192W        W39661   1.723   3.003  14.628  0.3666  0.2219 -0.3444
24193W        W39662   7.034   2.209   5.523  0.0588  0.3427 -0.5118
24194W        W39663   6.561   2.346   0.839  0.1052  0.0684 -0.2376
24195W        W39664  10.307   4.505   4.413 -0.3457  0.0199 -0.3567
24196W        W39665  12.976   0.868  10.573 -0.1609 -0.0131  0.1672
24197W        W39666  17.966  11.003   1.442  0.0285 -0.1554  0.0336
24198W        W39667  14.245   6.791   3.163 -0.1519  0.2231 -0.0277
24199W        W39668   0.847   9.867  10.427  0.0682  0.0852 -0.1393
24200W        W39669  17.530  10.745   0.541  0.1923 -0.2626 -0.1058
24201W        W39670   9.847   5.830  13.935 -0.0127  0.2420  0.0708
24202W        W39671   5.793   1.719  11.281  0.2456  0.0331  0.0719
24203W        W39672   3.078  12.612  13.842 -0.0605  0.2131  0.2559
24204W        W39673  15.349   8.570   3.238  0.1856 -0.2756 -0.0782
24205W        W39674   7.036   1.252  13.029 -0.0527  0.5261 -0.0256
24206W        W39675  11.449  12.542  12.031  0.0650 -0.1684 -0.1571
24207W        W39676  14.778  14.051  11.798 -0.2491 -0.0816  0.2515
24208W        W39677  14.337   8.084  14.507 -0.0002 -0.1815  0.0938
24209W        W39678   0.011   5.633  13.159  0.0966  0.2721  0.1119
24210W        W39679   6.306  12.618   0.482  0.1526  0.3537  0.2716
24211W        W39680   8.504   6.983   2.608  0.0046 -0.4057  0.3218
24212W        W39681  17.941   3.275   1.896 -0.1115  0.1670 -0.1042
24213W        W39682   7.655  15.250   3.067 -0.0692  0.0531 -0.2642
24214W        W39683  17.128  11.907  14.258 -0.0677  0.2879  0.0355
24215W        W39684  15.400  18.747   4.808 -0.0846 -0.0850  0.0756
24216W        W39685  18.582   2.758  14.555 -0.2260 -0.3111 -0.0142
24217W        W39686  10.645  13.929   2.072  0.1183 -0.1806  0.2330
24218W        W39687   1.597   3.320  10.961 -0.0365  0.0497 -0.2277
24219W        W39688  18.159  16.009  12.898  0.0118  0.2526  0.1530
24220W        W39689  15.505  11.203  10.675  0.0843 -0.0953  0.0354
24221W        W39690   4.920   7.662   2.318  0.0684  0.2345 -0.5072
24222W        W39691  12.763   3.830   0.910  0.2649 -0.1607  0.3369
24223W        W39692   4.074  11.093   0.102  0.4065  0.1713  0.2191
24224W        W39693   7.619   1.068   1.509  0.0586 -0.3364 -0.2590
24225W        W39694   0.261  12.656   5.556  0.2350 -0.2389  0.0300
24226W        W39695  15.836   4.060  13.358  0.2364 -0.0490  0.1222
24227W        W39696   4.385   9.497   0.636 -0.1540 -0.2916  0.1835
24228W        W39697   2.831   5.991   2.322 -0.3440 -0.1215  0.4276
24229W        W39698  14.948   5.587   0.642  0.3343  0.0752  0.1787
24230W        W39699   0.114  18.021  11.521  0.1201  0.0921 -0.0971
24231W        W39700   0.004   6.655   2.139 -0.2651  0.0461 -0.5270
24232W        W39701   7.742  17.088   1.197  0.1242 -0.0552  0.2104
24233W        W39702   2.911   2.787   3.111  0.1051  0.3006  0.0642
24234W        W39703   3.048   6.312  11.848 -0.2996 -0.2655  0.0251
24235W        W39704   6.289  15.608   1.680  0.1577 -0.1286  0.2909
24236W        W39705   6.652   7.790  13.369 -0.0463  0.0425  0.1981
24237W        W39706  15.182   8.027   2.435 -0.0302 -0.0477  0.0312
24238W        W39707  18.392  17.013   5.264 -0.0543  0.3978 -0.2349
24239W        W39708   0.572  10.059  13.184 -0.1073 -0.1890 -0.3191
24240W        W39709   6.466   2.063  14.124  0.0379  0.3920  0.1361
24241W        W39710  18.101   7.743  12.266 -0.1026  0.0608  0.2599
24242W        W39711  14.659   3.334   3.925  0.0518  0.0220  0.1073
24243W        W39712  11.440  16.543  14.255 -0.2995  0.2285 -0.1566
24244W        W39713  13.141  17.501  11.199 -0.0086 -0.1251  0.0784
24245W        W39714   9.672   6.290  11.595 -0.1506 -0.2932  0.2480
24246W        W39715   7.269   9.761   4.505  0.2674 -0.0097 -0.0819
24247W        W39716  16.733   7.290  10.720  0.1483  0.2062  0.1280
24248W        W39717   3.858   9.811  12.879 -0.2460 -0.0525 -0.0722
24249W        W39718  11.543  13.905  11.333 -0.1954  0.5347  0.1603
24250W        W39719   5.029  14.050   5.073  0.1870 -0.0176 -0.0077
24251W        W39720   2.661   3.074  13.073  0.0195 -0.3554  0.3592
24252W        W39721  11.548   4.838   1.598  0.1536 -0.1522 -0.0079
24253W        W39722   7.363  13.341   1.151 -0.2253 -0.1587 -0.1444
24254W        W39723  10.032  10.160   3.805 -0.2413  0.0898 -0.1884
24255W        W39724   3.234  16.768  15.407 -0.0412 -0.0348  0.1108
24256W        W39725  11.902  11.103  14.582  0.3902 -0.1246 -0.0752
24257W        W39726   9.125   2.604  15.371 -0.0555 -0.3083 -0.2220
24258W        W39727   9.149  17.057  12.941  0.2959  0.1872  0.3519
24259W        W39728   1.483   1.798  15.573 -0.0352 -0.4055  0.1212
24260W        W39729   4.460   9.966   0.514  0.3739  0.0658 -0.2302
24261W        W39730   3.149  14.136  10.594 -0.0216 -0.0290  0.0004
24262W        W39731  11.009   4.339   1.944 -0.1830  0.0204  0.2421
24263W        W39732  18.770  17.564   0.576 -0.1060 -0.0735  0.3385
24264W        W39733   0.558   4.304  12.512  0.0318 -0.0014  0.1643
24265W        W39734   8.752   0.578   1.695 -0.0721  0.2532 -0.1528
24266W        W39735  17.357   7.197   5.654 -0.1754 -0.2559 -0.1041
24267W        W39736  12.944   0.306   4.058  0.1572 -0.2943 -0.0370
24268W        W39737   3.519  17.439  10.682 -0.1512 -0.2177  0.0603
24269W        W39738   2.757  15.763  11.067  0.1841 -0.1205  0.1483
24270W        W39739  11.120   3.478  14.689  0.1681 -0.0698  0.0804
24271W        W39740  11.551   8.939  14.906  0.3398  0.2999 -0.1567
24272W        W39741  11.432  13.581   1.080 -0.2597 -0.0657 -0.1452
24273W        W39742   8.783   4.812   0.687  0.0414 -0.2780  0.1240
24274W        W39743  18.689   4.258   2.720  0.0832 -0.1564 -0.1543
24275W        W39744   8.745   9.248  13.668  0.0061 -0.1614  0.1019
24276W        W39745   5.492  16.325  15.159 -0.2876 -0.1826 -0.0059
24277W        W39746   1.109  18.061   9.807 -0.0240  0.3422  0.1186
24278W        W39747   2.080   1.885  12.643 -0.4373  0.3048  0.4334
24279W        W39748   7.549   5.203   5.916 -0.1816  0.0388  0.0510
24280W        W39749  15.750  13.756  13.535 -0.0647 -0.0051  0.1891
24281W        W39750   4.865  14.251   3.799 -0.0988  0.0790  0.0439
24282W        W39751   7.882   4.691  12.959 -0.4453  0.3055 -0.2125
24283W        W39752   1.126   1.048   5.191  0.0938  0.0201 -0.0157
24284W        W39753   3.268  15.209   2.265 -0.1995  0.0151  0.3216
24285W        W39754  15.349   9.122   4.831  0.0129  0.0029  0.0647
24286W        W39755   0.889  11.003   3.489 -0.0035 -0.0374 -0.0815
24287W        W39756   7.449  17.434   2.613  0.1581 -0.0796 -0.0698
24288W        W39757  11.260   9.312  13.921  0.0033  0.0971  0.1065
24289W        W39758  16.861   4.059  13.611 -0.2954  0.0590  0.2007
24290W        W39759  18.218  18.480  13.996  0.2201 -0.1505  0.1747
24291W        W39760   4.912   2.547   4.963  0.4691 -0.0290 -0.3167
24292W        W39761  11.927   9.672   5.861  0.0095  0.1193 -0.4440
24293W        W39762   8.853  18.249   5.931 -0.0775  0.4614  0.0964
24294W        W39763   0.067   6.869  14.051 -0.0145 -0.0172  0.1842
24295W        W39764   6.648   9.875   1.248  0.3369 -0.1436  0.0604
24296W        W39765  16.579  13.490   4.138 -0.0795  0.0107  0.1664
24297W        W39766  15.953   9.206   3.043  0.1582 -0.0197 -0.0741
24298W        W39767   7.811  13.198  13.654 -0.0989  0.1586  0.4331
24299W        W39768  15.861  12.857   3.043  0.1081 -0.2474  0.2239
24300W        W39769  11.860   9.663  12.007  0.0105 -0.0261  0.1730
24301W        W39770  17.855  17.270   4.058 -0.1467 -0.0184  0.0420
24302W        W39771  17.555  17.240   5.836  0.1445 -0.0129  0.0668
24303W        W39772  14.159   7.139   2.322  0.3177 -0.3792 -0.0394
24304W        W39773   6.132  13.642  10.620  0.1623 -0.3621 -0.0164
24305W        W39774   3.550  15.956  14.548 -0.0582  0.0210 -0.2967
24306W        W39775  10.872  15.869   2.873 -0.0641 -0.0163  0.2913
24307W        W39776   8.372   2.527   0.166 -0.1728  0.3270 -0.1085
24308W        W39777  12.924   4.007   3.580  0.1100  0.1164 -0.0194
24309W        W39778   3.530  17.158   0.355 -0.0438 -0.1537 -0.0652
24310W        W39779   6.512   9.132   3.550 -0.0670 -0.2715 -0.0681
24311W        W39780  17.716   3.563   0.558  0.1563 -0.0685 -0.0396
24312W        W39781   1.751  17.614  13.028 -0.1431  0.0312 -0.1463
24313W        W39782   0.687  12.129  15.402 -0.1287  0.1277  0.0099
24314W        W39783   0.062   8.403   2.678  0.2394  0.0119  0.0661
24315W        W39784  16.015  12.729   4.067  0.0738  0.0204 -0.1449
24316W        W39785   8.074   7.212   4.520  0.1609 -0.0337  0.1945
24317W        W39786  14.356  10.629  13.575 -0.1174 -0.0325 -0.1948
24318W        W39787  11.521   8.847  11.168 -0.0131 -0.0982 -0.2511
24319W        W39788   1.740  10.114  13.328 -0.3515  0.0362 -0.1137
24320W        W39789   1.653   3.701  14.603 -0.0133  0.3709  0.0183
24321W        W39790  17.118   7.880   0.738  0.1935  0.3094  0.1653
24322W        W39791   6.819   2.232   1.874  0.0838  0.2436 -0.1800
24323W        W39792   7.316   2.721   1.323  0.0765 -0.0331  0.0842
24324W        W39793  15.934   6.629  13.119 -0.1205 -0.1017  0.1158
24325W        W39794   2.261  15.970  14.665  0.0308 -0.0864  0.0129
24326W        W39795   6.787   2.905   1.125  0.2002  0.1532 -0.2003
24327W        W39796   4.514   7.478   1.694 -0.0866 -0.1789 -0.1070
24328W        W39797  13.872   8.047   4.600  0.0937  0.0252  0.0311
24329W        W39798  12.903   9.166   6.033  0.1411  0.0258  0.0496
24330W        W39799   7.208  11.818   0.493  0.0299 -0.0742  0.0252
24331W        W39800  12.063   9.756   4.899  0.2179 -0.0255  0.0119
24332W        W39801   4.138  18.768  12.162  0.1027 -0.5482  0.0959
24333W        W39802   2.440  16.883   4.348 -0.3150 -0.1579  0.2922
24334W        W39803   5.328   9.304   1.384  0.1265  0.2635  0.1298
24335W        W39804   4.559  11.283  11.986  0.3661 -0.1083  0.2960
24336W        W39805  16.832   2.454  14.038 -0.0456 -0.3017  0.1614
24337W        W39806   0.665   8.386   2.620  0.0635 -0.0018  0.0896
24338W        W39807   8.246   0.165  14.051  0.1110  0.0167  0.0120
24339W        W39808   1.730   5.075   1.138  0.3512 -0.0905  0.0199
24340W        W39809   1.321  18.430   3.219 -0.1300 -0.1249  0.1511
24341W        W39810  17.744  13.755  14.188  0.0943  0.1947  0.1019
24342W        W39811  10.883  10.982  13.322  0.0932  0.1077  0.0684
24343W        W39812   6.421  12.497  13.889 -0.1389 -0.1446 -0.0012
24344W        W39813  15.051  14.741  12.893 -0.0559  0.2280 -0.0023
24345W        W39814   9.417   2.224  14.733  0.1199 -0.0303 -0.4149
24346W        W39815   1.394   9.474  14.668  0.1715  0.2122  0.1721
24347W        W39816  18.464   3.448  12.014  0.1294  0.2314  0.0504
24348W        W39817   2.835   1.241   3.652  0.1582 -0.2672  0.2292
24349W        W39818  12.128  14.854  12.748 -0.0711  0.2134 -0.0758
24350W        W39819   0.734   7.021   5.648 -0.0450  0.2049  0.1446
24351W        W39820  15.165   2.494   2.259 -0.1745  0.1238 -0.2520
24352W        W39821  17.481   5.620  11.528  0.0739 -0.2712  0.1484
24353W        W39822   0.514   7.470  12.696  0.1725  0.2581  0.0692
24354W        W39823  18.741   6.339   5.331  0.0836  0.1098 -0.0717
24355W        W39824  13.253  14.544  14.233  0.2774 -0.0321  0.5204
24356W        W39825   9.181  17.769  14.947 -0.2577 -0.0796  0.0271
24357W        W39826   9.136  13.680   3.519 -0.0433 -0.1619 -0.0886
24358W        W39827   3.130  10.378   3.166  0.0849  0.1673  0.2341
24359W        W39828  17.442   7.183  15.320  0.0943  0.0845 -0.1181
24360W        W39829  12.368  17.034   3.412  0.0630 -0.3419 -0.3619
24361W        W39830  14.319   2.499  12.637  0.0310  0.0411 -0.0184
24362W        W39831  10.580  12.736  14.926  0.0275 -0.2212 -0.3404
24363W        W39832   5.733  12.798  12.222 -0.0474 -0.2118 -0.2198
24364W        W39833  14.931  15.247   3.708  0.1780  0.0157  0.1528
24365W        W39834   4.639  18.736   4.892 -0.3539 -0.1829 -0.0662
24366W        W39835  13.438  16.904   0.958 -0.0230  0.1333  0.3075
24367W        W39836  10.614   5.701  14.580 -0.0140 -0.2455  0.1454
24368W        W39837  15.070  16.150   1.685  0.1801 -0.1826 -0.1977
24369W        W39838   0.492  11.908   4.401  0.2408  0.0998 -0.3914
24370W        W39839   7.846   2.592   4.973 -0.1949 -0.1047  0.1688
24371W        W39840  13.711   8.419   0.695 -0.0204  0.0417  0.1257
24372W        W39841   9.109   8.450  15.222 -0.0863  0.1819 -0.1842
24373W        W39842   0.360  15.308   5.602  0.0491 -0.1800  0.1857
24374W        W39843  12.934   8.530   5.985 -0.1515 -0.1928 -0.1034
24375W        W39844   4.408   2.942  13.548 -0.2162 -0.0367  0.3085
24376W        W39845   7.421   3.922  14.548 -0.0007  0.0839 -0.1592
24377W        W39846  16.040   7.914  12.640 -0.4219  0.0572  0.0981
24378W        W39847   6.055  16.213   2.482 -0.1271  0.0250 -0.0554
24379W        W39848  16.264  13.834  13.148  0.0991  0.0168 -0.2602
24380W        W39849  13.684   0.157   3.920 -0.2001  0.2308 -0.1000
24381W        W39850  13.253   5.733  11.701 -0.1790 -0.0973 -0.0892
24382W        W39851   4.899   2.242   3.880 -0.1504 -0.2534  0.0093
24383W        W39852   7.377   1.085  11.663  0.1750 -0.0974 -0.1778
24384W        W39853   5.973   6.845  13.821  0.1106  0.0679  0.0332
24385W        W39854  13.805  18.603   1.708 -0.0132 -0.0185 -0.1164
24386W        W39855   8.442  12.506   5.385  0.0329 -0.1697 -0.1455
24387W        W39856   8.744   2.791  15.626  0.0234  0.1989 -0.2142
24388W        W39857  16.212   0.259   4.920  0.2529  0.0200  0.1152
24389W        W39858   0.418  10.213   3.219 -0.1342  0.1547 -0.1382
24390W        W39859  12.695   7.080   1.376  0.0354 -0.0514 -0.1703
24391W        W39860  14.939   9.933  15.375  0.0286  0.1644 -0.3535
24392W        W39861  15.963   3.908  12.413  0.0368  0.0330  0.0906
24393W        W39862  18.177  12.798  15.064 -0.0418 -0.0149 -0.2403
24394W        W39863  16.738  15.907   1.950 -0.0351  0.1939 -0.0626
24395W        W39864   0.475   4.925   1.590 -0.0775  0.0680  0.3276
24396W        W39865  18.668  13.074   5.286 -0.1070 -0.2258 -0.4954
24397W        W39866   5.515   8.960  15.424 -0.1772 -0.2674  0.3427
24398W        W39867   5.175  11.960  12.371  0.2211  0.0510  0.3879
24399W        W39868  10.528   9.434   2.118 -0.0247 -0.1228 -0.0219
24400W        W39869  16.578  11.703   3.432 -0.0792 -0.0099  0.2576
24401W        W39870   1.073  13.565  11.504  0.0069 -0.2712  0.0103
24402W        W39871   4.116   1.004  13.151  0.4692 -0.0505  0.0867
24403W        W39872   7.056   2.664   2.041  0.1721  0.0199 -0.2555
24404W        W39873   9.361   6.004   2.974 -0.2902  0.0697 -0.0120
24405W        W39874  11.424   5.122  15.413  0.1582  0.0020 -0.0575
24406W        W39875  16.239  11.654   5.423 -0.1454 -0.2082  0.1607
24407W        W39876  17.976  17.638  11.512  0.1095  0.0373 -0.0192
24408W        W39877   6.790  16.843  11.725  0.1601  0.1913 -0.0303
24409W        W39878  17.530  13.780   3.828 -0.0831  0.1383 -0.1768
24410W        W39879   0.796  15.592  13.346  0.0875 -0.2044  0.0376
24411W        W39880   9.473  15.382   3.718  0.3555 -0.0231  0.1924
24412W        W39881   2.840  16.129  14.953 -0.2564 -0.0622  0.0320
24413W        W39882   1.188   7.342   4.360  0.1374 -0.3389 -0.2625
24414W        W39883   4.246  16.003   9.717 -0.1606  0.0547 -0.0503
24415W        W39884   7.615  10.931  15.413 -0.1671  0.0861  0.3957
24416W        W39885  10.134   5.076   3.419  0.1180 -0.0936  0.1101
24417W        W39886   6.261   8.166   3.446  0.0044  0.2898 -0.2396
24418W        W39887  15.465   6.222   5.255  0.0367 -0.3841 -0.0648
24419W        W39888  12.667   9.364   1.977  0.0352  0.0048  0.2851
24420W        W39889  10.610   4.981  12.589  0.1158 -0.1699  0.0651
24421W        W39890   5.866  10.188   2.444  0.3298  0.0518 -0.1503
24422W        W39891   5.580   4.926  11.058 -0.1582 -0.2263 -0.0226
24423W        W39892   6.971  16.067   4.671 -0.1788 -0.1550 -0.2066
24424W        W39893  10.637  17.699  14.663  0.1917 -0.1151  0.2149
24425W        W39894  15.660  12.711  12.037 -0.1788 -0.1919 -0.2726
24426W        W39895   6.262  17.045  12.068 -0.2718 -0.3486 -0.4479
24427W        W39896  15.432  17.539  11.125  0.1534  0.0698  0.4418
24428W        W39897  14.516  18.010   5.850 -0.1223 -0.0536 -0.0737
24429W        W39898  10.705   8.596   1.986 -0.2300 -0.0877 -0.0234
24430W        W39899   0.571  14.556  11.777  0.3782 -0.3589  0.1269
24431W        W39900   9.116   1.216  13.853 -0.1607  0.5185  0.0759
24432W        W39901  16.807   3.394   1.177  0.0570  0.0639  0.4127
24433W        W39902   4.508   6.773  10.846 -0.2172 -0.2960 -0.4339
24434W        W39903  12.395  14.513   4.733 -0.2600  0.1136  0.1586
24435W        W39904  13.536  17.001   4.455  0.0765  0.2946  0.0193
24436W        W39905  17.456  11.514  12.144  0.2257 -0.1401 -0.2977
24437W        W39906   1.863   9.125  15.330 -0.1241  0.0275 -0.1622
24438W        W39907  16.176   8.775  13.651 -0.0646  0.1370 -0.2817
24439W        W39908  18.228   7.782  10.793  0.1068  0.2505 -0.2825
24440W        W39909   5.526  10.967   2.205  0.0802 -0.1994  0.1896
24441W        W39910   0.375   1.338   2.598  0.0625  0.3255  0.0223
24442W        W39911  17.520  11.737   5.360  0.0550  0.1118 -0.1368
24443W        W39912   3.055   3.504   1.159 -0.0789  0.1018 -0.0338
24444W        W39913   7.187  16.692   2.453 -0.0246 -0.1079  0.0165
24445W        W39914   5.694  18.250  14.534 -0.1045  0.0120 -0.1785
24446W        W39915   4.423   3.577   0.351  0.4096  0.1814 -0.3020
24447W        W39916  15.294  10.032   1.312  0.4518  0.1834  0.0746
24448W        W39917   8.685  17.231   5.438 -0.2142 -0.2216  0.2026
24449W        W39918  13.502  11.552   5.243  0.4429 -0.2624  0.1610
24450W        W39919  15.414   7.859  11.379 -0.0635  0.1068  0.1973
24451W        W39920   5.033   9.481   1.011 -0.1325  0.1846 -0.1841
24452W        W39921   6.250  10.979  11.413 -0.0907  0.1821  0.2029
24453W        W39922   5.932   6.329   3.427  0.1907  0.0156 -0.1009
24454W        W39923  15.838  13.561   2.384 -0.3264 -0.0141 -0.3434
24455W        W39924  12.544  17.625  12.524 -0.0714 -0.0773 -0.1960
24456W        W39925  12.757   7.714  13.982 -0.1440 -0.0603 -0.1721
24457W        W39926   5.852  18.751  13.801 -0.1189  0.1338  0.0064
24458W        W39927  14.763  13.521   0.273 -0.0461 -0.0701 -0.2781
24459W        W39928   5.382  12.906  14.830  0.0010 -0.0841  0.0600
24460W        W39929   4.096  11.353   4.734 -0.0115  0.1297 -0.0064
24461W        W39930   5.906  12.009  13.290 -0.0760 -0.3368 -0.0561
24462W        W39931  16.041  15.313  11.239 -0.0433 -0.1683  0.1531
24463W        W39932  12.281  18.022  11.735  0.0556 -0.3380 -0.1436
24464W        W39933  10.563  18.175  11.158 -0.1935 -0.0187  0.0666
24465W        W39934  15.827   2.371  13.405  0.1023 -0.0023 -0.1007
24466W        W39935   7.203   1.211   5.153 -0.1935  0.0515 -0.0263
24467W        W39936  16.030  16.972   1.570  0.1087  0.3348  0.2205
24468W        W39937  12.063   8.762   2.157  0.0306 -0.1055  0.1579
24469W        W39938  17.020  14.254   3.157  0.1908 -0.3888  0.0267
24470W        W39939  13.122   4.712  11.616  0.0019 -0.0141  0.1153
24471W        W39940   9.967   1.177   3.961  0.3132 -0.2043  0.3171
24472W        W39941  10.715   8.384  14.979 -0.2655  0.1309  0.3494
24473W        W39942  12.614  18.032   4.399  0.2013  0.1745 -0.1555
24474W        W39943   2.499   6.100  11.722 -0.3192  0.3300 -0.1108
24475W        W39944   5.066   4.799   5.789 -0.0348  0.0731  0.0516
24476W        W39945  18.691   4.486  12.452 -0.2395 -0.2155  0.0951
24477W        W39946  10.393   6.886  11.682  0.0276 -0.1854  0.4159
24478W        W39947   7.160  13.347   4.548 -0.0121  0.0375  0.0688
24479W        W39948  12.150   7.200  11.736  0.0924 -0.3623 -0.0715
24480W        W39949   2.052   2.708  12.453 -0.0077  0.1044 -0.2218
24481W        W39950   3.108   7.840  10.766  0.5567 -0.1267 -0.1260
24482W        W39951  16.055   8.195  15.362  0.1814  0.2660 -0.3229
24483W        W39952   0.099   3.341  10.646 -0.0880 -0.2668 -0.2628
24484W        W39953   2.950  13.681   9.771  0.0711 -0.1742  0.2345
24485W        W39954  13.298   9.274   3.218 -0.3889  0.0027  0.2359
24486W        W39955   0.105  14.661   1.887  0.1508  0.1705  0.0994
24487W        W39956   0.834   9.807  11.887 -0.0503 -0.4205 -0.3090
24488W        W39957  14.455   4.334  14.822  0.1014 -0.0669 -0.0684
24489W        W39958   0.536  15.422   1.894  0.0433 -0.0577 -0.0569
24490W        W39959   7.058   5.463   2.822  0.0822 -0.0446 -0.0981
24491W        W39960   8.000   1.472   0.917  0.4030  0.1070 -0.0414
24492W        W39961  12.852  12.445  13.002 -0.2024  0.0874 -0.0744
24493W        W39962   8.448   0.667   3.886 -0.1355  0.0869  0.0145
24494W        W39963   8.574   4.659   1.141  0.1277 -0.2029  0.1190
24495W        W39964  18.240   4.905  14.604  0.0875 -0.1201 -0.1704
24496W        W39965   7.144  12.778  15.553 -0.1151 -0.0860 -0.0708
24497W        W39966   4.824  12.712   4.897 -0.0715 -0.1104 -0.1017
24498W        W39967   5.211   8.248   0.146  0.1546 -0.2023 -0.4681
24499W        W39968  10.318   2.602  14.251 -0.0753  0.2275  0.0020
24500W        W39969  11.051  18.401   0.723  0.5271 -0.0084 -0.0713
24501W        W39970   2.255  10.576   2.241 -0.2232 -0.0200 -0.1387
24502W        W39971   3.595   6.664   1.866 -0.0514 -0.3446 -0.0813
24503W        W39972   4.936  15.950  10.508 -0.1979  0.0709  0.2512
24504W        W39973  12.655   8.696  14.124 -0.1967 -0.0072  0.0736
24505W        W39974   0.464  17.619   3.463  0.1579 -0.0797 -0.0713
24506W        W39975   0.347   6.909  11.834  0.1134  0.2056  0.2619
24507W        W39976  10.312  18.180   1.099 -0.0402  0.0251 -0.1275
24508W        W39977  18.393  16.873   4.733  0.0289 -0.1502 -0.1126
24509W        W39978  12.128   2.230   1.923  0.0510  0.1994 -0.2294
24510W        W39979   5.110  13.365   4.174 -0.0561  0.0368 -0.1197
24511W        W39980   1.208  18.241  14.647 -0.3877 -0.1402 -0.1252
24512W        W39981   2.878   1.270   1.239 -0.1754  0.0391  0.0985
24513W        W39982  13.268   9.918  14.462  0.0707 -0.1961  0.0157
24514W        W39983  16.465  17.734  15.534  0.1885  0.3136  0.1115
24515W        W39984  18.137   1.321   9.948 -0.0324  0.0971 -0.1101
24516W        W39985   2.911   0.899   5.809  0.0286  0.0175 -0.1092
24517W        W39986  12.438  12.754  13.069 -0.0086 -0.1817 -0.0183
24518W        W39987  10.817  14.420   3.127 -0.3908 -0.0805  0.1064
24519W        W39988   6.987  14.413   0.610 -0.0066 -0.0660 -0.1530
24520W        W39989   4.207   2.264   2.211 -0.3010  0.0224  0.1218
24521W        W39990  10.704  10.283   4.723  0.0759 -0.0720  0.1761
24522W        W39991  12.782   4.294   4.058 -0.1900  0.3703  0.2697
24523W        W39992   8.511  14.215  14.363  0.1941 -0.0048  0.2777
24524W        W39993  10.392   7.569  11.370 -0.1599 -0.1855  0.1806
24525W        W39994  17.822   8.958  15.041  0.3052  0.0136 -0.5679
24526W        W39995  18.541  17.903   1.983 -0.1699 -0.1481  0.0454
24527W        W39996   7.432  17.416  14.988 -0.1231  0.4687  0.0516
24528W        W39997   7.314   4.839  14.914 -0.0891 -0.0776  0.1649
24529W        W39998  15.039   5.205   0.296 -0.2313 -0.1690  0.1732
24530W        W39999   5.376   6.663   1.179 -0.0120 -0.2513 -0.3466
24531W        W40000  14.874   2.856   0.201 -0.0850 -0.0160  0.1034
24532W        W40001  10.594  14.873   4.145 -0.0215 -0.2196 -0.2748
24533W        W40002   3.850  11.848  10.218 -0.0102 -0.1787  0.0889
24534W        W40003   1.861   8.129   0.811  0.1225  0.0207  0.0524
24535W        W40004  15.454  16.838   3.464  0.3398 -0.0948 -0.0559
24536W        W40005  17.220   5.250   5.852  0.2500 -0.1077 -0.0327
24537W        W40006   5.773   3.531   3.347  0.3313 -0.1822  0.1395
24538W        W40007   5.572  16.974   0.617 -0.0484  0.0713 -0.0358
24539W        W40008  18.216   5.646   4.900 -0.2388  0.4957  0.2075
24540W        W40009   0.868   6.701   0.443  0.2460 -0.3690 -0.0538
24541W        W40010  11.225  10.429   3.042  0.0169  0.3636  0.0713
24542W        W40011   2.048   6.320   3.256  0.3901 -0.3443  0.1609
24543W        W40012  14.951  16.142   0.127  0.0264  0.2908 -0.0898
24544W        W40013   3.114   3.763   0.311  0.2323  0.1031  0.0312
24545W        W40014   5.487   2.070   0.926 -0.2477  0.3603  0.3736
24546W        W40015  10.837   4.532   0.822  0.1453  0.1448 -0.0340
24547W        W40016  10.644   2.568   0.283 -0.3241  0.2851 -0.0341
24548W        W40017  10.446   8.199   1.683 -0.1194 -0.0329 -0.1661
24549W        W40018   7.811  14.802  11.426  0.0225 -0.0776 -0.2098
24550W        W40019   7.395   4.280   5.026  0.3204 -0.0880 -0.1556
24551W        W40020  13.290   2.247   0.654  0.0177 -0.0506  0.1374
24552W        W40021   8.974   8.673   1.606 -0.5102  0.1221  0.0629
24553W        W40022   4.454  16.141  11.265  0.1219  0.0037 -0.1920
24554W        W40023   3.342  17.084   1.573  0.2022 -0.0829  0.0504
24555W        W40024   0.584   0.242  12.633 -0.4087  0.1902  0.0183
24556W        W40025   2.098   9.253  13.487 -0.0038 -0.1153 -0.0096
24557W        W40026  14.191   5.510   0.733 -0.0573 -0.0394  0.4077
24558W        W40027   1.338   1.850  14.562 -0.1587  0.1055  0.4989
24559W        W40028  10.254  14.203  12.382 -0.0148  0.0349  0.2504
24560W        W40029   6.329  13.833   1.374  0.4827 -0.0744 -0.4402
24561W        W40030  10.588   8.684   0.469 -0.3812  0.0705 -0.3881
24562W        W40031   2.293   2.979  15.111  0.0056  0.1125 -0.1287
24563W        W40032   7.136   0.513   4.049 -0.0392  0.0764 -0.2015
24564W        W40033   7.515  16.177   1.449 -0.1751 -0.2471  0.0034
24565W        W40034  15.230   4.936   1.270 -0.2554 -0.2150  0.0308
24566W        W40035   6.710   2.114  13.272 -0.0579  0.3826 -0.0832
24567W        W40036   4.803   0.245   3.342  0.3626  0.0804  0.1413
24568W        W40037   8.855   0.618   5.745  0.2541 -0.5312 -0.1284
24569W        W40038   6.528  12.374  14.436 -0.1352  0.1127 -0.2577
24570W        W40039  14.449  18.085  11.227 -0.0177  0.2315 -0.0157
24571W        W40040  10.750   6.922   1.213  0.0733  0.1354 -0.1684
24572W        W40041  15.198   3.922  13.077 -0.3352 -0.1219 -0.2682
24573W        W40042   1.648   5.335  12.547 -0.1167 -0.0073 -0.0457
24574W        W40043   6.232  10.133  12.135 -0.3645 -0.0410 -0.1945
24575W        W40044   5.816   1.658   0.836  0.1838 -0.0856  0.2259
24576W        W40045  17.001  18.482  13.588  0.2251 -0.1041 -0.0333
24577W        W40046   6.979  13.274  15.459  0.1744  0.0122 -0.0368
24578W        W40047  17.646  15.909  14.822 -0.0048 -0.2626  0.1643
24579W        W40048   7.551   6.993   1.983 -0.0844  0.0351  0.2506
24580W        W40049   5.899   3.240   3.768  0.2310  0.0634  0.1724
24581W        W40050   5.739   7.504   2.514 -0.1795  0.2554 -0.1333
24582W        W40051   0.632  12.618  15.516  0.1377  0.0223 -0.4564
24583W        W40052  13.004   2.422   4.429 -0.1951 -0.2386 -0.1416
24584W        W40053   2.607  16.496   1.514  0.1419 -0.0711 -0.0109
24585W        W40054  14.641   6.952  11.855 -0.3187 -0.3315  0.1874
24586W        W40055  17.093  18.426   0.305 -0.2189  0.1638 -0.1788
24587W        W40056  17.081   6.408  11.409  0.0161  0.0429  0.0158
24588W        W40057   8.266  11.448   4.385 -0.1254  0.0174 -0.0056
24589W        W40058  11.378   1.708  11.696  0.1062  0.0317  0.0933
24590W        W40059  12.825   0.843   2.317  0.0343 -0.1536  0.3727
24591W        W40060  10.423   2.632  13.260 -0.0028 -0.2114 -0.0807
24592W        W40061   6.679  13.817  11.616 -0.3629  0.2247 -0.4116
24593W        W40062   9.455   3.672  12.945  0.0244  0.0657 -0.3813
24594W        W40063   3.061  12.412  11.720 -0.0211 -0.0782 -0.0391
24595W        W40064  13.200   7.795   5.231 -0.0596  0.3078  0.2499
24596W        W40065  11.146  12.628   0.442  0.4173  0.4020  0.2645
24597W        W40066  10.477  10.903   2.201 -0.3491  0.0329 -0.1891
24598W        W40067  10.102   1.669  12.783  0.0437 -0.2847  0.0915
24599W        W40068   2.746   0.903   0.373  0.1813  0.1663 -0.1959
24600W        W40069   8.474  11.162  10.978  0.2711  0.2466 -0.1546
24601W        W40070   0.036  11.071   4.764 -0.2100  0.1437 -0.1187
24602W        W40071  12.454  16.593   2.999  0.1068  0.3516 -0.0019
24603W        W40072   8.790   6.302   0.896  0.1364 -0.2339  0.4133
24604W        W40073  18.278  16.440   0.225 -0.0675 -0.1565 -0.2202
24605W        W40074   8.112  11.356   1.415 -0.5161 -0.1289 -0.4120
24606W        W40075  16.584  14.087   3.320 -0.0097  0.0506  0.4335
24607W        W40076   3.502  14.909  13.488 -0.0062  0.1108 -0.1188
24608W        W40077  18.600   7.825  12.654  0.1705 -0.3213 -0.0348
24609W        W40078  13.844  10.521  13.544 -0.0950 -0.0095 -0.3468
24610W        W40079  16.637  12.629   4.688  0.2118 -0.2121  0.1111
24611W        W40080   9.793  11.900  14.824  0.1813  0.0886 -0.2505
24612W        W40081  13.448   4.474   4.707 -0.0567 -0.0022  0.1029
24613W        W40082  13.946  11.821   6.025 -0.2441 -0.1637  0.1449
24614W        W40083   9.929   4.415   1.123 -0.2439 -0.1454  0.1092
24615W        W40084  12.608   1.717  12.003  0.1111 -0.1231  0.0927
24616W        W40085   1.774  16.210  14.017 -0.1757 -0.0020  0.1239
24617W        W40086  18.365   2.760  13.258 -0.0501  0.2202  0.0891
24618W        W40087  14.499  18.185  11.975  0.0075 -0.1138 -0.2370
24619W        W40088  13.737  15.208  15.185 -0.1513  0.3924 -0.0099
24620W        W40089  15.638  10.813  11.848 -0.0660  0.1363  0.1087
24621W        W40090   3.723   2.819   5.802 -0.0959  0.0243  0.1397
24622W        W40091  16.756   5.554  12.965  0.2570  0.2355  0.2010
24623W        W40092   0.435   1.723   4.786 -0.2825 -0.0818 -0.1816
24624W        W40093   0.472   9.302   1.175  0.0679 -0.2233  0.2747
24625W        W40094   8.157   0.898   0.791 -0.1513 -0.0249 -0.1297
24626W        W40095  16.594   5.289   5.603  0.0482 -0.1109  0.0395
24627W        W40096   7.373   2.071   2.710  0.3579  0.0009 -0.1013
24628W        W40097  11.486   1.554   5.382 -0.1612  0.0530  0.2693
24629W        W40098  17.899  10.626   5.141  0.3093 -0.0072 -0.3357
24630W        W40099   4.461   0.178   0.417  0.1652  0.0687 -0.0893
24631W        W40100   3.848   3.751  14.717 -0.0448 -0.3741 -0.0868
24632W        W40101  17.712   9.192   3.430  0.1567 -0.0542  0.0752
24633W        W40102  14.870  12.135   2.868  0.2529  0.1164  0.1737
24634W        W40103   8.976   5.955   4.752  0.1138 -0.1442 -0.0174
24635W        W40104  15.004   7.273   5.269 -0.3532  0.2136  0.2157
24636W        W40105   9.709   3.699   5.309 -0.0430  0.1436  0.2661
24637W        W40106   2.942   1.638   5.334 -0.1491 -0.1193 -0.2147
24638W        W40107  14.916   6.089  11.281  0.1447 -0.0122  0.2584
24639W        W40108  17.707  18.783  11.985 -0.0628 -0.2296 -0.0331
24640W        W40109   2.265   0.944   0.121 -0.0649  0.0438 -0.0355
24641W        W40110  16.682  14.075  10.344 -0.3675  0.2476 -0.0815
24642W        W40111   3.636  11.652  13.583 -0.1411  0.1245  0.1611
24643W        W40112  17.330   7.057  14.368 -0.4758  0.0954  0.0852
24644W        W40113  15.481   4.793  12.156  0.1278 -0.1761  0.1196
24645W        W40114   0.516   1.300   1.613 -0.1092 -0.0423  0.1602
24646W        W40115   8.356  17.297   4.971 -0.6299  0.2645 -0.0949
24647W        W40116   4.792   7.011   0.957 -0.0563 -0.1739  0.0493
24648W        W40117   0.297  18.596   4.634  0.3374 -0.2621 -0.0030
24649W        W40118  17.463   8.247  13.619  0.0121  0.0072 -0.0310
24650W        W40119  14.765   2.454   1.344  0.0318 -0.0737 -0.0516
24651W        W40120  11.761  14.333   5.733 -0.0834 -0.1048  0.0232
24652W        W40121  10.102   5.273   5.293 -0.1020  0.0147 -0.1253
24653W        W40122  16.146   6.682  12.455  0.1002 -0.3916  0.0872
24654W        W40123  17.125   6.262   5.503  0.2372 -0.1612  0.2169
24655W        W40124   5.906   8.847  14.125 -0.1000  0.0270 -0.2303
24656W        W40125   9.814  13.213   4.775 -0.0353  0.4747 -0.2695
24657W        W40126   5.630   6.203  12.848  0.0179  0.0230  0.0233
24658W        W40127   5.495  11.689  13.631 -0.0381 -0.1024  0.3537
24659W        W40128  11.475   0.013  10.367 -0.3361  0.0290  0.0658
24660W        W40129  13.026  16.753   9.317 -0.0618  0.0622  0.1068
24661W        W40130  18.660   9.778   2.618 -0.1480 -0.2652 -0.3003
24662W        W40131  15.057  17.022   1.491  0.0005 -0.1038  0.2654
24663W        W40132   2.989   2.903  14.026 -0.2958 -0.0433 -0.0439
24664W        W40133  17.377  13.246  13.583 -0.2013 -0.0328 -0.3335
24665W        W40134   4.206   7.738   1.977  0.0730  0.1348 -0.2007
24666W        W40135  13.351   0.436  13.874 -0.1640 -0.2612  0.0279
24667W        W40136  16.973   8.890   3.367  0.2509 -0.1760  0.1443
24668W        W40137   8.697   6.555   2.803  0.1892 -0.1106  0.2609
24669W        W40138   3.806  15.414   3.154  0.2520  0.0392 -0.0043
24670W        W40139   5.528  11.061  15.131 -0.0508 -0.3096  0.2122
24671W        W40140  13.066   3.898  13.156 -0.0377  0.1992 -0.0859
24672W        W40141   7.068   5.020   4.226 -0.0702 -0.0722  0.0180
24673W        W40142   4.973  16.383  10.726 -0.0799 -0.1598  0.6073
24674W        W40143  11.739   9.956  13.986 -0.1559 -0.0448  0.1064
24675W        W40144   1.267   6.565   5.906  0.0768 -0.1685  0.0674
24676W        W40145  12.201   1.736  11.749 -0.3690 -0.2105 -0.3204
24677W        W40146   4.351  16.176   5.662  0.3196  0.1435  0.0219
24678W        W40147  17.901   6.914   1.802 -0.0089 -0.2261 -0.1201
24679W        W40148   4.225   1.071   4.247 -0.2649 -0.2802  0.0730
24680W        W40149   5.129   8.912  13.515 -0.1722 -0.1049  0.1614
24681W        W40150   1.935  11.449   4.405 -0.4433  0.0862 -0.2025
24682W        W40151   2.267   7.208  11.611 -0.4632  0.1252 -0.0274
24683W        W40152   5.769   5.787  12.050  0.0309  0.0405  0.1105
24684W        W40153   0.785   9.736  13.504  0.2567  0.1836  0.1323
24685W        W40154  10.960  17.962  13.385 -0.0992 -0.0043  0.2492
24686W        W40155   3.185   1.876   4.363 -0.0857 -0.1076  0.0181
24687W        W40156   1.348  15.741  14.481  0.0300 -0.1117 -0.0988
24688W        W40157  17.231   5.638   4.838  0.0516 -0.1318  0.0880
24689W        W40158  13.965   2.205  14.603  0.4711 -0.2193 -0.0278
24690W        W40159  17.589  16.084   1.974  0.0673  0.2234  0.0976
24691W        W40160   0.449   1.221   0.113 -0.1797  0.3136 -0.1678
24692W        W40161   6.050  11.500  14.158  0.1448 -0.1238 -0.1658
24693W        W40162   4.994  15.461  11.279  0.1909  0.3958  0.1113
24694W        W40163   7.025  14.029  14.927 -0.0325  0.0590 -0.2128
24695W        W40164  17.501   3.114   4.704 -0.0585 -0.1170 -0.0220
24696W        W40165  16.160  10.533   3.375  0.1312  0.1816 -0.2285
24697W        W40166  16.934  10.690  10.952 -0.1579  0.0362  0.0641
24698W        W40167   6.542  12.009  12.491 -0.2412 -0.0459 -0.1831
24699W        W40168  12.156  10.108  11.863  0.3352  0.0201  0.0947
24700W        W40169   9.729   9.732  13.529  0.0820 -0.0778 -0.0648
24701W        W40170   7.830  14.591   2.554 -0.0144  0.1087  0.0247
24702W        W40171  17.194   8.778   4.819 -0.2162 -0.0385 -0.2348
24703W        W40172  10.125   9.436   4.438 -0.0563 -0.1925  0.0419
24704W        W40173  18.335   1.024   2.991 -0.2736  0.3171  0.0212
24705W        W40174   0.429  10.194   3.773  0.1251 -0.0812 -0.2309
24706W        W40175   3.808  17.592  15.257  0.0351  0.2027 -0.1312
24707W        W40176  18.651   0.621  13.831  0.0284  0.0617  0.1344
24708W        W40177  14.154   7.850   5.477  0.2677 -0.0566  0.0974
24709W        W40178   9.876   8.208   0.571  0.2824  0.1664 -0.0104
24710W        W40179  11.483  16.701  12.058  0.1054 -0.0287 -0.0014
24711W        W40180   7.931   0.985  11.729  0.0247  0.0511 -0.0028
24712W        W40181  15.875   3.946  12.866 -0.0345  0.0819 -0.4627
24713W        W40182  16.845  10.644   0.513  0.0685  0.1625  0.0618
24714W        W40183   0.381   2.886  11.483  0.3272 -0.1425  0.0216
24715W        W40184   4.797  14.911  11.502  0.2036 -0.0634  0.1947
24716W        W40185  10.826  10.499  15.213  0.1355  0.2569  0.0558
24717W        W40186  16.652  16.473  13.433 -0.0862  0.3046 -0.0536
24718W        W40187   7.119  15.185  10.735 -0.0676 -0.2834  0.2622
24719W        W40188   4.325   9.131  13.299  0.0424 -0.2132 -0.0331
24720W        W40189  17.491   0.652  12.800 -0.2009 -0.0401 -0.0840
24721W        W40190  11.387   7.668  15.469 -0.2497 -0.1815  0.1241
24722W        W40191  16.397   3.603  12.919  0.2157 -0.1224  0.0975
24723W        W40192   6.451  14.669   5.721 -0.3312  0.1138  0.2047
24724W        W40193   7.934  12.362  15.265 -0.0127  0.2315 -0.0252
24725W        W40194  10.553  18.595  10.191  0.0651 -0.3786  0.0942
24726W        W40195  17.036   1.086   4.279 -0.0952 -0.3339 -0.1225
24727W        W40196   3.390   0.561   0.016  0.1864 -0.0607 -0.0047
24728W        W40197  10.401   1.387   0.079 -0.2003 -0.0432  0.1678
24729W        W40198   9.841  17.736   5.025  0.0390  0.1973  0.2897
24730W        W40199   1.477   8.069  13.507  0.1593 -0.1214 -0.5964
24731W        W40200   1.300  10.812  15.447  0.2021  0.0528 -0.0027
24732W        W40201   3.351  14.933   1.827  0.1449 -0.2073  0.3624
24733W        W40202   7.617  12.105  10.875 -0.0091  0.1430 -0.0933
24734W        W40203  12.081   2.099  14.581 -0.2603  0.1052  0.1214
24735W        W40204   6.054   7.295  10.664  0.1128  0.2488 -0.1575
24736W        W40205  15.696  16.083   4.178 -0.0576  0.0978 -0.0633
24737W        W40206  16.485  13.594  14.883 -0.0854  0.0800  0.0542
24738W        W40207   8.262  17.998   2.527  0.0342 -0.3528 -0.0961
24739W        W40208  16.734   0.698  13.709 -0.1143  0.0919  0.0693
24740W        W40209  15.728   8.361  14.500 -0.4722 -0.2137  0.0145
24741W        W40210   2.503  17.872   0.493  0.2248  0.1108 -0.1161
24742W        W40211  12.311  10.689   2.220 -0.1342 -0.1493  0.2533
24743W        W40212  15.663   8.928   9.996 -0.0010  0.1955  0.1919
24744W        W40213  16.645  13.611  12.250 -0.1151  0.4047  0.1510
24745W        W40214  11.553  11.476   1.727  0.3101  0.0673  0.0967
24746W        W40215  10.833  11.169   0.968 -0.1315  0.2312 -0.1440
24747W        W40216   0.654   7.627   2.748  0.1586 -0.0739 -0.1027
24748W        W40217  17.519   4.354   2.916 -0.1396  0.0687  0.0148
24749W        W40218   4.196   7.558  12.032 -0.0483  0.2402  0.0142
24750W        W40219  11.992  18.651   1.772 -0.0070 -0.2524 -0.1540
24751W        W40220   9.262  10.552  15.355 -0.3921 -0.2295 -0.0780
24752W        W40221   5.082  10.619   5.176 -0.0917 -0.0502  0.1568
24753W        W40222  10.363  14.711   1.080  0.0631 -0.0203  0.2179
24754W        W40223  14.271   2.925   1.385  0.1422  0.1375  0.0647
24755W        W40224  11.471   4.218   2.320 -0.2352 -0.0848  0.1218
24756W        W40225  14.517  16.262   1.710 -0.0715 -0.2603 -0.3319
24757W        W40226  12.823  13.806  13.733  0.2454  0.2947 -0.1245
24758W        W40227  15.847  10.094  14.606  0.0457 -0.0053  0.0594
24759W        W40228  15.826  15.444  11.707  0.1373 -0.2821  0.1713
24760W        W40229   8.130  12.740   1.152 -0.2287 -0.0144  0.0268
24761W        W40230   3.967   4.007  11.168 -0.1934  0.1590  0.0664
24762W        W40231   6.942  16.544  12.581 -0.0611 -0.2087 -0.1599
24763W        W40232  17.763   0.148   1.340 -0.1816  0.2877  0.1024
24764W        W40233  10.402   5.790   9.734  0.1615 -0.2723  0.2633
24765W        W40234   8.137   1.038   2.440  0.0843  0.1814  0.3149
24766W        W40235   8.142   0.166  12.787  0.1294  0.0621 -0.0686
24767W        W40236  18.069   3.791  10.856  0.0629  0.1182 -0.1496
24768W        W40237  12.455   4.404   5.575 -0.4964 -0.2349  0.0067
24769W        W40238   1.626  12.823  13.487  0.1858 -0.1667 -0.2322
24770W        W40239  10.367   0.192  12.602 -0.1223  0.2776  0.0430
24771W        W40240  10.261  15.361  11.901 -0.0805 -0.0316 -0.1514
24772W        W40241   1.434  15.860   1.976  0.0513  0.1732 -0.0697
24773W        W40242   2.895   5.082   1.383 -0.0703 -0.0829  0.3517
24774W        W40243   7.730   5.118   0.293  0.1392  0.0901 -0.0259
24775W        W40244  17.937   9.702   0.211 -0.1959 -0.2878 -0.1504
24776W        W40245   5.563   6.852  14.187 -0.0566 -0.2115 -0.0433
24777W        W40246  12.347  13.232   2.223  0.1548 -0.1682 -0.1015
24778W        W40247  10.448  12.794  13.000 -0.0828 -0.0195 -0.3005
24779W        W40248   4.183  10.734  15.011 -0.2700  0.2345  0.0213
24780W        W40249   5.768  17.452  12.558 -0.2785  0.0332 -0.0155
24781W        W40250   0.217  10.626   4.404  0.1206 -0.1049  0.0721
24782W        W40251  14.894   6.869   3.459 -0.0552  0.1722  0.0540
24783W        W40252   2.337  14.504   0.271 -0.1193 -0.0812  0.0905
24784W        W40253   1.288   4.161   4.956  0.0216 -0.3901  0.1544
24785W        W40254   4.684  17.859  10.954  0.0939 -0.0039 -0.1827
24786W        W40255   1.532   3.259  15.450  0.0240  0.1849 -0.3444
24787W        W40256   5.185   7.946   4.574 -0.1130  0.2085 -0.1914
24788W        W40257  15.400  13.470   5.436  0.1625  0.1360 -0.1386
24789W        W40258  10.627   0.050  13.369 -0.0312 -0.3496 -0.2041
24790W        W40259  13.306  17.388   4.214 -0.1190  0.0896 -0.1543
24791W        W40260  17.828   4.182   5.407 -0.1551 -0.3718 -0.0106
24792W        W40261   7.492  18.215   2.796  0.1122  0.0953 -0.2629
24793W        W40262   2.206   9.499   3.795  0.0599 -0.0453  0.1912
24794W        W40263   9.744  15.446  11.863 -0.5553 -0.0140  0.3005
24795W        W40264   1.925  13.403  11.150 -0.0091  0.2257  0.2672
24796W        W40265   9.949  11.170  10.986  0.1780 -0.1304 -0.1655
24797W        W40266  16.789   3.581  14.077  0.1594  0.0279 -0.2139
24798W        W40267  14.783   0.120  11.314 -0.0296 -0.2276 -0.0274
24799W        W40268   0.095   1.932   2.143 -0.0332 -0.1202  0.0594
24800W        W40269  15.200  13.584  11.504 -0.1878  0.0215 -0.0909
24801W        W40270  16.272   8.641  13.025 -0.0085  0.3835 -0.1988
24802W        W40271   5.585  16.519  14.404 -0.2007 -0.0907  0.0337
24803W        W40272   3.825  14.418   5.711  0.2035 -0.2183  0.0099
24804W        W40273   7.478  13.067   2.463 -0.0785  0.0468  0.1444
24805W        W40274   3.343   4.647   0.625  0.1846  0.1081  0.2541
24806W        W40275   1.886   5.398   4.691  0.1095 -0.2245 -0.4876
24807W        W40276   0.718  17.953  13.848 -0.2065 -0.1969  0.0767
24808W        W40277   0.037   6.482   1.098 -0.4317 -0.1622  0.3378
24809W        W40278   8.453  12.676   3.608 -0.1132  0.4840  0.3405
24810W        W40279  14.321  10.064  13.620  0.2021 -0.2214  0.2314
24811W        W40280   2.365  17.343  15.453 -0.0905 -0.0350  0.0213
24812W        W40281   3.295  16.265   1.339  0.3364 -0.3529 -0.1805
24813W        W40282   4.411   8.838   2.783  0.0034 -0.0975  0.0441
24814W        W40283   8.901   2.290   1.811  0.0678  0.1598 -0.0832
24815W        W40284  15.710  12.577  15.637  0.0950  0.0246  0.1670
24816W        W40285   9.841   5.314   3.072 -0.1180  0.2646 -0.0275
24817W        W40286   2.947   1.804  12.916  0.2686 -0.0398  0.1922
24818W        W40287   2.444  12.033  14.020  0.1410  0.0250  0.0366
24819W        W40288  11.377   2.648   3.287  0.0419 -0.1089 -0.3964
24820W        W40289  10.606   7.114  13.849  0.0814  0.0873  0.2805
24821W        W40290  16.236   5.838   1.906  0.0428  0.1603 -0.1233
24822W        W40291  12.287  10.135  12.790 -0.0643 -0.2676  0.2683
24823W        W40292   0.037   6.125  15.557  0.2969 -0.2169 -0.2536
24824W        W40293   1.997   7.561  12.298 -0.1968  0.1058 -0.2760
24825W        W40294  13.329   5.350  15.624  0.0815  0.2401  0.0901
24826W        W40295   2.163  16.959   2.365 -0.1704  0.0430  0.0906
24827W        W40296  15.197  15.113  13.682  0.0000 -0.1207 -0.0172
24828W        W40297   7.253  16.792  13.033 -0.0392 -0.0774  0.1684
24829W        W40298  17.704   6.785  13.988  0.4142 -0.1252  0.4109
24830W        W40299  18.393   5.314   3.458  0.0492  0.1135 -0.0918
24831W        W40300  14.175  10.734  10.323 -0.1693  0.1253  0.0730
24832W        W40301   2.340   0.928   4.353  0.0611  0.2659 -0.1950
24833W        W40302   0.030  16.588   3.948 -0.0576  0.0116  0.0359
24834W        W40303  16.487   5.499   0.530 -0.1854 -0.3083  0.0857
24835W        W40304  12.073  11.949  13.550  0.3027  0.0092  0.2307
24836W        W40305   8.681  11.722   2.762  0.1458  0.0340 -0.1298
24837W        W40306   5.013   8.500   1.969 -0.0635  0.1518 -0.1144
24838W        W40307   3.012  18.289  14.520  0.1357  0.2473 -0.2387
24839W        W40308  11.370  17.631   1.632  0.0484  0.1909  0.2529
24840W        W40309  10.541   9.245  13.199  0.0510 -0.2416  0.3367
24841W        W40310   1.551  17.402   5.929  0.0782  0.1310  0.1227
24842W        W40311  11.359   8.198  12.984 -0.2530 -0.0767 -0.2401
24843W        W40312   2.074   0.209   4.024 -0.2588 -0.1992  0.1670
24844W        W40313  13.806  10.452   3.658 -0.0178 -0.0168 -0.4184
24845W        W40314   9.993  14.811   4.807  0.2839  0.1248 -0.1332
24846W        W40315   3.843  15.879   5.215 -0.1185 -0.0941  0.2689
24847W        W40316  18.618   5.058  15.665 -0.2212  0.3277  0.0628
24848W        W40317   2.672   5.147   0.521 -0.2578  0.1768  0.2222
24849W        W40318  12.742  11.981   5.225  0.0023 -0.0568  0.0580
24850W        W40319  13.054  15.954   5.155  0.0381 -0.0844  0.1891
24851W        W40320  11.796   3.861  12.142 -0.2049 -0.0330  0.1533
24852W        W40321  18.349  14.581   2.754  0.0319 -0.0970  0.0535
24853W        W40322  15.910  12.528   5.088 -0.1642  0.0474  0.2210
24854W        W40323  16.483   1.068   4.244  0.1095  0.1102  0.3278
24855W        W40324  11.082  12.143   5.251 -0.0259  0.0249  0.2108
24856W        W40325   0.440   0.024  14.249  0.4148 -0.2283 -0.2249
24857W        W40326   9.451   5.983   4.930 -0.3180 -0.0319  0.1148
24858W        W40327   3.122   0.849   3.338 -0.1047 -0.0332  0.1018
24859W        W40328  11.902   7.985  13.880 -0.0125 -0.2375 -0.6103
24860W        W40329   1.602   0.144  14.966 -0.2689 -0.0389  0.2136
24861W        W40330  16.602   9.857   2.936 -0.0182 -0.1181 -0.0589
24862W        W40331   1.990  12.279  14.846 -0.0905  0.3174  0.4226
24863W        W40332   1.992   4.151  12.102  0.2656 -0.2189 -0.0675
24864W        W40333   3.925   8.574  15.579  0.0444 -0.3117  0.3675
24865W        W40334   4.876   1.703  13.353  0.1001  0.2326 -0.2990
24866W        W40335   3.254   4.525  10.728 -0.0845 -0.0675 -0.2461
24867W        W40336  15.031  10.748   6.009 -0.0622 -0.0202 -0.1078
24868W        W40337  13.146  10.759  15.110  0.3232  0.0433  0.0270
24869W        W40338  14.998   7.973   4.350  0.0276 -0.1457  0.1926
24870W        W40339  17.778   2.987  12.153 -0.1796 -0.1031 -0.2052
24871W        W40340  14.758  13.261   5.582  0.0555  0.0404 -0.3343
24872W        W40341   2.849   4.509   4.030 -0.2806 -0.4404  0.2113
24873W        W40342   1.683  12.424   1.667 -0.3043  0.0186  0.2320
24874W        W40343  13.212   5.541  14.718  0.0998  0.1592 -0.0853
24875W        W40344   6.184   3.075   2.414  0.2160 -0.4907 -0.0854
24876W        W40345   2.078  16.077   2.666 -0.0732 -0.3334 -0.0601
24877W        W40346  12.394   9.926  12.222 -0.3659 -0.2661 -0.2019
24878W        W40347   8.966  12.737   2.550  0.0055 -0.1657 -0.0087
24879W        W40348  18.639   2.154   1.695 -0.1374  0.0235  0.2064
24880W        W40349   8.621  13.015   0.524  0.3145  0.0637  0.1610
24881W        W40350   0.303  14.364  13.209 -0.0072 -0.0826  0.1618
24882W        W40351  13.519  15.780  13.416 -0.0194 -0.1373  0.1017
24883W        W40352   2.529  17.124   5.189  0.1501  0.1631 -0.2940
24884W        W40353   0.441   2.612  13.253  0.0624 -0.1789  0.1773
24885W        W40354   9.378  10.400   4.292  0.0485 -0.2694  0.1396
24886W        W40355   6.176  14.142   0.469 -0.1012 -0.2125 -0.2938
24887W        W40356  13.943   0.464  14.038  0.1179 -0.1322 -0.1938
24888W        W40357   7.159   2.810  14.365 -0.2179  0.3212 -0.0761
24889W        W40358  15.605   5.262  11.381 -0.1135  0.0694 -0.0181
24890W        W40359  14.564   9.214  12.717 -0.3202 -0.1995 -0.2477
24891W        W40360  16.294  17.734  14.171 -0.0218  0.1937 -0.3475
24892W        W40361  17.492  18.071  14.423 -0.0620  0.2559 -0.2142
24893W        W40362  17.821  16.566   4.559  0.2963  0.0835 -0.2986
24894W        W40363   7.068  13.876   5.505 -0.0937 -0.1151  0.2118
24895W        W40364   2.728   9.344  11.424 -0.0736  0.3481 -0.0771
24896W        W40365  17.875   9.307   4.422  0.1583  0.0273  0.0667
24897W        W40366   6.199   2.607   1.190  0.0458 -0.1322  0.0745
24898W        W40367   0.930   7.135  11.030 -0.2729  0.1309  0.3017
24899W        W40368  14.435  11.065   2.173  0.0578 -0.0243  0.2846
24900W        W40369  12.172   5.573   4.935 -0.0299 -0.1483 -0.0338
24901W        W40370   6.074  10.729   3.081 -0.3055 -0.0787  0.4324
24902W        W40371  11.309  17.662  13.492 -0.0155  0.2877 -0.0505
24903W        W40372   0.863  10.596   3.167  0.1083 -0.2607 -0.1983
24904W        W40373   8.633   0.557  15.087 -0.1711 -0.0372  0.0904
24905W        W40374   4.440   0.520   4.864 -0.0252 -0.5241  0.3069
24906W        W40375  11.758   6.262  13.511  0.1608  0.2911  0.1458
24907W        W40376  13.716   1.702  12.349  0.0957 -0.0902 -0.0684
24908W        W40377  14.371   5.965  11.955 -0.0449 -0.0357  0.1782
24909W        W40378  15.582  16.770   2.954  0.0645  0.1485  0.4178
24910W        W40379  10.893  16.450   4.292 -0.5199 -0.3050  0.2857
24911W        W40380   2.109   5.677   3.924  0.1232 -0.2279 -0.1616
24912W        W40381  12.307  11.230  13.601 -0.0168  0.2215  0.1538
24913W        W40382   5.417  14.117  12.460  0.1215 -0.3382  0.0156
24914W        W40383   2.008   2.683   5.358  0.0720  0.0794  0.5011
24915W        W40384  12.232   5.749   2.647  0.0991  0.1114  0.0864
24916W        W40385  10.898   6.674  14.503 -0.2540  0.1590  0.1287
24917W        W40386  12.963   8.830  12.767 -0.3195  0.0738  0.0387
24918W        W40387  18.773  12.943   3.224 -0.0424  0.0603 -0.0194
24919W        W40388   4.380  11.984  11.423  0.0289  0.0666 -0.3061
24920W        W40389   7.919  17.923  12.697 -0.0325  0.1512  0.0994
24921W        W40390  10.086  15.340   4.949  0.2410  0.2901  0.1936
24922W        W40391   1.538   3.535   1.199 -0.2545  0.0064  0.1103
24923W        W40392   8.054  14.984   2.944  0.4100  0.3427  0.0892
24924W        W40393   2.730   0.349  13.408  0.1499 -0.0185  0.0625
24925W        W40394  14.384  17.835   0.953  0.2528 -0.0010 -0.1189
24926W        W40395  11.590   6.122   0.320 -0.2032 -0.0429 -0.0719
24927W        W40396  14.645   4.463  11.895 -0.1129 -0.1183 -0.2618
24928W        W40397   0.350   6.678   5.239  0.2741  0.0819 -0.1417
24929W        W40398   3.763   2.249   5.260  0.0935 -0.0609  0.0855
24930W        W40399  15.125   6.508  14.861  0.0383  0.1034 -0.3969
24931W        W40400   9.096   4.820  15.058  0.0614  0.0567 -0.1796
24932W        W40401   8.025  18.503   1.268 -0.1235 -0.0272  0.1520
24933W        W40402  11.055   9.761  13.729 -0.5487 -0.2792 -0.0585
24934W        W40403   6.325  16.712   4.718 -0.0236  0.3437 -0.3462
24935W        W40404   9.244  14.808  11.374  0.0926  0.0321 -0.0803
24936W        W40405  12.298  14.191  14.797 -0.2211 -0.0332  0.0562
24937W        W40406   4.586   4.971  13.223 -0.0823 -0.2216 -0.0786
24938W        W40407  14.423  18.255   4.240 -0.2355  0.2705 -0.0414
24939W        W40408  12.280  17.281   1.007 -0.1615  0.1045  0.1207
24940W        W40409  10.537   1.522  12.422 -0.1218 -0.0550 -0.1447
24941W        W40410   1.468   4.836  11.649 -0.0120 -0.3602 -0.0720
24942W        W40411   7.518   9.565  11.117  0.0198 -0.0836  0.0189
24943W        W40412  15.249  18.219   5.642 -0.0843  0.3400 -0.4157
24944W        W40413  17.449  16.398  14.864 -0.1945 -0.3522  0.2562
24945W        W40414   0.666  15.414  14.976 -0.2116 -0.3951 -0.0965
24946W        W40415   5.133   3.781   3.091 -0.0672  0.0112 -0.0168
24947W        W40416  13.774  16.694  12.813  0.1133 -0.0087 -0.0454
24948W        W40417  14.413   4.506  10.501  0.1353  0.0292  0.0542
24949W        W40418  12.628   5.045  15.412  0.1893 -0.1056 -0.1129
24950W        W40419  14.544   5.009  11.177 -0.6064 -0.0154  0.3168
24951W        W40420   9.135   9.838   2.625  0.0142 -0.1337 -0.1295
24952W        W40421  13.548   6.335  15.517 -0.4671 -0.2073  0.1600
24953W        W40422  14.062   0.780   1.976 -0.1793 -0.0262  0.0727
24954W        W40423  11.286   9.007  15.349 -0.5562  0.1376  0.4421
24955W        W40424   9.668  15.805  15.072 -0.1284  0.2260 -0.1559
24956W        W40425  16.448   0.126  12.316 -0.0151 -0.0251 -0.0583
24957W        W40426  14.799  13.944   2.369 -0.1510  0.2335 -0.0124
24958W        W40427   1.170  10.968   0.625  0.1122  0.3201 -0.1825
24959W        W40428   9.167   1.583  14.167  0.1769 -0.0656  0.1314
24960W        W40429  17.117  11.816   3.435  0.0137  0.1354  0.1706
24961W        W40430   5.683  16.625  13.925  0.1938  0.1031 -0.2111
24962W        W40431   8.067   1.193  15.652  0.1958  0.4073  0.0187
24963W        W40432   2.974  11.672  12.656 -0.0068 -0.2701 -0.0077
24964W        W40433   5.025   4.212   1.744 -0.0826 -0.2035  0.1436
24965W        W40434   7.953   2.101  12.054 -0.1011  0.1517 -0.2159
24966W        W40435   4.875   7.919   0.495  0.0729  0.0647  0.1897
24967W        W40436  17.807  15.916   2.855  0.0794 -0.0673 -0.1053
24968W        W40437   9.378  10.377  11.607 -0.1869  0.3239  0.0548
24969W        W40438   8.427   0.127   4.077 -0.1302 -0.3008 -0.1529
24970W        W40439   7.764  15.173   0.586  0.0582 -0.0177  0.3379
24971W        W40440  17.928   6.583  10.397  0.0806  0.1663  0.0463
24972W        W40441  15.383  10.665   0.638  0.0714 -0.0276 -0.1044
24973W        W40442  12.601   9.145  13.020  0.0916  0.1069  0.0167
24974W        W40443  16.043   9.755  14.330 -0.0196  0.1396 -0.2205
24975W        W40444   4.932  16.815   4.538 -0.0093  0.0629 -0.2822
24976W        W40445   0.208   9.335  14.821  0.0431 -0.1221  0.0677
24977W        W40446  14.774   9.439  12.236  0.0065  0.0502  0.1116
24978W        W40447  13.607  18.564  10.923 -0.3948 -0.0757 -0.0192
24979W        W40448  11.418   8.216   4.214  0.3365 -0.2664 -0.3072
24980W        W40449  16.517  18.509  10.772  0.0001 -0.0078  0.0438
24981W        W40450   1.253   0.171   4.858 -0.0163 -0.0971 -0.0938
24982W        W40451   9.159  18.761   3.980  0.1747  0.1890  0.3699
24983W        W40452   9.899   9.756   0.482  0.2824  0.1820 -0.1967
24984W        W40453  17.548   1.175  13.072 -0.0609  0.0675 -0.0555
24985W        W40454  15.311  11.809   1.271 -0.1076 -0.1397 -0.0308
24986W        W40455  15.110  13.653  14.125 -0.1163  0.0905 -0.1257
24987W        W40456   0.757   5.648   3.565  0.3780 -0.3377 -0.2245
24988W        W40457   2.032  12.340   4.263  0.0082 -0.3051  0.3993
24989W        W40458   4.837   1.116   2.426  0.0723 -0.0558 -0.0399
24990W        W40459  18.199  10.565  15.617 -0.2342 -0.0740 -0.2537
24991W        W40460  11.717   3.448  10.964 -0.2565 -0.4978  0.0615
24992W        W40461   0.521  13.409   6.206 -0.4321 -0.1828  0.2019
24993W        W40462   0.751  13.208  12.745 -0.0907 -0.1884  0.0379
24994W        W40463  13.943   1.587   3.980 -0.1228  0.3295  0.0597
24995W        W40464  10.136   0.498   2.018 -0.1465 -0.0892  0.0577
24996W        W40465  13.000   3.292   0.569 -0.0950  0.0055  0.1701
24997W        W40466   2.016   9.926   0.933  0.2854 -0.0173 -0.0248
24998W        W40467  11.228   8.495   3.299 -0.3996  0.0144 -0.1595
24999W        W40468   0.663  16.054  11.132 -0.1315  0.0992 -0.1488
25000W        W40469   6.042   4.818   1.663  0.1252 -0.0978 -0.1151
25001W        W40470  14.039   3.392   2.594  0.0997  0.1991  0.0349
25002W        W40471  10.637  13.141   3.378 -0.1639 -0.3972 -0.3299
25003W        W40472  11.316  14.034   0.910 -0.6166  0.1346 -0.2927
25004W        W40473   4.725  10.550   9.594 -0.0468 -0.0485  0.0594
25005W        W40474   7.768  16.100   4.181  0.0255  0.0955  0.2942
25006W        W40475  18.206   8.223  13.026 -0.2059 -0.1583 -0.4125
25007W        W40476   3.161   3.648  11.038 -0.2009  0.0975  0.0387
25008W        W40477  11.631   5.318   3.825 -0.2465  0.0015  0.1329
25009W        W40478  17.486  13.229  11.302  0.0179  0.0745 -0.0418
25010W        W40479  14.385  13.897  13.076 -0.0415  0.0364 -0.2812
25011W        W40480   9.641   3.166   5.266 -0.1739 -0.0411  0.0144
25012W        W40481  13.917   1.820   1.606 -0.1492  0.0908 -0.0891
25013W        W40482  16.305   5.735   0.911 -0.0729  0.3734 -0.2782
25014W        W40483   1.731   7.397  10.418  0.0531 -0.1356  0.0201
25015W        W40484   0.522  10.612  10.489 -0.0767 -0.1811  0.2275
25016W        W40485  12.351  17.575   2.921 -0.0169 -0.1609  0.0446
25017W        W40486  15.472   1.428  12.267 -0.0556 -0.2797 -0.0543
25018W        W40487  14.979   9.634  10.896  0.1627  0.1448 -0.1225
25019W        W40488  17.776   6.533   0.869 -0.2484 -0.1090  0.0085
25020W        W40489   8.559  18.655   1.229 -0.1331 -0.0212  0.0194
25021W        W40490   4.236   5.295   1.045  0.2500 -0.0815 -0.2030
25022W        W40491   6.950   0.966  11.872 -0.1206  0.0721  0.0869
25023W        W40492   2.154  13.148  14.694  0.1253 -0.3358  0.2042
25024W        W40493   2.259  11.297  12.455  0.1853  0.0648  0.1517
25025W        W40494  12.418  12.249  14.886 -0.1546  0.0569  0.1031
25026W        W40495   1.977  12.766   5.457  0.1216 -0.2359  0.0748
25027W        W40496   5.204  15.021  12.858 -0.0655 -0.0296 -0.0186
25028W        W40497   4.757  13.424   2.483  0.1853 -0.1623 -0.0171
25029W        W40498   6.205  12.194  12.899  0.2511  0.1021  0.2259
25030W        W40499  15.286   5.287   1.743  0.0926 -0.0938  0.1255
25031W        W40500  13.871  15.030  11.370  0.0697  0.3004 -0.0937
25032W        W40501  12.244   8.753   4.031 -0.2317 -0.1308 -0.5040
25033W        W40502   3.266   8.742   3.925  0.0897  0.1249  0.1141
25034W        W40503   1.135   4.516   4.397 -0.1893 -0.1702 -0.2340
25035W        W40504   7.668   3.995  13.004  0.0517  0.0958  0.1977
25036W        W40505   5.175  17.185   0.257  0.0978  0.1151  0.1876
25037W        W40506   3.916   0.662   9.932 -0.2392  0.0615 -0.0289
25038W        W40507  12.028   2.816  11.587  0.1433 -0.1934 -0.3256
25039W        W40508   3.325  11.121  14.679  0.2901  0.5238  0.0249
25040W        W40509   0.929   5.179   1.590 -0.0822  0.0405  0.0660
25041W        W40510  17.065  16.799   3.045  0.0917 -0.3086  0.1328
25042W        W40511  10.167   2.968   2.781 -0.1322  0.2229 -0.0022
25043W        W40512   3.895   7.991   4.075 -0.0057  0.1696  0.1305
25044W        W40513   9.968   3.015   9.785 -0.0810  0.0444 -0.1524
25045W        W40514  13.895   5.263  13.860  0.0204 -0.1776 -0.2934
25046W        W40515  14.489   6.525  11.461  0.4195  0.0364 -0.2928
25047W        W40516   5.929  11.177   4.237 -0.2154 -0.0455 -0.0591
25048W        W40517   9.450  18.035   0.974  0.2621  0.0866 -0.2212
25049W        W40518   5.936  13.373  15.407 -0.0503 -0.1327  0.1587
25050W        W40519   0.924   4.131   3.576 -0.0413 -0.0009  0.1020
25051W        W40520  16.756  17.300  12.511 -0.1937 -0.1296 -0.1985
25052W        W40521  14.702   0.196   3.137 -0.1235 -0.1467  0.2358
25053W        W40522  18.160   4.492  15.353  0.3462 -0.1464  0.0553
25054W        W40523  17.533   1.647   2.081 -0.0593 -0.1572 -0.1686
25055W        W40524  11.093  10.587   1.102 -0.0494 -0.0007  0.3011
25056W        W40525   8.804   7.357  12.254  0.1458 -0.0043  0.0768
25057W        W40526  17.357  12.948  13.151 -0.0800  0.0709 -0.1884
25058W        W40527   2.475   8.597  12.012 -0.1857  0.0534  0.0559
25059W        W40528   9.573   4.535  14.963  0.0420 -0.0593  0.0534
25060W        W40529   9.644  12.001  12.090 -0.1886 -0.3069  0.0471
25061W        W40530  18.664   6.592  14.739  0.0225  0.0281 -0.1026
25062W        W40531   1.547  16.557   0.449 -0.0149 -0.2641 -0.2585
25063W        W40532   8.239  15.135   2.380 -0.1065 -0.3677 -0.0162
25064W        W40533  11.366  18.128  10.122 -0.0230  0.2039  0.1657
25065W        W40534  18.595   4.743   4.755  0.0926  0.0216 -0.3528
25066W        W40535   1.580  17.695  15.408 -0.0378  0.3686 -0.3935
25067W        W40536  17.934  11.050   0.369  0.0476  0.1589 -0.2991
25068W        W40537   0.271   6.257   4.096  0.0087  0.2291 -0.1593
25069W        W40538   3.039  16.326   2.765  0.0042  0.2215  0.2634
25070W        W40539   4.826  18.223  12.214 -0.0405  0.1800  0.2271
25071W        W40540  18.087  16.612   1.651 -0.0278 -0.0791 -0.0472
25072W        W40541  16.646  11.333   3.826  0.1084  0.1657 -0.2659
25073W        W40542  12.668   6.533   1.362 -0.3048 -0.1795 -0.2731
25074W        W40543   1.680  14.768   4.627 -0.1052  0.2141  0.0180
25075W        W40544   2.163   4.455  11.443  0.3006  0.2250  0.2822
25076W        W40545   5.872   8.719  15.109 -0.0075  0.0459  0.3169
25077W        W40546   2.789  17.275   1.034  0.0185 -0.0040  0.3345
25078W        W40547   4.743   2.395   3.346 -0.3557 -0.0797 -0.0447
25079W        W40548   2.250   7.702   3.480 -0.1829 -0.2075  0.0020
25080W        W40549  18.467  11.929   3.097  0.1600  0.2051  0.1297
25081W        W40550  16.024   2.714  13.735 -0.2046  0.0306 -0.2021
25082W        W40551   8.233   6.118  11.998 -0.1131  0.0219 -0.0184
25083W        W40552  15.895  18.589   4.920 -0.0774 -0.0941  0.0140
25084W        W40553  16.543  14.205  13.486 -0.0111  0.1452  0.1593
25085W        W40554   3.975   5.849   5.241 -0.1128  0.0347 -0.0451
25086W        W40555   7.575   2.059   3.359  0.0528  0.3938  0.0529
25087W        W40556   9.630  12.466  10.953 -0.0183 -0.1668 -0.2454
25088W        W40557  17.012  14.651   0.061  0.3155 -0.1560 -0.5306
25089W        W40558  13.965   9.674  13.368 -0.1614 -0.2681 -0.0423
25090W        W40559   1.987   9.458   0.311 -0.0569 -0.1618  0.2456
25091W        W40560   1.554   9.212   0.135  0.0924  0.1293 -0.0288
25092W        W40561  16.219  14.619   4.554  0.1132 -0.0681 -0.1133
25093W        W40562   0.912  13.820   1.447 -0.1339  0.0891 -0.0661
25094W        W40563  13.064  10.329  11.625 -0.2971  0.2884 -0.2020
25095W        W40564   9.158   3.365  14.703 -0.0937  0.5577  0.0505
25096W        W40565   9.427  11.045  14.248  0.1248  0.0597 -0.2987
25097W        W40566  18.038   7.814   1.163  0.1276  0.1787  0.2303
25098W        W40567  15.451   1.471   5.190  0.2180 -0.3957 -0.0821
25099W        W40568   2.887  14.920   3.328 -0.3450 -0.0254 -0.2985
25100W        W40569  17.166   7.237   3.820 -0.0337 -0.0047 -0.0609
25101W        W40570   4.166  18.446   2.925  0.0586 -0.1220  0.0971
25102W        W40571   2.206  17.628   3.565 -0.1464 -0.0633  0.0561
25103W        W40572   1.371   9.910   1.562 -0.3800 -0.0293  0.0104
25104W        W40573   4.194   8.974   0.801 -0.0157  0.0885  0.0225
25105W        W40574   5.409  17.788   2.860  0.0622  0.0105 -0.4042
25106W        W40575   7.085   6.404  15.319 -0.0644  0.1360  0.0572
25107W        W40576  17.297   3.951  14.374  0.1808  0.0742  0.0715
25108W        W40577  15.472   5.688   4.522  0.2197  0.0827  0.2079
25109W        W40578  12.151   0.485  10.694  0.0322 -0.0111  0.0720
25110W        W40579  13.829   7.655   0.883 -0.0029 -0.1144 -0.4879
25111W        W40580   1.748   2.883  15.148 -0.1825  0.2428  0.0246
25112W        W40581  10.638  16.002   0.802 -0.1478  0.1124 -0.1243
25113W        W40582   3.168  16.279  15.382 -0.3072 -0.2374  0.1208
25114W        W40583   0.391  13.005  11.578  0.1393  0.3240  0.0402
25115W        W40584   8.770   0.087   3.693  0.0038 -0.3268 -0.1825
25116W        W40585  14.285   5.517  13.906  0.3178  0.1945  0.2475
25117W        W40586  16.811   5.874   3.614 -0.2038  0.0019  0.3832
25118W        W40587  11.178  15.908   1.996  0.3330 -0.1837  0.2862
25119W        W40588   5.342   0.153  12.766  0.5187 -0.0325  0.0766
25120W        W40589   6.522  12.567   1.974 -0.0604  0.1164  0.1835
25121W        W40590  12.952   6.832   1.804  0.1911 -0.4613 -0.0236
25122W        W40591   2.209  17.974   4.661 -0.1929  0.2186 -0.0436
25123W        W40592   8.690  10.163  10.515  0.2201  0.3124 -0.2527
25124W        W40593   5.666   4.218   4.066  0.1712 -0.2369 -0.0898
25125W        W40594  14.528   2.534   4.349  0.1755  0.4224 -0.0226
25126W        W40595  11.319  17.215  13.232 -0.0103 -0.1535  0.2373
25127W        W40596   3.059   0.722  13.459  0.0396 -0.0193  0.1459
25128W        W40597  10.927  14.668   0.390  0.0826 -0.0092  0.1173
25129W        W40598  17.005   2.577   5.214 -0.0724  0.1293 -0.0872
25130W        W40599  16.414  12.159   5.525 -0.1159  0.0965 -0.1173
25131W        W40600  15.068  11.349  10.211  0.1684  0.0763 -0.0720
25132W        W40601  18.634  17.728   2.531 -0.0157  0.1880  0.4383
25133W        W40602  15.662   5.203   1.372 -0.3042 -0.0966 -0.3758
25134W        W40603  14.545   2.799   5.273 -0.0905  0.4864  0.1420
25135W        W40604  10.843   4.526  15.560 -0.1020  0.2917  0.2508
25136W        W40605   5.869  18.431  13.172  0.0646  0.0167 -0.3783
25137W        W40606   5.863   3.952  13.507  0.2012  0.2231 -0.0126
25138W        W40607  12.697  12.464   2.874  0.1762 -0.1312 -0.1595
25139W        W40608   7.183   2.752  11.824  0.0637  0.0607 -0.0628
25140W        W40609   2.900   3.983   4.070 -0.0862 -0.1759 -0.2701
25141W        W40610   3.108   0.336  12.329 -0.2297  0.0431 -0.0970
25142W        W40611  11.198   0.480  10.607  0.0145  0.3672  0.0617
25143W        W40612  17.764   5.685   4.674 -0.0032  0.2855  0.0070
25144W        W40613   7.453   6.498  12.047  0.2035 -0.0200  0.2250
25145W        W40614   8.353  11.899   4.669 -0.0557  0.1099  0.0180
25146W        W40615  13.056  17.408   5.341 -0.5300  0.2647  0.3342
25147W        W40616   8.339  15.088   3.361  0.3406  0.0026  0.0787
25148W        W40617  15.203   8.064   4.823 -0.1198 -0.1159  0.3562
25149W        W40618  17.324  12.068   0.662 -0.0095  0.0099  0.2099
25150W        W40619   7.739  15.271   2.553 -0.0955  0.0209  0.1065
25151W        W40620  14.914   7.087   4.672  0.1825 -0.6537  0.3068
25152W        W40621   4.844   2.660  15.060 -0.0443 -0.0362 -0.0549
25153W        W40622  14.940   9.666   1.347 -0.2689  0.5428 -0.0516
25154W        W40623  16.233  10.985  12.739  0.1014 -0.0547  0.2681
25155W        W40624   1.846  13.531  10.311 -0.0256 -0.0076 -0.2815
25156W        W40625  10.619   0.216   3.529 -0.0277  0.2457  0.2617
25157W        W40626   9.209   6.505   1.819  0.1148 -0.0792  0.3770
25158W        W40627  13.650  18.319   0.945  0.3041  0.0330  0.2737
25159W        W40628   0.435  15.933  15.645  0.0019 -0.0311 -0.2260
25160W        W40629  10.060   0.577   4.278  0.1802 -0.1950 -0.0771
25161W        W40630   1.793   5.268   4.211  0.0725  0.2214  0.5119
25162W        W40631   9.343   4.933  14.075  0.0967  0.1361 -0.0304
25163W        W40632   9.290  10.281  13.221 -0.2253  0.4416  0.0000
25164W        W40633   5.386   1.810  14.797 -0.3517  0.1972  0.0239
25165W        W40634   7.977   0.792   3.630 -0.0258 -0.1896 -0.0435
25166W        W40635  17.642   3.874  15.137 -0.1103  0.0297  0.2199
25167W        W40636  17.192  16.064  15.267  0.4194 -0.2170 -0.0597
25168W        W40637  17.589   3.622  11.103 -0.0810 -0.2272  0.1753
25169W        W40638   3.294   7.473  12.424 -0.0658  0.3077  0.1614
25170W        W40639  17.035   8.346  15.033  0.0319  0.1805  0.1803
25171W        W40640   4.573  10.928   4.456  0.0714 -0.0957  0.2404
25172W        W40641  14.206  13.818   4.823 -0.2391 -0.0142  0.2292
25173W        W40642   3.840  10.813   2.287 -0.0525 -0.0966 -0.1077
25174W        W40643   5.675   4.524  13.457 -0.4464 -0.1905 -0.1816
25175W        W40644   1.598  17.201  15.190 -0.0742 -0.1531  0.1192
25176W        W40645  11.860   2.769  13.691  0.2786  0.1373 -0.0537
25177W        W40646  13.662  14.479  15.581 -0.0829 -0.0387 -0.1634
25178W        W40647  13.392  17.876   9.717 -0.2629 -0.0678 -0.0265
25179W        W40648   9.355   3.753  13.501  0.1519 -0.1054 -0.2853
25180W        W40649   5.420  12.868   1.067 -0.1208 -0.1794 -0.1754
25181W        W40650  14.698   2.475  13.296  0.0688  0.0647  0.0460
25182W        W40651  17.525   8.688  11.264 -0.1400 -0.2885  0.1350
25183W        W40652  17.651   6.006   1.679  0.4136  0.2060  0.0428
25184W        W40653  10.357   6.881  11.190 -0.2609 -0.2930  0.0534
25185W        W40654   0.176  17.778  12.730  0.0343  0.0221  0.1057
25186W        W40655   9.259  17.867  13.778 -0.1785  0.1587 -0.2568
25187W        W40656  10.609  14.356   5.631  0.2341  0.0995  0.3070
25188W        W40657  17.965  11.107   4.990 -0.0564  0.1909 -0.0586
25189W        W40658   6.303   6.893   1.223 -0.1187 -0.2360 -0.1515
25190W        W40659  10.239   6.984  10.751  0.0454  0.0584  0.1372
25191W        W40660  16.211   1.265   3.301 -0.0862  0.0816  0.1759
25192W        W40661   2.042   4.368   0.993  0.0273  0.1806  0.0706
25193W        W40662   7.227   8.083  14.101 -0.0157 -0.1174  0.3858
25194W        W40663   9.885  10.203   2.394  0.0820 -0.2316 -0.1216
25195W        W40664   1.587   6.977   5.828 -0.1711  0.3044 -0.0127
25196W        W40665   9.341   7.421   0.007 -0.0032  0.1507  0.2895
25197W        W40666   5.846   4.009   3.636 -0.1534  0.0145 -0.0968
25198W        W40667   8.905  10.989  11.041  0.0960  0.0367  0.0826
25199W        W40668   5.274   6.279  12.058  0.4480 -0.0453  0.2296
25200W        W40669  10.706   1.236  14.590 -0.1962  0.4914  0.1026
25201W        W40670  13.247   8.704   3.014  0.0832 -0.0001 -0.1665
25202W        W40671   1.859  16.379  15.032  0.0918  0.0081  0.1768
25203W        W40672   0.053  18.439  13.201  0.1079  0.0438  0.0067
25204W        W40673   1.896   0.287  14.433  0.0270  0.1240  0.3143
25205W        W40674   6.137   6.183  14.519 -0.0484 -0.1481 -0.1092
25206W        W40675   3.486   6.512  12.350 -0.0963  0.0573 -0.1493
25207W        W40676  13.308   9.572  14.870 -0.0711 -0.1811  0.0752
25208W        W40677  16.435   3.990  13.908 -0.0437  0.1466 -0.0692
25209W        W40678   1.865   8.890   5.392 -0.1215 -0.1513 -0.0235
25210W        W40679   9.183   9.172   1.725  0.1981  0.1242  0.1816
25211W        W40680   0.007  18.055   0.356 -0.0250  0.1644  0.0983
25212W        W40681  15.049  12.353  11.188  0.0882 -0.1145 -0.4559
25213W        W40682   2.888  14.730   4.888 -0.1856 -0.2256 -0.0581
25214W        W40683  14.837   8.793   4.381 -0.0428 -0.2156  0.2168
25215W        W40684  13.834   9.773  11.352  0.0728 -0.1475  0.2237
25216W        W40685   8.070  16.069   1.748  0.1301  0.1281 -0.1732
25217W        W40686  12.181   4.090   4.853  0.1682 -0.0693  0.1973
25218W        W40687   0.973  10.126   0.273  0.3573 -0.3331 -0.0715
25219W        W40688  10.106   7.084   2.444 -0.0027 -0.1643 -0.1963
25220W        W40689   7.476   2.414   9.884 -0.1338 -0.1161 -0.0586
25221W        W40690  12.421  17.275   4.592  0.0436 -0.1676  0.0733
25222W        W40691   5.754  14.354   1.735  0.0670 -0.0630  0.0030
25223W        W40692   1.486  14.073  11.336  0.0891  0.4150 -0.1828
25224W        W40693  13.768  16.387  14.901  0.1123  0.0730 -0.2302
25225W        W40694   2.669   9.356  15.476  0.2539  0.1372 -0.0883
25226W        W40695   5.200  16.366   0.753 -0.3197 -0.1044 -0.2121
25227W        W40696  14.082   0.301   4.310 -0.0343  0.1009 -0.4355
25228W        W40697  14.238   1.356   2.971 -0.0479 -0.1852  0.1009
25229W        W40698  13.480   1.576  12.896  0.4023  0.1905 -0.3216
25230W        W40699  12.101  18.639   4.888  0.1238 -0.0324  0.0183
25231W        W40700  18.036  14.972  14.645 -0.1395 -0.2417 -0.0529
25232W        W40701   8.986   9.884   2.120 -0.2389 -0.2325 -0.0565
25233W        W40702  16.376   2.647  10.923  0.0677  0.2671 -0.0931
25234W        W40703   6.587  12.994   2.979  0.0837  0.1819 -0.1805
25235W        W40704  10.054  13.153  15.549  0.3342  0.2903  0.2202
25236W        W40705  13.490   7.473  14.389  0.0024  0.2976 -0.3524
25237W        W40706  17.043   3.111   4.548  0.2764  0.2006  0.1590
25238W        W40707   3.123   9.198   1.518  0.1455 -0.1448 -0.1655
25239W        W40708   4.697   9.568  14.432 -0.2055 -0.0066 -0.0859
25240W        W40709  13.916   3.860  11.545 -0.1339  0.0383  0.0805
25241W        W40710   6.895  16.956   0.502  0.3245  0.0421 -0.1270
25242W        W40711   0.955   7.713   9.911  0.0876 -0.1090  0.1274
25243W        W40712  15.133  13.828  10.821 -0.1270  0.1789  0.1656
25244W        W40713  17.477   7.942  10.666 -0.2904  0.0975  0.0959
25245W        W40714  15.395   9.878   5.715 -0.2476 -0.1128 -0.0945
25246W        W40715  16.302  15.505   2.474  0.0464  0.3335  0.0607
25247W        W40716   7.009  14.971   5.594  0.0847  0.0726  0.0983
25248W        W40717   3.457   3.603   4.635 -0.1361 -0.2642 -0.0815
25249W        W40718  14.177   4.565  13.030  0.4454  0.0657  0.1719
25250W        W40719  15.783  10.275   1.205  0.2340 -0.0824  0.0433
25251W        W40720  10.460   5.927   2.127 -0.2452  0.1411 -0.4335
25252W        W40721  13.491  11.071   5.423 -0.1609  0.0856 -0.1437
25253W        W40722  13.334  11.053   2.204 -0.0865  0.0444  0.2665
25254W        W40723   8.205  12.850   4.580 -0.1289  0.2894  0.2452
25255W        W40724   2.569   1.040   4.931 -0.0732  0.0212  0.0875
25256W        W40725   7.176   9.199  13.213  0.2239 -0.0166 -0.0028
25257W        W40726   9.267   5.446   0.687  0.0549 -0.1029 -0.2090
25258W        W40727   5.085   9.271   9.413 -0.3455  0.1147 -0.2562
25259W        W40728   8.318  11.142  15.235 -0.1232  0.2268 -0.1411
25260W        W40729   7.615  18.674  12.584  0.3728 -0.3280  0.2192
25261W        W40730  11.988   4.322   3.593 -0.0352 -0.0285 -0.0452
25262W        W40731  18.068  10.602   0.588  0.1201  0.0941  0.1242
25263W        W40732  14.709  15.393   5.499  0.1155 -0.1891  0.0510
25264W        W40733  18.575  16.193   4.022  0.0952  0.0325 -0.4048
25265W        W40734  16.231  16.061   4.330  0.1370  0.1012  0.0927
25266W        W40735   0.448  10.642   9.892  0.0225 -0.0616 -0.1301
25267W        W40736   0.703   1.917   1.206 -0.2346  0.0499 -0.2988
25268W        W40737   7.259  11.917  14.494  0.0610  0.0183  0.0102
25269W        W40738   7.220  16.148   4.185 -0.0277 -0.5143  0.2982
25270W        W40739  15.996   8.012  11.276 -0.1287  0.3464 -0.1642
25271W        W40740  14.435   0.729   2.913  0.1252  0.0077 -0.3110
25272W        W40741   5.695  12.634   4.355 -0.0835 -0.1116  0.1189
25273W        W40742  14.535  13.648   1.227 -0.2763 -0.2440 -0.1062
25274W        W40743   8.323   6.768  14.992  0.1488 -0.1652  0.1394
25275W        W40744   7.610  11.582  14.387 -0.0767 -0.0979 -0.1270
25276W        W40745  11.363  12.324  12.550 -0.2644 -0.3948 -0.1928
25277W        W40746  18.223   7.543   0.821  0.2511  0.5581  0.1693
25278W        W40747  13.818   6.115   5.097  0.3060  0.3105  0.0295
25279W        W40748   2.870   8.423   0.043  0.0955 -0.0525  0.2366
25280W        W40749  12.200  17.122  14.566  0.0403 -0.0943 -0.0003
25281W        W40750  12.772  18.779   9.890 -0.1034 -0.0657  0.4869
25282W        W40751   1.741  16.369   4.873 -0.0916  0.1495 -0.3148
25283W        W40752  17.142   3.267   3.957 -0.3129  0.4804 -0.0755
25284W        W40753   7.778   1.483  13.842  0.4777  0.0368  0.2109
25285W        W40754  13.723  12.096   4.401 -0.0144 -0.0179 -0.2191
25286W        W40755   2.738  11.057   4.508 -0.2599 -0.3859 -0.1272
25287W        W40756   3.058  15.843   6.360  0.0251 -0.1098 -0.1174
25288W        W40757   1.315   0.673   4.203 -0.0052  0.0618 -0.1327
25289W        W40758   1.318   5.569   3.046  0.4292 -0.2916 -0.0114
25290W        W40759   2.499   7.845   3.944  0.0036 -0.0478 -0.3741
25291W        W40760  16.481   3.741   6.249  0.1107  0.1765 -0.3675
25292W        W40761  15.445  13.017   1.933  0.1977 -0.3933  0.3625
25293W        W40762  11.469   0.618  13.408  0.2323 -0.1906  0.0159
25294W        W40763   5.161   1.883  11.986  0.2060 -0.1913 -0.2926
25295W        W40764  17.777  13.933   0.797  0.2713 -0.0218  0.4419
25296W        W40765   2.937   0.397  12.885  0.1535  0.0228 -0.0225
25297W        W40766  11.671   8.051   1.023  0.1464 -0.0824  0.1260
25298W        W40767  15.950  11.000  10.800  0.0400 -0.0807 -0.3715
25299W        W40768  17.237  17.597   2.574 -0.0422 -0.0893  0.1119
25300W        W40769   3.990  11.741  13.209 -0.0077  0.1611  0.2182
25301W        W40770   8.044   3.360  10.846  0.1805  0.3402 -0.0511
25302W        W40771  12.321  17.602  14.380  0.0102  0.3413  0.1215
25303W        W40772   9.887   9.584  14.382 -0.0473 -0.1305  0.0902
25304W        W40773   2.164   9.180  12.984  0.0543 -0.2119 -0.1734
25305W        W40774  12.682   3.505  11.074  0.0462  0.2745 -0.1555
25306W        W40775   6.394   4.627   3.428 -0.2996 -0.3447  0.0962
25307W        W40776  17.535   6.441   3.746  0.0545  0.0979 -0.2059
25308W        W40777   7.802   6.275   2.741 -0.3224 -0.0748  0.2565
25309W        W40778   8.401   0.751  11.746  0.0244  0.0449  0.0221
25310W        W40779   3.748  16.372  13.197  0.1049 -0.4569 -0.1580
25311W        W40780  11.396   6.176  12.691 -0.1511 -0.2006  0.2257
25312W        W40781  15.589  13.057  15.631 -0.1867 -0.0213 -0.0290
25313W        W40782   9.700  14.285   2.508 -0.2271  0.0502 -0.1486
25314W        W40783  15.222  15.787  11.745 -0.1116 -0.2229 -0.1679
25315W        W40784   4.967   5.064   3.861 -0.1420 -0.0508 -0.0074
25316W        W40785   0.076   6.965  13.268 -0.0541 -0.0885  0.1925
25317W        W40786   2.084  12.824   5.999  0.3316 -0.4782  0.3310
25318W        W40787  15.763  10.704   1.461  0.0017 -0.1600 -0.1311
25319W        W40788  15.793   8.885   1.968  0.1057  0.1531 -0.1566
25320W        W40789  16.755   9.926   5.006  0.2755  0.3281 -0.3356
25321W        W40790  11.182   2.554   0.380 -0.1068 -0.0833 -0.3108
25322W        W40791   2.858  10.284   0.370 -0.0010 -0.1265  0.3042
25323W        W40792   2.275   5.181  11.797 -0.2871 -0.2713  0.0025
25324W        W40793  17.344  12.363  14.811 -0.2672 -0.0398  0.1726
25325W        W40794  15.745   6.926  12.681 -0.0839 -0.1326  0.2387
25326W        W40795  11.124   4.843   4.526 -0.2373 -0.1953  0.2307
25327W        W40796   9.043  15.050  15.296 -0.1591  0.1400 -0.0119
25328W        W40797  16.151  15.805   5.758 -0.1949 -0.1278 -0.3317
25329W        W40798  18.412  17.578   3.985 -0.0733 -0.1275 -0.2404
25330W        W40799   2.474   2.940   4.107  0.2977  0.1575 -0.1399
25331W        W40800   0.800  14.224   3.880 -0.0281  0.0227 -0.3653
25332W        W40801   7.549  12.342  10.030  0.1715 -0.0285 -0.2352
25333W        W40802   4.311   1.143  11.280  0.0107  0.3827 -0.1497
25334W        W40803  10.627   5.432   4.334 -0.1059 -0.0679 -0.0774
25335W        W40804  17.317   1.164   4.670 -0.0600  0.2464 -0.0445
25336W        W40805  14.051   0.718  13.098  0.0360  0.0014  0.0878
25337W        W40806  18.279   3.856  13.913  0.3781 -0.0940  0.0329
25338W        W40807  16.041   6.738   4.481  0.0701  0.0702 -0.1439
25339W        W40808   5.873   6.050   2.278  0.1404  0.0870 -0.1775
25340W        W40809   5.972  11.204  13.634  0.0244  0.2516  0.1416
25341W        W40810  13.594  17.953   0.593  0.1246  0.0556  0.0327
25342W        W40811   1.093   8.038  14.232 -0.2737 -0.2267 -0.3124
25343W        W40812  12.900  16.026  15.049 -0.1844  0.4012  0.2540
25344W        W40813   5.444   4.918  15.191 -0.1424 -0.0383  0.0796
25345W        W40814   5.877  13.394   4.227 -0.0383 -0.0997 -0.0345
25346W        W40815  12.374  16.676   2.383  0.2175  0.0878  0.3166
25347W        W40816   3.435  14.202  11.962 -0.0673 -0.1218  0.1360
25348W        W40817   0.671  17.485   5.335 -0.0348  0.1227  0.2575
25349W        W40818  10.597  13.357   2.281  0.0236 -0.2042 -0.1183
25350W        W40819   8.446   1.912  12.079  0.4431 -0.0232  0.2943
25351W        W40820   8.046   3.729   3.403  0.0741 -0.1514  0.2714
25352W        W40821   6.063   7.203   3.862  0.0928 -0.1812  0.0629
25353W        W40822   2.575   1.290   2.267  0.2129 -0.2066 -0.0481
25354W        W40823  10.377   6.159   4.667  0.3020  0.2804 -0.1057
25355W        W40824  13.866   9.561   3.133 -0.1550  0.0205  0.1243
25356W        W40825  14.985  15.277  11.898  0.0946  0.1195 -0.0581
25357W        W40826   1.799  17.685   4.766 -0.0083 -0.0827  0.1320
25358W        W40827   5.564   3.474   0.783 -0.1471  0.2156  0.1688
25359W        W40828  12.299  18.463  12.012  0.2096 -0.1936  0.0307
25360W        W40829  13.284   1.125   5.192 -0.4082 -0.0396 -0.0855
25361W        W40830  13.441   0.802  12.006 -0.1603  0.1283  0.0269
25362W        W40831   2.676  13.408  13.577 -0.0776  0.0927 -0.1834
25363W        W40832  10.015   9.474  13.070 -0.0707  0.3510  0.0444
25364W        W40833   4.333  12.935   0.143 -0.3731  0.1309 -0.1432
25365W        W40834  16.616   8.820  12.228 -0.0785  0.1479 -0.2367
25366W        W40835  12.618   1.288  10.543  0.1300 -0.3286  0.2420
25367W        W40836   7.590   0.858   9.539 -0.0225  0.0056 -0.4055
25368W        W40837  16.169   2.482  11.412  0.3345  0.0668 -0.1500
25369W        W40838   8.127  14.998  14.843 -0.1491  0.4135 -0.1740
25370W        W40839   0.738  18.545   9.729 -0.0227 -0.3606  0.1309
25371W        W40840   2.484   9.835   4.022  0.0746 -0.3265  0.0352
25372W        W40841   5.308   6.079   1.919  0.1046  0.2117  0.0374
25373W        W40842  15.619  16.607  14.407 -0.0414  0.2782 -0.1732
25374W        W40843  10.170   0.489   3.319  0.1490  0.1322 -0.0016
25375W        W40844  16.585  16.095   3.786 -0.0080  0.0895  0.0259
25376W        W40845   4.667  12.795  13.737  0.0722  0.0723 -0.0578
25377W        W40846   4.982  10.288   0.856  0.0004 -0.1782  0.1252
25378W        W40847  15.693  16.225   4.809  0.0906  0.1638 -0.5130
25379W        W40848   0.226   6.345   4.897 -0.1429 -0.0166  0.0296
25380W        W40849  13.084  11.793   5.543  0.0719  0.2993  0.1396
25381W        W40850  11.503  11.874   5.469 -0.2071  0.2103 -0.1366
25382W        W40851  16.658  13.303  15.570  0.2175  0.0776 -0.3409
25383W        W40852   6.339   4.593   9.996 -0.1198 -0.2078 -0.2231
25384W        W40853  13.208   6.932   4.807 -0.3778  0.3180  0.0512
25385W        W40854  11.648  16.318  14.675  0.1712  0.0308 -0.0985
25386W        W40855   9.239  12.191  11.840 -0.2995 -0.0564 -0.0808
25387W        W40856  11.095  13.446   2.490 -0.0351  0.0104 -0.0728
25388W        W40857  12.267   1.372   4.696 -0.0452 -0.0220 -0.0229
25389W        W40858   3.000  17.800   4.511  0.3190  0.0725  0.4530
25390W        W40859   9.475  14.394  15.514 -0.1089  0.2244 -0.0148
25391W        W40860   1.830   9.890   0.125  0.1981 -0.0374  0.1037
25392W        W40861   4.677   5.952  12.707 -0.0617 -0.1612  0.0012
25393W        W40862   4.665   9.476  10.845  0.4007  0.1418 -0.1263
25394W        W40863   1.567   8.200   2.551 -0.1801 -0.1051 -0.2328
25395W        W40864   1.737   8.325  10.432  0.0225  0.0667 -0.0548
25396W        W40865   0.028   5.093   0.438  0.0915 -0.1736 -0.2469
25397W        W40866   7.798  10.028   0.177 -0.2839  0.6431  0.1053
25398W        W40867  14.251   7.659   1.932  0.1049 -0.2451  0.1048
25399W        W40868   5.739  15.196  14.031  0.1796  0.1279 -0.3320
25400W        W40869   0.318   3.379   4.731 -0.2702  0.2358  0.1316
25401W        W40870   2.520  15.646  14.175 -0.1289  0.1561  0.3168
25402W        W40871  18.162  13.205  13.781 -0.1954 -0.0382  0.0374
25403W        W40872  13.944  15.524  11.241  0.3294 -0.0154 -0.1227
25404W        W40873   8.851  10.674   4.608  0.0868  0.0425 -0.0081
25405W        W40874  16.395   3.287  11.842  0.3450 -0.0489  0.0165
25406W        W40875  14.494  15.209  15.130 -0.0326 -0.3793  0.0588
25407W        W40876   3.609   7.481   2.743  0.1941  0.2166 -0.2644
25408W        W40877   2.803   7.764   0.738  0.1741 -0.3789 -0.0606
25409W        W40878   3.758   4.508   1.493  0.1193 -0.1035 -0.1352
25410W        W40879  10.822  14.496   3.918  0.5048 -0.0323  0.1509
25411W        W40880   3.536   7.390   0.668 -0.0880 -0.2403 -0.1952
25412W        W40881   0.902  12.135   2.478 -0.0086  0.0499  0.2388
25413W        W40882   9.237   1.032  10.364 -0.0227 -0.1933 -0.4751
25414W        W40883   9.780  11.404   4.305  0.0013  0.4008 -0.1302
25415W        W40884   9.546  13.996  14.527 -0.0402  0.1361  0.1590
25416W        W40885   5.519   7.674   0.797 -0.1142  0.3838  0.3073
25417W        W40886  13.106  11.224   1.309  0.1684 -0.0899  0.0011
25418W        W40887   2.889   3.039  15.321 -0.2497 -0.1453 -0.0134
25419W        W40888  10.990   3.196   0.791 -0.2866 -0.0896 -0.3104
25420W        W40889  13.066   2.523  12.458 -0.1302  0.4384 -0.1356
25421W        W40890  11.847   3.082   2.350  0.0453  0.0903  0.1402
25422W        W40891   2.342   1.570  11.410  0.1622 -0.0227  0.1074
25423W        W40892  15.274  10.412  15.505 -0.1782 -0.0310  0.0032
25424W        W40893  17.829   1.081   3.949 -0.3303 -0.0349  0.1867
25425W        W40894   8.599   7.278  13.227 -0.1432  0.1296  0.0485
25426W        W40895   3.548   3.037   4.710  0.0479  0.0422  0.0477
25427W        W40896  13.675   6.569  11.874 -0.0115  0.2762  0.0674
25428W        W40897   8.840  15.291   0.111 -0.0559  0.4911  0.0438
25429W        W40898  15.155  14.893  11.279  0.0667 -0.1111 -0.1147
25430W        W40899   1.946  18.642  13.659 -0.0576 -0.3182 -0.1499
25431W        W40900  17.372  16.010  10.387 -0.0916 -0.0435 -0.5367
25432W        W40901   2.638   4.586  14.431 -0.0487  0.2918 -0.0742
25433W        W40902  14.397  16.342   0.237  0.2582  0.2588  0.2004
25434W        W40903  13.041   6.881   0.184  0.2295  0.4840  0.0886
25435W        W40904   8.088  16.929  12.472  0.3898 -0.2001  0.3840
25436W        W40905   7.689   5.689  15.233 -0.0230  0.0675  0.0550
25437W        W40906   6.617   5.857  13.668 -0.0537 -0.3790 -0.0247
25438W        W40907  14.602   5.056   5.004 -0.3064  0.2378  0.3919
25439W        W40908   0.796   3.641  15.281 -0.0838  0.1027 -0.1145
25440W        W40909  14.396  12.762  13.151 -0.2617  0.4514 -0.1670
25441W        W40910  13.291   6.652   1.353 -0.0061 -0.0181  0.1466
25442W        W40911   0.107   4.127  11.100 -0.0489  0.1465 -0.0922
25443W        W40912   8.998  16.361   3.899 -0.3242  0.1123  0.0710
25444W        W40913   5.018   0.658  12.014 -0.0092 -0.0638 -0.0207
25445W        W40914  14.575  16.122  10.494  0.2711 -0.1895 -0.0994
25446W        W40915   5.425  18.482   2.220 -0.1725  0.2104 -0.2023
25447W        W40916  11.796   8.410   3.200  0.2018 -0.3705  0.2616
25448W        W40917  13.060   4.159  11.557  0.0313  0.1638  0.3073
25449W        W40918  11.287  16.092  14.986  0.0954  0.3116 -0.1265
25450W        W40919   2.361   4.657  10.480  0.2151  0.1964  0.0744
25451W        W40920  11.773   1.354   1.102 -0.2165  0.1875  0.0117
25452W        W40921   9.728  16.263  11.848  0.1659 -0.2898  0.1115
25453W        W40922  10.337   9.176  14.101  0.1271 -0.0827  0.1226
25454W        W40923   8.526  18.021  11.825 -0.1240 -0.0662 -0.0952
25455W        W40924   4.473  12.957   1.074 -0.2896 -0.3577  0.0717
25456W        W40925   6.683   6.375  15.672 -0.0267  0.0786 -0.0169
25457W        W40926   7.781  11.876  13.990  0.0138 -0.0872  0.2232
25458W        W40927  12.215  11.642  11.500  0.1779 -0.5476  0.3271
25459W        W40928  13.778   5.732   4.404  0.1104 -0.1611  0.2109
25460W        W40929  15.305  12.810   4.582 -0.1697  0.2896 -0.0858
25461W        W40930  17.329  12.515   0.404 -0.1345  0.0695  0.1063
25462W        W40931   9.806   3.874   4.044  0.2071 -0.1839  0.1013
25463W        W40932   8.090   5.031  15.578  0.0155 -0.6267  0.2293
25464W        W40933   3.182   5.229  14.434  0.2227  0.3025 -0.0681
25465W        W40934  11.242   3.921  14.489 -0.4589 -0.0490  0.0517
25466W        W40935  17.860   2.997  14.944 -0.2751 -0.3853 -0.2729
25467W        W40936   1.897  15.854  13.157  0.2417 -0.2746  0.2611
25468W        W40937  11.104  10.171  14.987 -0.2436 -0.1475  0.0192
25469W        W40938  16.044  10.228  14.158 -0.0510 -0.1238 -0.0073
25470W        W40939   9.724   1.301   1.781  0.0056  0.0623 -0.1100
25471W        W40940   0.927  12.308  13.956 -0.0784 -0.2108  0.2245
25472W        W40941   0.462  13.716  14.995 -0.3469 -0.0949  0.0816
25473W        W40942   7.211   8.527  10.832 -0.0565  0.0631 -0.1822
25474W        W40943  12.020  16.785  11.671 -0.1535 -0.1047  0.0629
25475W        W40944   4.846  15.156  14.743 -0.1460  0.1032  0.0603
25476W        W40945   6.421   2.518  11.609 -0.2226 -0.3530  0.0253
25477W        W40946  16.395   5.388   4.253 -0.2110  0.2975 -0.0271
25478W        W40947   9.721   4.737  13.762  0.0616  0.0003  0.2429
25479W        W40948  14.022  14.116  11.731  0.0313  0.1228  0.2289
25480W        W40949  16.748  11.520  13.316  0.2796 -0.0100 -0.0081
25481W        W40950   8.669   9.639  13.409  0.1237  0.3809  0.0898
25482W        W40951   7.017   9.101  14.334 -0.0083 -0.2361  0.3861
25483W        W40952   7.187   4.940  11.474 -0.0510 -0.1008  0.0179
25484W        W40953  14.096   5.568   5.193 -0.0574 -0.3537  0.1035
25485W        W40954  16.426  10.612   5.741  0.1398 -0.0689  0.0439
25486W        W40955   0.082  12.552   1.897  0.0370  0.0831  0.2554
25487W        W40956   1.555   9.560  15.357  0.0054  0.0744 -0.1593
25488W        W40957  18.444  10.285   2.488  0.2149 -0.0339  0.0269
25489W        W40958  10.238  11.030  11.440 -0.1041  0.2776 -0.0822
25490W        W40959   0.074  10.643   5.506  0.1702 -0.0578 -0.1673
25491W        W40960   2.724  18.695  13.028  0.3121 -0.1310  0.1338
25492W        W40961   1.152   3.897   1.277  0.0798  0.1402 -0.2311
25493W        W40962   7.550   5.808   2.804  0.2073  0.0672 -0.0129
25494W        W40963  17.652   1.546   1.123  0.1731  0.2549 -0.2114
25495W        W40964  14.358   7.867  13.766  0.2225  0.1824 -0.0718
25496W        W40965  12.009  16.066   0.485  0.1124 -0.3428 -0.1621
25497W        W40966   7.910   8.791  13.116 -0.2922  0.0580 -0.1734
25498W        W40967  14.318  12.069   0.419  0.1158  0.0778 -0.2029
25499W        W40968   4.500   9.469   0.038  0.1010 -0.2184 -0.1110
25500W        W40969  11.842   5.575   9.428  0.0334  0.0428  0.1746
25501W        W40970  14.744  10.744   3.315 -0.1068  0.0388 -0.0683
25502W        W40971  14.331   0.482  13.600  0.0025  0.1284 -0.0465
25503W        W40972   0.138  10.098   0.666 -0.1025 -0.1387  0.0983
25504W        W40973  14.982  12.667  13.865  0.2280  0.0571 -0.2219
25505W        W40974   9.450   4.359   4.064  0.1451  0.1965 -0.0915
25506W        W40975  11.613   4.373   4.810 -0.0296  0.1667 -0.1117
25507W        W40976   1.750   1.565  15.179  0.0786 -0.3246 -0.0526
25508W        W40977  13.512  11.934   2.672  0.1275 -0.0858 -0.0278
25509W        W40978  14.835   2.918   1.235  0.0969  0.0718 -0.3043
25510W        W40979  14.053  17.950   3.361  0.3231 -0.2427  0.1021
25511W        W40980  17.835  12.191   1.014  0.0422  0.1422  0.0973
25512W        W40981  14.967   4.271   3.178  0.3500 -0.1674 -0.1768
25513W        W40982   7.869   8.804  14.903  0.1896 -0.0570 -0.1245
25514W        W40983  16.288   5.023  15.080 -0.1624  0.0010  0.0384
25515W        W40984  13.033  14.937   4.972  0.0207 -0.3742  0.1348
25516W        W40985  17.730  14.116  13.616 -0.0010 -0.1441  0.0804
25517W        W40986  17.280   6.548   0.907  0.3060  0.0465 -0.0048
25518W        W40987   3.791  18.687   5.239 -0.3679 -0.2021 -0.1526
25519W        W40988   1.861  17.349  13.449  0.4285 -0.1362  0.0980
25520W        W40989  16.255  13.115   5.398  0.0401  0.0619 -0.0527
25521W        W40990  14.438   6.688   0.299 -0.0213 -0.2449  0.3110
25522W        W40991   6.206  15.957  14.603 -0.3561 -0.1388 -0.0857
25523W        W40992   9.875   5.159   1.980  0.0072 -0.2541 -0.4340
25524W        W40993   5.116  14.752  14.358 -0.0856  0.2802  0.0106
25525W        W40994  18.308   3.574   0.095  0.1048  0.3617  0.4401
25526W        W40995   5.803  18.702   4.088  0.0676 -0.1704  0.1966
25527W        W40996   0.645   2.120  11.824 -0.3505  0.1534  0.2234
25528W        W40997   1.253   8.831  15.533  0.1717  0.4108 -0.3804
25529W        W40998   3.607   1.471  15.485 -0.2580  0.2075 -0.0162
25530W        W40999   6.233   2.052   2.997  0.1307 -0.2779 -0.1036
25531W        W41000   6.524  18.120   5.305  0.1183  0.1276  0.0931
25532W        W41001  14.968  14.958   0.162 -0.2135  0.2172 -0.0885
25533W        W41002  12.155  14.977   0.561  0.3304 -0.0555  0.3779
25534W        W41003   2.526  15.769   5.472 -0.1954 -0.0477 -0.4025
25535W        W41004  15.406  12.589   4.998  0.0508 -0.1598 -0.2108
25536W        W41005  11.076  13.484   3.769 -0.0033 -0.1514 -0.2190
25537W        W41006  17.728   9.422  15.428 -0.1965 -0.1439  0.0871
25538W        W41007   9.199  11.345  15.375  0.1986  0.0526 -0.2377
25539W        W41008  15.645  10.532  11.013 -0.0627 -0.0748  0.0419
25540W        W41009  14.473   2.854   3.853 -0.1753 -0.3178 -0.1033
25541W        W41010  11.584   2.208   1.966  0.1500 -0.1424 -0.4224
25542W        W41011   8.171  12.540  10.832 -0.2923 -0.2242 -0.1877
25543W        W41012   8.352  10.738   0.108  0.2066  0.4140  0.0941
25544W        W41013  13.314   7.662   3.058 -0.0556 -0.2425  0.2413
25545W        W41014  11.887  16.396  11.971 -0.1618 -0.0526  0.0520
25546W        W41015  11.966   4.713  12.788  0.1489  0.1486  0.2220
25547W        W41016   6.588   0.804  11.176  0.1615  0.0157  0.0479
25548W        W41017   5.822   1.210  11.150 -0.1906 -0.2870 -0.3545
25549W        W41018  11.496  18.045  11.499  0.1393 -0.0579  0.0725
25550W        W41019   6.952   5.200  12.295 -0.1467  0.0862  0.0806
25551W        W41020  12.232   6.814   3.105 -0.0665  0.1700 -0.1046
25552W        W41021   5.785  10.905  15.503  0.2995 -0.1074  0.2190
25553W        W41022   4.053   8.749   1.816 -0.1015 -0.0515 -0.0573
25554W        W41023   7.529   3.504   4.334  0.0884 -0.1724  0.0290
25555W        W41024   3.417   7.746  14.707 -0.1156  0.1449 -0.0633
25556W        W41025  12.832   8.918   3.809  0.1409 -0.2870 -0.0466
25557W        W41026   0.140  11.311  11.719 -0.3876  0.0003 -0.1006
25558W        W41027   6.701   6.723  11.056  0.1807 -0.3117 -0.0819
25559W        W41028  11.756   4.291  11.499  0.1551 -0.1811 -0.0165
25560W        W41029   2.321   8.592   0.178  0.2574 -0.0188  0.0591
25561W        W41030  10.728   0.222   5.153  0.1237  0.2938  0.0236
25562W        W41031   4.100  15.328   0.459 -0.0625  0.0989 -0.0162
25563W        W41032  11.635  17.218   1.951 -0.1727  0.2914  0.2489
25564W        W41033   4.325  17.651  10.592 -0.0039 -0.0171 -0.2501
25565W        W41034  12.710   0.511   4.502  0.2039  0.1961  0.2496
25566W        W41035   0.201   0.163   3.748 -0.0331 -0.0523  0.1870
25567W        W41036   9.271   0.545  10.140  0.2488 -0.0607 -0.1758
25568W        W41037   5.695   2.168  10.997 -0.1939 -0.1308  0.1448
25569W        W41038  12.183  14.140   2.608 -0.0553  0.2241  0.0066
25570W        W41039   9.995   3.946  15.473  0.2461 -0.0101 -0.2566
25571W        W41040   4.349  15.204  11.612 -0.1113 -0.0424 -0.2193
25572W        W41041   2.411  15.933  12.880  0.0894  0.1759  0.0392
25573W        W41042   3.461   2.828  13.912 -0.3060  0.0045 -0.3754
25574W        W41043  12.890   6.930  12.481 -0.1054  0.0163 -0.0941
25575W        W41044  10.489   7.846   2.043 -0.1961 -0.3679  0.0874
25576W        W41045  11.785  15.936  10.125  0.1471 -0.1007  0.1172
25577W        W41046  14.115   2.542  10.876 -0.1187  0.2073  0.0451
25578W        W41047  14.065  12.692  11.259 -0.1122  0.0090 -0.0341
25579W        W41048   1.884  12.247   0.140 -0.0133 -0.0925 -0.1780
25580W        W41049  14.372  16.284   2.448  0.3691  0.2052 -0.1812
25581W        W41050   3.475  15.614   0.332 -0.0233  0.2127 -0.0915
25582W        W41051   0.514   8.298  12.585  0.0339 -0.0516 -0.2393
25583W        W41052   8.000   6.690   2.919  0.1121  0.0206  0.0788
25584W        W41053  17.339   4.647  12.430  0.1393 -0.0785 -0.2086
25585W        W41054  10.559   2.936   0.689 -0.0016  0.1243  0.0903
25586W        W41055  14.311  13.300   3.014  0.1185 -0.0855 -0.0484
25587W        W41056  11.611   0.852  13.017 -0.0737 -0.0522 -0.0384
25588W        W41057  12.333  12.991   3.545  0.0575  0.1779 -0.0788
25589W        W41058   8.488  10.131  10.992 -0.0880  0.1990 -0.3833
25590W        W41059  15.671  13.876   0.367 -0.2271 -0.2312 -0.1351
25591W        W41060  18.410   9.416   4.861 -0.2444  0.0183 -0.2570
25592W        W41061   7.413  11.565   3.871  0.1106  0.0487 -0.0458
25593W        W41062   0.788   4.245  12.946 -0.0235  0.0222 -0.0950
25594W        W41063   0.975  10.320  15.434 -0.4920 -0.2155  0.2089
25595W        W41064   5.783   3.920   4.912  0.0591  0.0165  0.1847
25596W        W41065   0.112  15.342  11.267  0.1119 -0.0773 -0.0512
25597W        W41066  16.956  10.528   5.427  0.0153  0.2526 -0.0248
25598W        W41067  12.607   1.610  11.474 -0.2033  0.1587 -0.0932
25599W        W41068   8.392  18.237   1.067 -0.2405 -0.0901 -0.1428
25600W        W41069   1.316   1.295  13.565  0.0143 -0.0688  0.0392
25601W        W41070  12.283  15.130   2.908  0.2355 -0.0143 -0.2667
25602W        W41071  10.453  14.655   0.542 -0.2237 -0.1625 -0.0268
25603W        W41072   7.762  10.034   2.610 -0.0628 -0.0534 -0.2761
25604W        W41073  11.915   8.017   0.516 -0.0909 -0.3604  0.0236
25605W        W41074   3.161  18.697  14.828 -0.1131  0.2045  0.1699
25606W        W41075   8.116   2.924  10.042  0.0440  0.2397  0.1431
25607W        W41076   0.586   1.895   0.422 -0.2908  0.1713  0.1595
25608W        W41077  10.583   8.410  11.428  0.1756  0.3680 -0.1405
25609W        W41078  14.833  14.343   3.334  0.0625 -0.0469 -0.0289
25610W        W41079  18.740   2.025   3.401 -0.0589 -0.0505  0.0357
25611W        W41080   7.978  18.407  11.116  0.0793 -0.0866 -0.5163
25612W        W41081  16.035  11.446   4.015  0.0355  0.0810  0.0498
25613W        W41082  16.480  13.020  12.187  0.0449  0.1698 -0.1177
25614W        W41083   5.369   7.246   3.964  0.1051  0.3713 -0.1510
25615W        W41084  18.219  16.105  15.460  0.2506  0.1131  0.0472
25616W        W41085  16.575   3.587  13.615  0.0069  0.0444  0.1107
25617W        W41086   9.120  18.261   2.898  0.0030  0.0740 -0.1445
25618W        W41087   2.113  15.323  14.487 -0.3092 -0.0941 -0.1093
25619W        W41088   2.266  10.284   3.355  0.0143 -0.1255 -0.0466
25620W        W41089  13.705  15.426   0.114  0.0983 -0.0460 -0.2323
25621W        W41090  12.470  12.203  13.459 -0.1512 -0.2056 -0.1534
25622W        W41091  15.381   4.201   2.351 -0.0430 -0.2076  0.0524
25623W        W41092   7.651  11.609   0.337 -0.2939 -0.1171 -0.0891
25624W        W41093   3.607  17.544  13.935  0.2572  0.0343  0.2701
25625W        W41094  11.116   2.779  13.179  0.1547 -0.2072 -0.0480
25626W        W41095  15.871   4.269   2.359  0.3552 -0.0163  0.1712
25627W        W41096   4.180  17.683   4.911 -0.3060  0.0280 -0.1827
25628W        W41097   7.074   6.462  11.679  0.0070  0.4255  0.1145
25629W        W41098  18.495   6.946   0.998  0.0681 -0.1924 -0.0623
25630W        W41099  15.782  11.972   1.175  0.2414 -0.0551  0.1259
25631W        W41100  11.649  10.155  12.242  0.0024  0.1147  0.3756
25632W        W41101   5.148  13.436   0.905  0.0622 -0.0484 -0.1684
25633W        W41102  17.045  17.632  12.151 -0.1334 -0.1181 -0.4961
25634W        W41103  14.979   1.723   3.135 -0.0192  0.1359 -0.1206
25635W        W41104  13.025  13.522  12.842 -0.0402 -0.0488  0.1484
25636W        W41105   9.628   1.855   0.028 -0.0757  0.0444  0.0063
25637W        W41106   5.138   2.565   0.817 -0.0535  0.0943 -0.1590
25638W        W41107   4.901  17.352  15.501 -0.1399 -0.1224  0.0152
25639W        W41108   8.555   7.877   3.998 -0.0089  0.0314 -0.1622
25640W        W41109  13.938  15.658  12.189  0.0862  0.0664  0.2775
25641W        W41110  17.295   2.526  10.950 -0.0456  0.1193  0.0065
25642W        W41111  15.006  12.403   5.367  0.2004  0.0065  0.1681
25643W        W41112   3.336   7.576  14.242 -0.0481  0.0164 -0.1008
25644W        W41113  15.116   9.564  15.059 -0.1667 -0.1634  0.0810
25645W        W41114   6.873   7.053   0.206  0.0850 -0.3711 -0.3462
25646W        W41115   9.098   3.382  15.525 -0.0020 -0.3482  0.5007
25647W        W41116   5.206  15.296  14.418  0.2444 -0.1661  0.0104
25648W        W41117   3.173  13.799   2.096 -0.0632 -0.0604  0.0206
25649W        W41118   9.739   5.846   1.639 -0.1007  0.3636  0.0034
25650W        W41119   3.870   3.528   2.242 -0.1501  0.0710 -0.0518
25651W        W41120   4.650  14.273   2.674 -0.2366 -0.0300  0.1890
25652W        W41121   3.631  15.547  11.096 -0.1313  0.2294  0.2022
25653W        W41122   1.207   7.483   0.602 -0.1455 -0.1697  0.4002
25654W        W41123  15.578   1.425   1.835  0.1984  0.2526 -0.2021
25655W        W41124  11.429   2.593  14.153 -0.6098 -0.0182  0.0379
25656W        W41125  11.592   4.801   4.566  0.1704 -0.1708  0.5726
25657W        W41126   9.347  10.122  13.718  0.2650 -0.0785 -0.1274
25658W        W41127  14.181  17.595   2.041 -0.0250 -0.0373 -0.2251
25659W        W41128   0.971  11.627   2.749 -0.0776 -0.1373 -0.1971
25660W        W41129  12.319   3.710   3.003  0.1188  0.0722  0.0697
25661W        W41130   8.584  14.772  15.346 -0.1762  0.0127  0.1241
25662W        W41131  18.438   7.963   4.038 -0.0128  0.1774  0.0237
25663W        W41132  13.288   1.925  13.185 -0.0316  0.0709 -0.0146
25664W        W41133   3.908  17.556  12.466 -0.3334  0.0939 -0.1718
25665W        W41134  11.114   6.873   0.363  0.2515  0.3025 -0.1055
25666W        W41135   4.709   4.170   4.187 -0.1034  0.0239 -0.0682
25667W        W41136  15.489   0.655   3.559  0.2951 -0.0619 -0.0675
25668W        W41137   0.876   2.166   0.797 -0.2509  0.5792  0.2341
25669W        W41138   2.165  14.231   5.511  0.2886  0.1335  0.1052
25670W        W41139  17.688  15.805  11.312 -0.0512  0.0630  0.0863
25671W        W41140   3.026   3.367  12.708 -0.1658 -0.0556 -0.2984
25672W        W41141   4.527  11.852   5.432  0.1139 -0.2663  0.0084
25673W        W41142  10.842   3.526  11.119  0.1167 -0.1059  0.0017
25674W        W41143   5.175   4.279   1.231  0.0267  0.0070  0.0607
25675W        W41144  15.740  10.417   0.429  0.0399 -0.0130  0.2698
25676W        W41145   0.768  14.722  13.243 -0.1174 -0.0116  0.0948
25677W        W41146  13.099  15.824  11.405 -0.0483  0.4024 -0.0121
25678W        W41147  10.684  18.293   0.340  0.2905  0.1204 -0.2096
25679W        W41148  17.262  18.606   1.406 -0.3453 -0.0969  0.2786
25680W        W41149   8.891   9.068   3.082  0.1179 -0.2018 -0.3131
25681W        W41150   3.255   8.353  10.333  0.2423  0.0621 -0.1424
25682W        W41151   7.547  13.294   3.523  0.0173  0.1114  0.4832
25683W        W41152  15.358   4.271   0.183 -0.0008 -0.0173 -0.3165
25684W        W41153   7.648   9.531  15.621 -0.0863  0.0275  0.2276
25685W        W41154  13.810   8.860   5.160 -0.5332 -0.4429 -0.1145
25686W        W41155   6.487  10.108  15.577 -0.1544  0.0344  0.1634
25687W        W41156  16.698   8.420   3.442  0.5828  0.2212 -0.0015
25688W        W41157  15.727  18.262  11.382 -0.0187 -0.1122  0.1489
25689W        W41158   1.389  11.145  11.368  0.0905 -0.1384  0.1990
25690W        W41159   3.104   2.826   2.020 -0.2007  0.2130  0.3874
25691W        W41160   5.315  13.781  12.873  0.4174 -0.3775 -0.1606
25692W        W41161   4.312  14.902  14.451 -0.1964 -0.1271  0.0622
25693W        W41162  12.418   0.856   4.802 -0.0423 -0.0074 -0.0295
25694W        W41163   2.881   8.919   5.185 -0.1431 -0.4775 -0.1119
25695W        W41164  17.235  10.258   0.399  0.0483 -0.0105 -0.0628
25696W        W41165  15.591   0.138   0.244 -0.0251 -0.2030 -0.3237
25697W        W41166  18.626  13.841   0.138 -0.1271  0.0608  0.0526
25698W        W41167   3.794   7.649   1.750  0.0642  0.1308  0.0255
25699W        W41168  15.991   9.292  14.471 -0.1169 -0.1201  0.1450
25700W        W41169  13.040  14.914  14.587 -0.0143  0.1989  0.2247
25701W        W41170   8.346   5.545  12.585 -0.2182  0.0660  0.0667
25702W        W41171  17.307  14.406   2.035 -0.1740 -0.1279 -0.0837
25703W        W41172  12.972   1.048  12.110  0.2450 -0.1052 -0.2313
25704W        W41173   9.549  15.483   2.609 -0.3289  0.0561  0.1695
25705W        W41174  13.577  10.000  14.843 -0.2188 -0.2442 -0.2338
25706W        W41175  18.359  18.385   0.363 -0.0535 -0.0377  0.1177
25707W        W41176   9.548  17.808  13.282 -0.1218 -0.0729 -0.4554
25708W        W41177  14.773  17.848   2.837 -0.1182 -0.2161  0.0345
25709W        W41178   2.420  11.557  14.417 -0.0292  0.2144 -0.0088
25710W        W41179   0.950   6.148  14.946 -0.0846  0.0808 -0.1117
25711W        W41180  11.392   8.228  13.905 -0.0889 -0.0995 -0.1490
25712W        W41181  16.266   7.005  12.813  0.2129  0.1404  0.0240
25713W        W41182   1.731  15.070  11.070  0.3481  0.1966  0.0034
25714W        W41183   1.866  13.755   0.514 -0.0920  0.2846  0.4320
25715W        W41184   8.777   1.667  13.867 -0.2037 -0.2888 -0.1955
25716W        W41185  15.718  13.432  15.287  0.0098  0.0359 -0.2082
25717W        W41186  17.974  14.095  10.369 -0.2332  0.1101  0.3198
25718W        W41187   3.888   8.901   1.246 -0.0302 -0.0508  0.2206
25719W        W41188   3.520  18.740  14.428 -0.3823 -0.0171 -0.3543
25720W        W41189  13.831  13.159  14.470  0.0452  0.1692 -0.1947
25721W        W41190   2.772  16.795  15.508 -0.1165  0.1980 -0.3653
25722W        W41191  15.576   1.688  13.535  0.0731 -0.2996 -0.2640
25723W        W41192   4.452  13.740  14.094  0.0029 -0.4355  0.1128
25724W        W41193  16.998   1.280  12.588 -0.0721 -0.0174  0.2517
25725W        W41194   6.839  12.544  10.674 -0.2512  0.0833 -0.1163
25726W        W41195  12.509   6.225   3.653 -0.2533 -0.0789  0.0901
25727W        W41196  17.171   6.864  11.644 -0.0107  0.0093 -0.2746
25728W        W41197   5.421   6.612   3.157 -0.0042  0.2040 -0.1805
25729W        W41198   0.527  11.643  15.654 -0.2283 -0.0481  0.0434
25730W        W41199   1.386   3.320  12.009  0.0438 -0.0962  0.3015
25731W        W41200  17.086   8.790   5.617 -0.3365  0.2323 -0.0198
25732W        W41201  13.420  11.851  14.229 -0.1160  0.4066  0.1437
25733W        W41202   5.460  13.769  11.918  0.0579  0.3381  0.1079
25734W        W41203   4.322   1.414   6.213 -0.1346 -0.3048 -0.2309
25735W        W41204   3.411  10.908  11.341  0.0621 -0.1681  0.1394
25736W        W41205  11.316  14.378   3.985 -0.0187  0.4595 -0.1561
25737W        W41206   6.236  14.687   0.157  0.0552  0.4370 -0.0053
25738W        W41207  17.162  12.756   5.434 -0.0442 -0.1274  0.0463
25739W        W41208   8.082  17.527   2.719 -0.1396  0.2058 -0.2810
25740W        W41209  10.226   1.946  11.713 -0.3077  0.1974 -0.1153
25741W        W41210  12.967   3.254   0.075  0.0670  0.0538 -0.0482
25742W        W41211  15.171   1.435  12.987  0.0607 -0.0139  0.2214
25743W        W41212   8.958  16.085   2.233  0.3787 -0.1064  0.1407
25744W        W41213  11.347  15.514   2.308  0.1211 -0.0322 -0.6165
25745W        W41214   7.532  17.297  13.948 -0.0285 -0.0134  0.2005
25746W        W41215  16.823   7.735   1.158 -0.0912  0.1707 -0.0163
25747W        W41216   0.813   6.651  15.182 -0.2416 -0.1022 -0.1324
25748W        W41217   9.237  12.336   2.327 -0.1853  0.3291  0.2573
25749W        W41218  12.786  16.928  11.010  0.0179 -0.2134  0.0458
25750W        W41219   3.769   3.798   5.548 -0.1404 -0.0293  0.0983
25751W        W41220  11.349  17.145  10.158 -0.1881 -0.0236  0.0374
25752W        W41221   4.702   3.228   1.266  0.1934  0.0641  0.1469
25753W        W41222  11.697   1.312   2.904  0.0627 -0.2502 -0.1780
25754W        W41223  16.449  12.427   5.115  0.1363  0.0726  0.1284
25755W        W41224  11.353  15.991  12.906  0.2465 -0.0533  0.0129
25756W        W41225   4.232  14.478  13.537 -0.2388 -0.0566 -0.0878
25757W        W41226  10.430   4.169   5.558  0.0102 -0.3921  0.0143
25758W        W41227   7.003  10.814   4.049  0.4889 -0.0411 -0.2241
25759W        W41228   9.520  13.402   0.144  0.3613 -0.1448  0.3764
25760W        W41229   7.543   4.249   2.802  0.2757  0.1686 -0.0450
25761W        W41230   5.706   6.501   4.854 -0.2179  0.0952 -0.1977
25762W        W41231  15.030   1.011  10.355  0.3021 -0.0829 -0.0268
25763W        W41232  16.852  12.384  15.200  0.2091  0.0881  0.0579
25764W        W41233   2.308  18.671  12.108  0.3073  0.2413 -0.1518
25765W        W41234   8.816   7.296   1.683 -0.2454 -0.0830 -0.1256
25766W        W41235   3.382  16.271  13.686 -0.1669 -0.2368  0.3335
25767W        W41236   4.882  10.654  12.460  0.0463 -0.1257 -0.1078
25768W        W41237   5.997  15.483  15.528 -0.2590 -0.2331  0.1420
25769W        W41238  16.060  16.290  15.650  0.0827  0.0425  0.5679
25770W        W41239   5.815  16.632  14.894 -0.0282  0.1607 -0.2020
25771W        W41240   6.120   6.993  10.262  0.2398 -0.2824 -0.4195
25772W        W41241  12.642  17.207   4.099 -0.1908  0.2571 -0.2227
25773W        W41242  12.978   3.385  13.589 -0.4261  0.1107 -0.0074
25774W        W41243  11.712  10.141   4.874  0.3200  0.1267 -0.0433
25775W        W41244   8.534  12.571  12.927  0.0100  0.0147 -0.0890
25776W        W41245   5.123   8.333   2.745  0.0570  0.0340  0.1228
25777W        W41246   2.938   3.437  13.816 -0.1113 -0.3903 -0.2318
25778W        W41247  13.667  11.662  14.974 -0.1166 -0.1107  0.4123
25779W        W41248   4.772   9.300   4.897  0.1066  0.0234 -0.4802
25780W        W41249   1.839   3.319   2.827 -0.0356  0.0238  0.1377
25781W        W41250   5.195  15.447   0.446 -0.1965 -0.0456 -0.3489
25782W        W41251   4.879   9.709  13.129  0.1834 -0.0707 -0.0854
25783W        W41252   7.748   6.108  11.153  0.0271 -0.0776  0.0340
25784W        W41253  11.148   6.443  15.124  0.2515 -0.2210  0.5456
25785W        W41254  12.102  17.603   0.475  0.1830 -0.0932  0.1775
25786W        W41255   4.507   3.342   5.701  0.5325  0.1521 -0.1899
25787W        W41256  10.146   0.975   3.417  0.0462  0.1120 -0.0439
25788W        W41257   5.813  17.966  14.105  0.0147  0.0823 -0.2789
25789W        W41258   1.594  18.455   1.335 -0.2077 -0.0011 -0.3014
25790W        W41259   9.604  18.718  13.976  0.0772  0.0198  0.1543
25791W        W41260  17.866   0.942  14.324 -0.1335 -0.0130 -0.1090
25792W        W41261  12.150   6.769   1.382 -0.0968 -0.0615 -0.2178
25793W        W41262  14.118   6.290   3.736 -0.0762  0.1847  0.2074
25794W        W41263  13.430  12.727   1.010  0.2492 -0.2326 -0.2652
25795W        W41264  11.945  15.117   4.108 -0.0768  0.2102  0.4012
25796W        W41265   3.210  15.646   3.597 -0.2339 -0.1476  0.3211
25797W        W41266   1.161  13.518   3.659 -0.1884 -0.0501  0.1479
25798W        W41267   7.657   0.978   1.003 -0.0376  0.2585  0.0495
25799W        W41268  14.731  18.577  14.627  0.2000  0.0251 -0.0452
25800W        W41269  15.374  11.117  15.069  0.0651  0.1629 -0.2799
25801W        W41270   5.042   1.712  13.964 -0.0466 -0.0665 -0.1921
25802W        W41271  13.886  16.157  13.625  0.1749 -0.0384  0.0410
25803W        W41272  10.546  10.199  11.484 -0.5086  0.1347  0.0670
25804W        W41273  17.925  11.598  12.745 -0.5935  0.3947  0.1985
25805W        W41274   2.706  15.281   0.634  0.3364 -0.3836  0.0972
25806W        W41275   4.274   9.805  14.426 -0.2298  0.1085  0.0735
25807W        W41276   1.451  10.322  10.806 -0.0239  0.1276  0.4967
25808W        W41277  10.115   1.560   0.998 -0.1530 -0.5676  0.3494
25809W        W41278   3.702   1.011   1.942  0.0216 -0.3979  0.0883
25810W        W41279   8.703   4.522  14.352 -0.4745 -0.0755 -0.3730
25811W        W41280   9.824   3.109  12.242  0.0362 -0.3251  0.3205
25812W        W41281  10.532   9.875   4.511  0.0023  0.1535 -0.0647
25813W        W41282  12.138  11.188   0.365  0.1585  0.0386  0.1641
25814W        W41283  17.474   9.694   4.290  0.1407 -0.2577  0.0049
25815W        W41284   5.620   4.259   4.571 -0.2097  0.0013 -0.3336
25816W        W41285   5.583  12.328  12.208 -0.1437 -0.2065  0.3219
25817W        W41286  17.227   5.207   5.285 -0.0760 -0.1514  0.4531
25818W        W41287   5.619  14.855   1.544  0.1971 -0.1563 -0.2086
25819W        W41288  16.791  11.854   3.841 -0.0212 -0.0609  0.0732
25820W        W41289   5.106   3.352  13.713 -0.1350  0.1262  0.1233
25821W        W41290   9.461  11.255   0.797  0.0230  0.1353  0.0385
25822W        W41291   2.601  13.451   0.574  0.1184  0.0803  0.0263
25823W        W41292   1.348  14.139  13.748 -0.2463  0.0076 -0.0511
25824W        W41293  16.636  14.762  11.874  0.2326 -0.1604 -0.0147
25825W        W41294  18.515   9.970   3.134  0.1665  0.0828 -0.0486
25826W        W41295  11.271   1.013   4.208 -0.0902 -0.1093  0.2095
25827W        W41296   2.338   8.101   4.321  0.1179  0.0514  0.3187
25828W        W41297   8.393   6.001  12.889 -0.1821 -0.2900 -0.1013
25829W        W41298   7.322   1.825   5.158 -0.2352 -0.0976 -0.1249
25830W        W41299  13.790   4.274   0.802 -0.2839 -0.3497  0.4080
25831W        W41300   0.681  15.533   4.720 -0.0948 -0.0757 -0.2995
25832W        W41301   0.371  14.544  12.731  0.0682  0.1371 -0.0201
25833W        W41302   7.381   7.834  15.620 -0.0919 -0.2312  0.0447
25834W        W41303  12.990   4.684  15.234  0.0242  0.0950 -0.1887
25835W        W41304   5.403   4.469  15.382  0.0113  0.0808  0.0648
25836W        W41305   2.490  18.249  14.348 -0.2875  0.0599  0.0898
25837W        W41306   3.846  12.271   0.501 -0.2243  0.1472  0.3483
25838W        W41307  16.984   4.856   1.933 -0.0138 -0.1153 -0.1685
25839W        W41308  15.894   6.429   1.309 -0.1635  0.1094 -0.3586
25840W        W41309  12.237   6.341   0.840  0.1489  0.2673  0.1324
25841W        W41310   5.664  12.668   3.378 -0.0582 -0.1214  0.1907
25842W        W41311  13.077  13.998   4.277  0.3752  0.1156 -0.0479
25843W        W41312   0.051   4.044   0.002  0.0119  0.0954  0.2110
25844W        W41313   0.499  17.321   4.353  0.0552  0.2387  0.0268
25845W        W41314  16.376  12.946   0.188 -0.1238 -0.1744 -0.3684
25846W        W41315   5.903  15.928   3.502  0.1801 -0.1286  0.4533
25847W        W41316  15.565   2.113  12.220  0.2851 -0.0533 -0.2541
25848W        W41317  13.717   7.894   3.301 -0.0164 -0.1113  0.1322
25849W        W41318   7.527   8.100   0.342 -0.0110  0.0730  0.1323
25850W        W41319   5.760   2.722  11.053 -0.2995  0.1058  0.0906
25851W        W41320   0.630  13.388   1.522  0.1775 -0.0306 -0.4727
25852W        W41321   8.566   3.622  12.501  0.1501 -0.3502 -0.0666
25853W        W41322  12.349   1.693   3.855 -0.1268  0.1302 -0.0456
25854W        W41323  17.844   4.854   1.600  0.1482  0.4325  0.1652
25855W        W41324  12.960   2.010   2.300 -0.1472  0.3183 -0.1373
25856W        W41325  14.591   4.037  15.208  0.0319 -0.2657  0.0103
25857W        W41326   9.587   4.287   5.916  0.3557  0.0628  0.0791
25858W        W41327   2.054  13.034  13.227 -0.1959  0.0716 -0.1213
25859W        W41328  14.387  13.726   2.019  0.1679 -0.1548 -0.2084
25860W        W41329   6.736  11.132  15.579 -0.2145 -0.0411 -0.0090
25861W        W41330  18.629  10.679  14.345  0.0195  0.1478  0.3454
25862W        W41331  11.741   8.317   2.106  0.2541  0.0784 -0.1154
25863W        W41332   9.341   9.270  13.989  0.0150  0.1055  0.2425
25864W        W41333  13.826   0.405  11.173  0.2502 -0.1319 -0.0524
25865W        W41334   8.351  18.543  12.050  0.0407  0.0752  0.3689
25866W        W41335   3.902   3.878  11.661  0.0337 -0.2716  0.1037
25867W        W41336   0.126  15.864   4.174 -0.0839 -0.1892 -0.3329
25868W        W41337   1.997   3.565   3.281 -0.1954  0.0005  0.1542
25869W        W41338  15.189  10.317   3.989 -0.0835  0.4350 -0.0803
25870W        W41339   0.975  15.663   4.077 -0.0168 -0.1737  0.1827
25871W        W41340   8.539   4.487  12.165  0.0379  0.0023  0.2949
25872W        W41341   6.688   7.171   3.040 -0.3684 -0.0811 -0.0638
25873W        W41342   3.940   2.682   3.257 -0.3215  0.2164 -0.3355
25874W        W41343  11.989   9.688  13.549 -0.2607  0.0523  0.0456
25875W        W41344   6.276  14.635  15.193 -0.1668 -0.4053 -0.0198
25876W        W41345   4.162   5.549   0.585  0.0849 -0.0138 -0.2293
25877W        W41346  12.285   3.923  14.955 -0.3977 -0.4225 -0.1913
25878W        W41347   5.759  10.401   3.729  0.0711 -0.0441 -0.0834
25879W        W41348   0.185   3.113   6.028 -0.1418  0.2007 -0.0393
25880W        W41349   5.339  11.625  12.657  0.1761 -0.1538  0.1728
25881W        W41350   7.234  17.917  15.125  0.0170  0.3183  0.2241
25882W        W41351   4.270   0.982   0.450 -0.1316  0.0292 -0.5230
25883W        W41352   2.100  12.655   3.048  0.0280 -0.0258  0.2242
25884W        W41353   3.652  18.078  15.346 -0.0948  0.2641  0.1860
25885W        W41354  15.917   5.022   0.360 -0.6233  0.1906  0.0232
25886W        W41355   9.735   5.132   3.992  0.0631 -0.0737 -0.1331
25887W        W41356   8.078   6.435   4.418  0.0158  0.1198 -0.0140
25888W        W41357   6.115  16.417   0.761  0.0694  0.0089  0.2646
25889W        W41358  15.596  18.244   3.324  0.0099 -0.0948 -0.2394
25890W        W41359  17.613   7.282   4.990 -0.2191  0.3334 -0.0306
25891W        W41360   3.531  11.891  12.780  0.2068  0.1698  0.1084
25892W        W41361  10.934   6.296   2.848  0.2031 -0.0033 -0.5786
25893W        W41362   5.467  18.271   2.704 -0.0303  0.1038  0.0702
25894W        W41363   9.697   8.161  11.452 -0.1118 -0.4021  0.3382
25895W        W41364  12.775  12.365  10.115 -0.1186 -0.0854  0.0307
25896W        W41365   1.667   0.987  14.438  0.1007 -0.2422 -0.5403
25897W        W41366   7.504   0.002   0.695  0.2617  0.0551 -0.2550
25898W        W41367   3.264  14.427  14.976  0.0054 -0.0324 -0.0976
25899W        W41368  15.260   1.223   1.464 -0.3325 -0.0698  0.4909
25900W        W41369  11.721  13.835  12.200 -0.2162 -0.0987 -0.0180
25901W        W41370   5.782  15.623  13.815  0.2070  0.1386  0.0318
25902W        W41371   6.007   7.682  11.602  0.1817  0.3525  0.2133
25903W        W41372   3.435   7.614   4.344 -0.0743  0.0230  0.0387
25904W        W41373  14.784   2.971  13.557  0.1059 -0.1084  0.1125
25905W        W41374  14.888   8.521  13.603  0.1318  0.2885 -0.0090
25906W        W41375  15.643   6.222  13.242  0.0114  0.1520 -0.1323
25907W        W41376  14.079   5.544   1.975 -0.2681 -0.1883 -0.0354
25908W        W41377   2.355   7.548  11.974  0.0887  0.3028 -0.1916
25909W        W41378   1.095  15.753  14.967 -0.0482  0.3962 -0.2262
25910W        W41379   4.093  14.711  11.631  0.3314 -0.1160 -0.3076
25911W        W41380  15.151  14.160   4.760  0.1538  0.0317  0.2159
25912W        W41381   6.246  18.142   5.803 -0.1538 -0.4758 -0.0391
25913W        W41382   2.253   5.952   0.325  0.1604 -0.0847  0.2548
25914W        W41383   4.553   2.976  11.063 -0.0660 -0.1123 -0.1768
25915W        W41384   6.847  13.205  10.840  0.0191 -0.0729 -0.1547
25916W        W41385   1.834  15.921   1.221  0.3248 -0.5124 -0.2346
25917W        W41386  18.758   5.905  14.513 -0.1498  0.2824 -0.0760
25918W        W41387  17.394   4.275   1.041  0.0048 -0.1401 -0.2962
25919W        W41388   3.814  11.919   1.798 -0.2322 -0.2422  0.1408
25920W        W41389   5.971  16.139  12.699  0.1823 -0.1043  0.1288
25921W        W41390  10.762   4.039  11.177 -0.2408  0.0755 -0.1224
25922W        W41391   7.115   4.821   0.622  0.3726 -0.3907 -0.1141
25923W        W41392   1.885   8.553  12.176  0.0808  0.0732 -0.4473
25924W        W41393  12.343  10.009  13.290  0.1366 -0.4437 -0.0241
25925W        W41394   5.398  15.648   9.550 -0.1899 -0.3622  0.0388
25926W        W41395   4.928  15.398  11.784 -0.1692  0.1781 -0.0509
25927W        W41396  18.567   2.355   2.784  0.4483 -0.0301 -0.1152
25928W        W41397   2.015   7.911  11.860  0.0352  0.0661 -0.0848
25929W        W41398   5.287   9.181   3.789 -0.2657  0.1171  0.1532
25930W        W41399  16.541   7.841   3.544 -0.2011 -0.1124  0.1721
25931W        W41400  11.239  14.612  14.213 -0.1156 -0.0769 -0.0151
25932W        W41401  10.576   5.743  14.045 -0.1611  0.0628 -0.0116
25933W        W41402   3.968  10.769   1.783  0.4424 -0.3763  0.3180
25934W        W41403   0.405  13.391   2.658  0.0319  0.1119  0.0427
25935W        W41404  11.808   3.820   0.535  0.0152  0.1804 -0.1229
25936W        W41405   5.706  11.652   4.394  0.1354 -0.4217 -0.1120
25937W        W41406   9.550   5.090   9.912 -0.0746  0.1896 -0.1565
25938W        W41407   7.967  18.387  12.432 -0.0349  0.1164  0.0777
25939W        W41408   2.872   7.432  14.500 -0.3796 -0.2175  0.0525
25940W        W41409  13.260   0.769  13.443  0.0844  0.1882  0.2037
25941W        W41410  18.687  14.475   3.200  0.1036  0.4513 -0.4493
25942W        W41411   2.880  12.432   1.092  0.0961 -0.2085  0.2157
25943W        W41412   9.368  17.036   5.158 -0.2163 -0.0582  0.0805
25944W        W41413   2.865   8.401  12.331 -0.2221  0.1507  0.0377
25945W        W41414  10.603   9.272   1.325  0.0065 -0.1010 -0.0859
25946W        W41415  10.368  13.581  14.290  0.1613 -0.2580  0.0564
25947W        W41416  17.330  13.842   2.100  0.0057  0.2352  0.4630
25948W        W41417  11.369   0.016   3.171  0.1201 -0.1239  0.0016
25949W        W41418   2.292   6.848  14.845  0.1890  0.2373  0.0220
25950W        W41419   1.718  10.978   4.146 -0.2643  0.2388 -0.3927
25951W        W41420   0.596   2.408   1.082  0.2497 -0.1005  0.0180
25952W        W41421  12.966   6.684  14.910  0.0272 -0.2189 -0.2250
25953W        W41422   3.765   1.493   3.843  0.1247  0.0546 -0.0882
25954W        W41423  12.327   9.831   3.516  0.2209 -0.0952  0.0591
25955W        W41424   8.092  12.866   0.690  0.2756 -0.0052 -0.0196
25956W        W41425   4.673  11.363   4.165  0.0309  0.0938 -0.0843
25957W        W41426  11.286   2.580   3.837 -0.1039 -0.0912 -0.1896
25958W        W41427   4.643   8.659  13.048 -0.0161 -0.2373 -0.0291
25959W        W41428   3.906  12.720  10.342 -0.1745  0.3763  0.0831
25960W        W41429   6.902   7.962  15.461 -0.1809 -0.0053  0.0993
25961W        W41430   8.693   9.145  12.569  0.4180 -0.2082 -0.0445
25962W        W41431  12.042  10.306   1.288  0.1601  0.1666  0.0545
25963W        W41432   9.022  14.471   1.351  0.0513 -0.1095  0.2572
25964W        W41433  17.679   6.908  11.743  0.0764 -0.1107  0.0007
25965W        W41434  12.115   5.904   1.662 -0.2083  0.1867 -0.2099
25966W        W41435   4.730  10.564  13.081 -0.0815  0.5967 -0.0367
25967W        W41436   5.839   1.618   2.332  0.1451 -0.1287 -0.0000
25968W        W41437  13.218   4.905   0.133  0.1284  0.0973  0.1314
25969W        W41438   4.635   0.387   5.342  0.1041 -0.3612  0.1005
25970W        W41439  16.763  12.800  11.264  0.1314 -0.1650  0.1187
25971W        W41440   9.887   2.424   3.948 -0.2201  0.1901 -0.0114
25972W        W41441   1.462   2.184  10.900 -0.0024 -0.0501  0.3563
25973W        W41442   0.489   6.788   1.288  0.1103  0.2316 -0.0588
25974W        W41443  11.406   8.365  11.785  0.3751  0.0213 -0.0377
25975W        W41444   7.296  15.558   2.579  0.2545  0.0678 -0.0371
25976W        W41445  15.376  12.183   2.718 -0.2216  0.0534  0.1768
25977W        W41446   1.142   3.489   3.640  0.3180  0.2116  0.0160
25978W        W41447  13.007   5.347   1.460 -0.2800 -0.0133 -0.0679
25979W        W41448   7.768  17.636  11.024 -0.3606 -0.0437  0.1854
25980W        W41449   5.764   6.469  14.376  0.1172  0.0112  0.0679
25981W        W41450  10.250   8.635   2.112 -0.3481 -0.0057  0.1679
25982W        W41451   1.559   6.946   4.478  0.2382  0.1026  0.2204
25983W        W41452   1.794  14.881   0.752  0.1418  0.2759 -0.1587
25984W        W41453   8.683  11.398  12.580  0.0615  0.0931  0.2331
25985W        W41454   6.492   8.766   4.386 -0.3190  0.2319  0.4119
25986W        W41455  15.725   3.313  13.643 -0.2489  0.1783  0.3831
25987W        W41456  12.081  13.127   4.004  0.3488 -0.2679  0.0775
25988W        W41457  12.630   5.379   3.967  0.3817  0.3161 -0.0863
25989W        W41458   7.515  17.051   4.411 -0.0028  0.1882 -0.1028
25990W        W41459   6.014   6.673   0.544  0.1946  0.1953 -0.1152
25991W        W41460   8.414  11.461   4.964 -0.1245 -0.2884  0.2755
25992W        W41461  10.383   9.534   0.419 -0.2785  0.1372  0.0448
25993W        W41462   2.014  14.740   2.221  0.0277 -0.0749  0.0250
25994W        W41463  14.694   9.644  11.666 -0.1429 -0.1371 -0.1123
25995W        W41464  17.744   8.213   2.515 -0.2018 -0.2595  0.2198
25996W        W41465   8.134  18.307   4.465  0.1316 -0.5014 -0.2784
25997W        W41466  17.607   0.251   3.442  0.1995 -0.1739  0.2749
25998W        W41467  18.542  10.605  15.268 -0.2214 -0.0301  0.0578
25999W        W41468   4.084   2.806   3.710 -0.1237  0.3569 -0.2035
26000W        W41469   4.220   4.710   4.450 -0.2120 -0.1141  0.2906
26001W        W41470   2.940  15.335  14.387 -0.3747 -0.2060 -0.2971
26002W        W41471   0.311  13.349   3.959 -0.1635 -0.0541 -0.1549
26003W        W41472  14.042  15.027   3.412  0.0794  0.0555 -0.1920
26004W        W41473  15.583  17.685   4.137  0.0951  0.0829  0.1302
26005W        W41474   1.806   4.750  14.843  0.2068  0.2491 -0.1106
26006W        W41475   3.802  17.519  14.730 -0.1290  0.1186  0.0664
26007W        W41476  12.803   6.016  10.642 -0.0930  0.1057 -0.0998
26008W        W41477  18.176  14.228  13.879  0.2257  0.0175  0.0283
26009W        W41478   9.427  10.019   0.359 -0.0663  0.1470 -0.0746
26010W        W41479  11.920   3.942   1.360  0.1725  0.0033  0.2328
26011W        W41480  14.605   4.973   0.602  0.3414  0.1113 -0.0553
26012W        W41481   8.626   8.624   3.461 -0.3357  0.0801 -0.1297
26013W        W41482   2.591   1.716  13.740 -0.2219  0.0941 -0.0078
26014W        W41483  18.245   5.131   5.457 -0.2079 -0.0627  0.1683
26015W        W41484  12.025  13.921   3.546 -0.2765 -0.2721 -0.0068
26016W        W41485   6.212  10.376   2.039  0.0423  0.0687  0.2435
26017W        W41486   9.050   2.929  10.884 -0.1276 -0.2109  0.2162
26018W        W41487   6.668  18.068  11.154 -0.0913  0.3707  0.1652
26019W        W41488  15.286   3.944  14.941 -0.3282 -0.0614 -0.1531
26020W        W41489   7.708  17.848  14.925  0.0766 -0.1688  0.2804
26021W        W41490  16.723  13.313   0.391 -0.2088  0.1968  0.0118
26022W        W41491  12.434  17.944  12.894  0.0416 -0.2514 -0.2964
26023W        W41492   9.612   7.926  12.863  0.0059  0.3594 -0.1818
26024W        W41493   0.415  15.797   5.715  0.1387 -0.2711  0.0664
26025W        W41494  11.027   7.455   5.781 -0.0148 -0.2893 -0.4309
26026W        W41495  13.739   2.337   5.418 -0.0358 -0.2219  0.1201
26027W        W41496  11.299   3.550  11.882 -0.0456 -0.0790 -0.2155
26028W        W41497  18.397   9.523  14.977  0.2111 -0.1181 -0.1609
26029W        W41498  13.850   1.724   2.108  0.0690  0.0246  0.0725
26030W        W41499  13.738  13.737   3.554 -0.0921  0.2003  0.0332
26031W        W41500   6.367  14.551   3.974 -0.1015  0.1133 -0.0110
26032W        W41501  11.306   4.518   2.908  0.1652 -0.0782 -0.3320
26033W        W41502   8.824   6.307  12.000  0.3171  0.2930  0.0704
26034W        W41503   6.230   1.576  11.887 -0.1588 -0.2123  0.2834
26035W        W41504  18.509   4.318   0.441 -0.0118  0.0139  0.0332
26036W        W41505   9.091   1.798   3.880  0.1886 -0.2168  0.0180
26037W        W41506   8.431   3.146   2.931  0.0322  0.0079 -0.0631
26038W        W41507  16.914   3.221  14.529 -0.0257 -0.3642  0.2431
26039W        W41508   9.428   8.076  11.947 -0.1173  0.0369 -0.1848
26040W        W41509   1.396  15.380   1.187  0.0910 -0.0469 -0.0113
26041W        W41510  16.404   1.099  13.974 -0.3302 -0.0131  0.4142
26042W        W41511   4.933  13.954  15.618  0.0606 -0.2082 -0.0113
26043W        W41512   9.946  18.005  13.076 -0.1214 -0.0086 -0.1306
26044W        W41513   0.642   6.952  13.299  0.1861  0.0077 -0.0586
26045W        W41514  10.527  13.436  15.598 -0.3377 -0.1299  0.4158
26046W        W41515  16.130   9.656   2.936 -0.2254 -0.1793  0.1891
26047W        W41516   2.146  10.675  12.582 -0.0217  0.1886  0.0785
26048W        W41517  11.834  12.205   3.868 -0.1632  0.1632 -0.0079
26049W        W41518   0.710  14.445   2.708 -0.0403 -0.0401 -0.2801
26050W        W41519  13.729  12.395   4.964 -0.1152 -0.0010 -0.2948
26051W        W41520   3.014  13.726   1.617  0.2325  0.4985 -0.1307
26052W        W41521  12.961   1.431  15.242  0.0129 -0.0789 -0.2958
26053W        W41522   1.140  13.606  14.850 -0.2147  0.1949 -0.1013
26054W        W41523  10.310  12.982  10.565  0.3410  0.0065 -0.2364
26055W        W41524  10.590  10.202   5.201 -0.3391  0.0587  0.2785
26056W        W41525  12.703   3.300  14.629  0.2728 -0.1381  0.1925
26057W        W41526  17.800   7.630  13.934 -0.2586 -0.0852  0.0310
26058W        W41527  15.148   1.679   1.711 -0.1630 -0.2681  0.2771
26059W        W41528  14.913  18.428  11.275 -0.0224  0.4370  0.0280
26060W        W41529   9.820   5.036  12.957  0.4720  0.0823 -0.2677
26061W        W41530   0.928   8.095  10.943  0.1702  0.1247 -0.2568
26062W        W41531  18.635   2.044  11.906 -0.1770 -0.1510 -0.2313
26063W        W41532  18.513   1.732  12.279  0.1218  0.1953  0.1295
26064W        W41533  10.941   0.861   2.021  0.1493 -0.0590 -0.2450
26065W        W41534   1.960  13.092   1.065 -0.0877 -0.2220 -0.1561
26066W        W41535  15.877   3.744  10.580  0.1646  0.0000  0.4318
26067W        W41536  12.836   4.777  13.303 -0.2867  0.1074  0.2281
26068W        W41537  17.157  18.671   3.541 -0.2647  0.4600 -0.1650
26069W        W41538   3.479  11.414  11.334  0.0540 -0.1296 -0.0076
26070W        W41539  10.558  13.121  14.224  0.1238  0.3376  0.1155
26071W        W41540   3.934   9.895   0.516 -0.5174  0.1701 -0.1867
26072W        W41541  15.482   1.204  13.493 -0.0953  0.0596 -0.3119
26073W        W41542  12.734  11.712  10.772  0.1376 -0.2533 -0.0501
26074W        W41543  12.318  12.245  11.590 -0.0434 -0.1464 -0.1670
26075W        W41544   0.777   8.027  14.663 -0.0850  0.2415  0.1956
26076W        W41545   7.998   6.187  12.451  0.2313 -0.0005 -0.0597
26077W        W41546  15.704   1.370  12.911 -0.1653 -0.0499  0.2280
26078W        W41547   3.016  10.578  11.406  0.0513 -0.3451 -0.0572
26079W        W41548  18.132   8.650  13.965  0.2325 -0.2276 -0.2216
26080W        W41549  11.577   4.644   0.978 -0.0788  0.0261 -0.0400
26081W        W41550   1.647   0.569  10.863 -0.1935  0.3031  0.0142
26082W        W41551  17.905   4.468  11.817 -0.2475 -0.0446 -0.2486
26083W        W41552  12.914   5.177  14.536  0.0022 -0.0649  0.1333
26084W        W41553  16.788   6.242  14.245 -0.1007 -0.1231  0.0029
26085W        W41554   7.769  12.365   4.596 -0.3404 -0.3956 -0.1016
26086W        W41555  14.353  16.378  12.314 -0.2491  0.2053 -0.1884
26087W        W41556   7.385   9.358   3.656 -0.0407  0.0354  0.1418
26088W        W41557   4.384   8.798  14.060  0.2677  0.2320 -0.2712
26089W        W41558  12.144  16.881   0.224  0.0873 -0.1364  0.1577
26090W        W41559   6.228   0.446  10.795 -0.1842  0.3257  0.4228
26091W        W41560   8.378   5.133   4.841  0.0210  0.0320  0.2850
26092W        W41561  12.268  11.652   3.356 -0.1176  0.0668  0.0756
26093W        W41562  13.908   4.841   1.284 -0.2203  0.2958 -0.0673
26094W        W41563  11.252   3.055  14.359 -0.0273  0.1122 -0.0042
26095W        W41564  13.488   6.723  13.325 -0.1484  0.3810  0.0364
26096W        W41565  16.647   6.129  12.483 -0.0312  0.2262 -0.2369
26097W        W41566   9.771  10.494   3.219  0.2026  0.2173  0.1670
26098W        W41567   0.198  16.653  14.158 -0.1022  0.0346 -0.0198
26099W        W41568   3.997  12.135  14.598 -0.0739  0.3112 -0.3771
26100W        W41569  17.449  12.857   0.060 -0.1772  0.1903 -0.2352
26101W        W41570   8.701   7.023  10.016 -0.0480  0.1438 -0.3731
26102W        W41571   5.440  14.759  10.031  0.3068 -0.2165  0.3458
26103W        W41572   1.901  11.737   5.294 -0.1640 -0.2832  0.0343
26104W        W41573  11.358  18.229  13.735 -0.2112  0.0047 -0.0776
26105W        W41574  12.201   2.373   3.282 -0.1256 -0.0782 -0.1021
26106W        W41575   2.892  16.149   4.132  0.0875 -0.2074  0.0993
26107W        W41576   7.143   6.368   4.837 -0.2231  0.3670  0.0216
26108W        W41577  17.333  14.941  13.969 -0.1318  0.2280  0.1176
26109W        W41578  13.880   8.796  15.123 -0.0714 -0.2184  0.0418
26110W        W41579   4.634  18.498   0.243  0.0071  0.0663 -0.1523
26111W        W41580   8.562   7.367   4.192 -0.1294 -0.1252 -0.0751
26112W        W41581   2.967   0.573   4.402  0.2069  0.0181 -0.3638
26113W        W41582   5.853   9.166  12.898  0.0245  0.1331 -0.3354
26114W        W41583  16.020  18.612   3.854  0.0610 -0.0571  0.0478
26115W        W41584   3.842  15.180  11.865  0.2629 -0.0001 -0.1104
26116W        W41585  18.684  14.526   4.249 -0.0867 -0.0638 -0.1139
26117W        W41586   7.146   0.850  13.409 -0.0201 -0.0282  0.0323
26118W        W41587  12.449  14.702   0.270  0.2536  0.0195  0.2330
26119W        W41588  11.307  14.252   1.981  0.0736  0.2330 -0.3941
26120W        W41589  16.016  11.377   0.085  0.3676 -0.1502 -0.1412
26121W        W41590   3.350  15.024  12.519 -0.0783  0.4047  0.2809
26122W        W41591   5.320   4.307   3.309  0.0205  0.2695  0.0891
26123W        W41592  13.513   9.493  13.448  0.1015 -0.3368  0.1054
26124W        W41593   2.696  16.907  12.548  0.2857 -0.0571 -0.1803
26125W        W41594   6.309  12.057   4.479 -0.0569 -0.1107  0.2480
26126W        W41595  13.898  15.301  11.840  0.0857  0.0482  0.2350
26127W        W41596   0.983  11.278   4.524  0.0527  0.0013  0.1870
26128W        W41597   7.430   6.081  12.380  0.2107 -0.3212  0.1017
26129W        W41598   1.381   2.453  13.448  0.0053  0.2364 -0.0830
26130W        W41599   2.863   6.650  14.166  0.6074 -0.1536 -0.3139
26131W        W41600  12.970  10.349  12.158  0.2394 -0.1414 -0.1962
26132W        W41601   8.446   9.074   3.288 -0.0683  0.0966  0.2353
26133W        W41602  17.267   5.929   0.972  0.0987  0.4760  0.1002
26134W        W41603  16.714   8.315  10.004 -0.0047  0.1665  0.1020
26135W        W41604  15.828   3.055   1.498  0.2320 -0.1774  0.2473
26136W        W41605   5.287  17.777  12.533 -0.0154  0.0044  0.1307
26137W        W41606  10.864  16.274  10.930  0.2399 -0.4578 -0.0530
26138W        W41607  10.610   0.904  15.595  0.0327 -0.0598  0.1216
26139W        W41608   3.631  14.968   3.006 -0.1817  0.0321 -0.3708
26140W        W41609   5.064  11.266  10.774  0.3858  0.0826 -0.0687
26141W        W41610   8.868   5.386  12.455  0.0536  0.2778  0.2118
26142W        W41611   9.806   0.925  12.291  0.0924  0.3622 -0.3237
26143W        W41612   8.331  17.333  12.341 -0.0505  0.0565 -0.1025
26144W        W41613  10.127   3.030  13.574 -0.2767  0.1878 -0.2861
26145W        W41614   8.108  12.714  13.800 -0.2407  0.0989 -0.1571
26146W        W41615  17.517   7.661   5.871  0.2255 -0.0536  0.0891
26147W        W41616   5.927   1.161   4.940 -0.2266 -0.2210 -0.0751
26148W        W41617   4.619  16.004  14.536 -0.1969 -0.0708  0.2742
26149W        W41618   2.567   4.724   5.715 -0.1306  0.5036 -0.0598
26150W        W41619  16.983  11.211   2.572 -0.0641  0.5496  0.1228
26151W        W41620   8.246   7.811  15.272 -0.3420 -0.2588  0.2610
26152W        W41621   4.403   9.917  12.742  0.1151  0.0104  0.1802
26153W        W41622   1.121  18.625  11.955  0.1684  0.0968 -0.0557
26154W        W41623   7.224  13.851   4.842 -0.0484 -0.2986  0.0514
26155W        W41624  18.173  11.537   0.586  0.1940 -0.2236 -0.1300
26156W        W41625  11.704  11.582  11.987 -0.0114 -0.2087 -0.1981
26157W        W41626   9.813   8.070   3.466 -0.0528 -0.2457  0.2155
26158W        W41627   5.998   1.632   4.909 -0.0901  0.2195  0.0282
26159W        W41628  13.268   5.203   3.037 -0.0627  0.0054  0.1496
26160W        W41629   6.170   9.055  14.748 -0.1493 -0.1439  0.1305
26161W        W41630  10.825   2.481  12.838 -0.1041  0.2963 -0.0343
26162W        W41631   6.140   8.431  10.716 -0.2270 -0.3150  0.0215
26163W        W41632   1.825   0.851  15.526 -0.1799 -0.0351 -0.2930
26164W        W41633   9.331   9.817  11.298 -0.0341  0.0160 -0.3368
26165W        W41634  15.357  11.629   0.386 -0.2191  0.0139 -0.0620
26166W        W41635  15.192  14.785   1.756  0.2407  0.3584  0.1329
26167W        W41636  12.714  18.246   1.105  0.0022  0.3826  0.1395
26168W        W41637  15.644  14.397   0.255 -0.2868  0.0861  0.1477
26169W        W41638  13.521   3.559  15.448  0.1566 -0.1526 -0.0961
26170W        W41639  11.904  11.440  13.796 -0.2023 -0.1416 -0.1433
26171W        W41640  18.568  10.459   9.868  0.2053 -0.1193  0.2010
26172W        W41641  14.427   1.684   1.602  0.1586  0.2172  0.0029
26173W        W41642   5.273  14.527   4.060 -0.0349  0.2398  0.4051
26174W        W41643  16.151  15.862  11.544 -0.1506 -0.2766  0.2790
26175W        W41644   0.951   9.394  11.345  0.0359  0.0144  0.0312
26176W        W41645   8.820  18.090  15.125 -0.1328  0.3272 -0.1555
26177W        W41646   1.436   3.590   2.752  0.1652 -0.0582 -0.1907
26178W        W41647  14.844  13.960  13.346  0.0429  0.2711 -0.3058
26179W        W41648  11.406  10.041  13.574 -0.1573  0.7616 -0.0029
26180W        W41649   9.349   9.945   4.509 -0.0024  0.2099  0.0289
26181W        W41650   2.832   1.311   0.741  0.1188 -0.0837  0.2371
26182W        W41651  12.860  13.707   2.908 -0.0460 -0.0757 -0.1506
26183W        W41652   0.436   7.827  10.756 -0.0553 -0.0857  0.0454
26184W        W41653  11.814  17.609   0.832  0.0830 -0.2728  0.1087
26185W        W41654   6.665   7.393  14.188 -0.0825 -0.0934 -0.1876
26186W        W41655  14.729  16.923  11.526 -0.0302 -0.3715 -0.1722
26187W        W41656   6.353  15.557  11.516 -0.1427 -0.1564  0.0181
26188W        W41657  16.756   7.102   0.396  0.2552  0.0140 -0.3467
26189W        W41658  10.203   7.816   3.234  0.0578 -0.1664  0.0818
26190W        W41659   6.255  17.399  12.873 -0.1232  0.2154 -0.1508
26191W        W41660  10.250  17.769   4.704  0.1586 -0.0332 -0.5595
26192W        W41661  12.985   3.812   4.148  0.1771  0.1318 -0.0011
26193W        W41662  16.102  12.694  12.246 -0.1007  0.3909  0.3063
26194W        W41663  15.639  15.418  12.722 -0.2896  0.2310 -0.1389
26195W        W41664   9.155   6.578   3.666 -0.3799 -0.1816  0.1275
26196W        W41665  10.595   8.248  15.484 -0.1305  0.2318 -0.0799
26197W        W41666   3.448   7.966   9.937  0.1364  0.2952 -0.1597
26198W        W41667   1.493  16.276   1.282  0.0820 -0.1924 -0.5039
26199W        W41668  17.140   1.008   2.726 -0.0153  0.0588 -0.0329
26200W        W41669   1.761  16.856  12.343 -0.0149 -0.0631  0.2222
26201W        W41670   6.624   5.216   2.869 -0.0535 -0.0053  0.0472
26202W        W41671  16.518  13.525   1.872  0.0691 -0.2348  0.1431
26203W        W41672  17.188   0.976   3.817 -0.2199  0.1288  0.2906
26204W        W41673   1.471   8.560  13.633  0.0994 -0.0740  0.2222
26205W        W41674  17.319  10.346  15.489 -0.0883  0.3469  0.3847
26206W        W41675   4.615   1.688   1.611 -0.0629 -0.0553 -0.2837
26207W        W41676   8.794   3.363  14.277 -0.0468  0.0335 -0.1172
26208W        W41677   5.796   8.765  14.616  0.1972  0.0550  0.0526
26209W        W41678   5.502   0.024  11.785  0.0736  0.0802 -0.0538
26210W        W41679   7.420  15.636  13.239  0.0865  0.0875 -0.1660
26211W        W41680  10.862   7.058  11.690 -0.0425 -0.1447  0.3542
26212W        W41681  16.166  10.957   3.721 -0.0050 -0.0766 -0.1606
26213W        W41682   4.476   3.855  13.991  0.1403  0.0100 -0.0775
26214W        W41683  14.002   5.568   3.784 -0.0416  0.1047 -0.0302
26215W        W41684   0.651  14.707  12.291  0.0547 -0.4948 -0.1971
26216W        W41685   3.357   0.916  14.717  0.0625 -0.3900  0.0242
26217W        W41686   6.770  16.155   2.919 -0.0781  0.3672 -0.2745
26218W        W41687   9.460   6.238  14.833 -0.2560 -0.0449  0.0162
26219W        W41688  14.813  14.089   2.892 -0.2994 -0.0951  0.1532
26220W        W41689  13.606   6.653   5.446  0.0215  0.0291  0.1782
26221W        W41690   0.079   3.367  15.130 -0.0524 -0.0707 -0.0861
26222W        W41691  10.155   9.026   1.138 -0.0739 -0.0432 -0.1981
26223W        W41692   6.731   0.803  12.343 -0.0493  0.1673  0.0131
26224W        W41693  13.678  15.377   2.525 -0.0444 -0.0984  0.1243
26225W        W41694   0.505   2.627  13.906 -0.0239 -0.2383 -0.2425
26226W        W41695   6.181   9.190   1.879 -0.1242  0.0209 -0.2462
26227W        W41696   3.058   7.917   3.959 -0.0456 -0.0718  0.0213
26228W        W41697  11.629   0.405   1.177  0.0428  0.0781  0.0031
26229W        W41698   2.759   5.269   5.071 -0.0251  0.0532  0.1339
26230W        W41699  10.593  13.607   1.476 -0.3241 -0.0651  0.0512
26231W        W41700  13.169   6.483  11.791 -0.0521  0.2312  0.1265
26232W        W41701  15.507  15.672   4.925 -0.2895  0.1293  0.0953
26233W        W41702  12.133   8.769  14.829 -0.1183  0.4533 -0.0029
26234W        W41703   7.529  18.156  15.427 -0.0450 -0.2263  0.0127
26235W        W41704  16.090  16.273   2.934  0.2470  0.2529 -0.0132
26236W        W41705   0.172  11.405   1.716  0.0993  0.2861  0.0741
26237W        W41706  15.999  14.294   2.079 -0.2218  0.0193  0.0275
26238W        W41707  11.864  14.058   1.759  0.0781  0.2184  0.0486
26239W        W41708   8.353  17.919   0.199 -0.0131  0.1885 -0.0604
26240W        W41709   9.273  16.826  14.854 -0.1648  0.0382  0.0726
26241W        W41710   1.791  12.253  12.234  0.0080 -0.3409  0.1966
26242W        W41711  16.181   1.499   4.394 -0.0663 -0.1950 -0.1679
26243W        W41712  14.805  10.253   1.177 -0.2113 -0.0987  0.0797
26244W        W41713  16.480  15.348   3.479  0.1273 -0.1706 -0.0821
26245W        W41714   4.016   5.612   2.258  0.2169 -0.0099 -0.2193
26246W        W41715   1.869  13.551   3.008  0.0824  0.0231 -0.0573
26247W        W41716  15.060  14.338   1.598  0.1333  0.0454 -0.1852
26248W        W41717  17.699   9.161  14.557  0.1280 -0.0766  0.1900
26249W        W41718   6.560   4.504   2.602  0.0344  0.0293  0.2591
26250W        W41719   9.237   1.011  13.307 -0.0549  0.1082  0.4648
26251W        W41720  13.158  17.749   2.365  0.2022 -0.0702 -0.2942
26252W        W41721   5.974  13.909  13.966  0.1642 -0.1632 -0.1851
26253W        W41722   0.904   2.110  11.029  0.1185  0.1195 -0.0881
26254W        W41723   2.798   6.845  13.327  0.2111  0.0678  0.1495
26255W        W41724   7.309  10.359   2.765 -0.1852  0.0431  0.1398
26256W        W41725  12.768  17.633   4.670  0.1326 -0.0428  0.2889
26257W        W41726  14.990   9.948   0.715 -0.0225  0.2081 -0.0473
26258W        W41727  12.723  12.403   0.176 -0.0777 -0.0382 -0.2793
26259W        W41728  14.953   3.872   4.697 -0.1723 -0.0178  0.2865
26260W        W41729  12.883  17.302  13.981 -0.1234 -0.2430 -0.0135
26261W        W41730  15.755  16.539   1.317  0.0167 -0.0746  0.1080
26262W        W41731   4.672   7.075   3.664  0.1494 -0.4040 -0.0364
26263W        W41732   6.826   0.185  15.358 -0.3513  0.0701  0.0260
26264W        W41733  17.510  14.671   0.302 -0.0926 -0.4816 -0.0308
26265W        W41734   5.249   1.232   2.817 -0.0052 -0.0969  0.1509
26266W        W41735  13.265  18.275   5.065 -0.1011 -0.2637  0.0079
26267W        W41736   1.549  17.169   5.463 -0.0031 -0.0980 -0.3161
26268W        W41737   6.227   9.294  10.361 -0.0183 -0.1462  0.0013
26269W        W41738  10.761   4.704   2.110  0.0941 -0.0795 -0.4635
26270W        W41739  12.177   3.764   1.961 -0.0693  0.0025  0.0806
26271W        W41740  16.738   4.325   0.275 -0.2186 -0.3023 -0.4108
26272W        W41741   9.226   8.183   2.757  0.0494 -0.2460 -0.0829
26273W        W41742   8.040   6.779  10.926  0.3928 -0.2554 -0.1767
26274W        W41743  15.187   6.494   2.896  0.2130 -0.0344  0.0704
26275W        W41744  10.650  17.893  14.184  0.0204 -0.1740  0.0229
26276W        W41745  18.318  16.616   3.918  0.4529 -0.1332  0.1757
26277W        W41746   2.751  12.938   1.124 -0.0089  0.1673 -0.0575
26278W        W41747   4.027   8.519  14.330 -0.1195 -0.0526 -0.1875
26279W        W41748  12.153  18.470   5.755  0.1796  0.0825  0.2163
26280W        W41749  12.284   2.787  13.439 -0.0663  0.1000 -0.0564
26281W        W41750   3.662  15.099   0.321 -0.0267  0.0746  0.2849
26282W        W41751  12.515   4.978   5.528 -0.3955  0.2072  0.0379
26283W        W41752   7.866  15.813  14.714  0.2009 -0.2511  0.2569
26284W        W41753  17.543   2.602   3.867  0.0937  0.0049  0.0464
26285W        W41754   7.094  18.623  12.697  0.1869  0.0705 -0.3643
26286W        W41755   0.093   3.892   2.401  0.2499 -0.1965  0.3831
26287W        W41756  12.515   0.133  13.451 -0.1373  0.0368 -0.3317
26288W        W41757  11.058   7.627   2.889 -0.2671  0.1587  0.3788
26289W        W41758   7.126  14.536  14.813  0.0008 -0.3863  0.1513
26290W        W41759  11.271   1.424  15.227  0.2946  0.1455 -0.0037
26291W        W41760   5.964  15.325  11.745  0.1079  0.1355 -0.0373
26292W        W41761  13.255   2.669   1.555 -0.0678  0.0593 -0.5169
26293W        W41762  15.839   1.087   4.480 -0.4463 -0.0083  0.1887
26294W        W41763  13.743  12.771  14.210  0.1947  0.4336  0.1376
26295W        W41764  16.494   8.375   4.332 -0.0789  0.1974 -0.1303
26296W        W41765  14.361   3.885  14.819  0.1169 -0.2388 -0.2781
26297W        W41766   3.713  15.778   3.624  0.0823 -0.0990 -0.1457
26298W        W41767   6.680   9.322  14.025  0.2057 -0.5314  0.0156
26299W        W41768  16.879   7.575  11.993  0.1284  0.1270  0.0305
26300W        W41769   5.439   9.613  13.650  0.2857 -0.3369 -0.0085
26301W        W41770   0.000  13.818   2.700 -0.0993 -0.0355  0.0642
26302W        W41771  10.632   7.203  11.012 -0.4197 -0.1222 -0.0458
26303W        W41772   8.506  15.040   3.975 -0.1571 -0.0681  0.0879
26304W        W41773  16.102  14.618   4.027  0.1066 -0.0152  0.0700
26305W        W41774  14.390  15.469   1.290 -0.2175 -0.0062 -0.0746
26306W        W41775  17.271  13.573  14.216  0.1169  0.2659  0.1828
26307W        W41776  16.358   4.239   1.064  0.0711  0.5427  0.0690
26308W        W41777   5.520  17.140   4.312 -0.1111  0.0446 -0.2645
26309W        W41778   3.051   6.652   1.816  0.3930  0.0693 -0.1818
26310W        W41779  15.209  14.778   3.381  0.0679  0.2525  0.0106
26311W        W41780   3.742   5.994   2.300 -0.5710  0.0407 -0.3741
26312W        W41781  15.525  15.764   3.158  0.1447 -0.2648 -0.1791
26313W        W41782  18.032   6.895   0.611 -0.1040 -0.3680 -0.3565
26314W        W41783  11.663   9.418   0.925  0.0234  0.1659  0.0064
26315W        W41784   0.105  10.430   1.015 -0.1815 -0.1084 -0.1910
26316W        W41785  12.877  16.470  10.897  0.1638 -0.0448  0.3016
26317W        W41786  11.686  16.093   4.460  0.1037  0.1453  0.4179
26318W        W41787  14.305  18.749  13.698  0.2907  0.3859  0.2731
26319W        W41788  17.142   5.566   2.287 -0.2749 -0.1934 -0.0886
26320W        W41789  14.091   9.239   3.410  0.1859  0.1062 -0.0164
26321W        W41790  18.442  11.472  15.302  0.3805 -0.1034 -0.2175
26322W        W41791   2.787   3.018   0.181  0.2730 -0.0196 -0.0727
26323W        W41792   7.144  11.982  10.804  0.0913  0.1955 -0.3070
26324W        W41793  17.201   6.233   0.100  0.0794 -0.2155  0.0502
26325W        W41794   9.068   8.628  14.751 -0.3341 -0.1993 -0.0378
26326W        W41795  10.140   6.588   2.814  0.3676 -0.2031 -0.2396
26327W        W41796  15.304  16.001  12.646 -0.0642 -0.2842 -0.1008
26328W        W41797  10.284   6.072  15.368  0.0112 -0.2416  0.0972
26329W        W41798   1.103   1.894   5.017 -0.1147  0.0611 -0.2028
26330W        W41799  16.044   0.939  10.722 -0.0474  0.2044 -0.2095
26331W        W41800  18.099  11.999   1.939 -0.1517 -0.0705  0.1741
26332W        W41801  14.680   7.839   0.258  0.2541 -0.1184 -0.0198
26333W        W41802  13.375  12.299  12.880  0.0983  0.2406  0.1303
26334W        W41803   7.227  11.352  12.695 -0.0586 -0.1627 -0.2647
26335W        W41804   5.975   5.935   1.073 -0.2418  0.0928  0.1025
26336W        W41805   9.727  16.022   0.347  0.0043  0.0907  0.0603
26337W        W41806   6.467  12.824  11.809  0.2252 -0.2879 -0.2245
26338W        W41807   2.132  14.157  12.254 -0.0772 -0.0634 -0.1488
26339W        W41808   5.973  16.924   2.949 -0.2184  0.0254  0.0282
26340W        W41809   8.453  18.768  13.135 -0.1507 -0.0633 -0.1398
26341W        W41810   2.415  10.720  10.763 -0.1694  0.5469  0.2146
26342W        W41811   6.369  11.654  15.103  0.0163 -0.0764 -0.0622
26343W        W41812   9.611   2.452  15.608 -0.0592 -0.0956  0.0440
26344W        W41813  11.646   2.770   1.946 -0.4196  0.1718 -0.1959
26345W        W41814   8.380  13.777   0.566 -0.0693 -0.0488 -0.1592
26346W        W41815  13.517  12.055   5.371  0.0924 -0.3420 -0.0729
26347W        W41816   1.044  11.082  11.753  0.2585  0.0403 -0.1442
26348W        W41817   0.705   5.622  15.127 -0.1140 -0.0422 -0.5263
26349W        W41818  11.415  18.087   4.806  0.0737 -0.0712 -0.2461
26350W        W41819   2.789   6.098   1.323  0.1281  0.2791  0.1405
26351W        W41820   2.160   2.197   2.914 -0.3192 -0.0787  0.1470
26352W        W41821   2.048   8.251  11.291  0.0335 -0.0316 -0.0323
26353W        W41822  12.029  18.215  15.342 -0.1192 -0.2097 -0.1112
26354W        W41823  15.080  17.487   4.846  0.1896  0.1764  0.1560
26355W        W41824   0.758   7.035   5.103  0.0983 -0.2196  0.1414
26356W        W41825  11.635   4.205   3.210  0.2045 -0.0069  0.1851
26357W        W41826   2.538  16.173  11.966 -0.0434  0.1098 -0.0318
26358W        W41827   5.977   8.916  10.595  0.0761  0.2478 -0.2443
26359W        W41828   4.537   4.787   0.867  0.4604 -0.1719 -0.0860
26360W        W41829   7.636   6.577   9.867 -0.4110  0.1929 -0.2931
26361W        W41830   7.603  18.458   4.587  0.2116 -0.3096  0.1534
26362W        W41831  12.984  17.364  14.957  0.1352  0.0438  0.1823
26363W        W41832   6.263   1.424   3.781 -0.2912 -0.0498  0.3029
26364W        W41833  12.125   8.335   2.449 -0.1904 -0.1080  0.0190
26365W        W41834  18.727   9.918   0.267 -0.1209  0.0303  0.0512
26366W        W41835   7.590   7.864  12.733 -0.0181 -0.0177 -0.2560
26367W        W41836   2.538   1.659   2.548  0.0950 -0.2470 -0.3937
26368W        W41837  17.674   0.266   5.092 -0.0715 -0.0070 -0.1871
26369W        W41838   4.786  12.131   2.619 -0.0087 -0.1051 -0.3229
26370W        W41839  12.368   7.627   2.438  0.0060  0.0790  0.0058
26371W        W41840   1.715  18.464   3.672  0.0221 -0.1092 -0.0278
26372W        W41841   9.699   9.643   4.603  0.1046 -0.0095  0.1103
26373W        W41842   2.369  13.050   0.788  0.0018  0.0767 -0.3974
26374W        W41843   2.169   0.782  14.560  0.0350  0.2819  0.0720
26375W        W41844   9.155  14.337  10.621  0.2454  0.2755  0.1955
26376W        W41845  17.365   9.175  12.615 -0.1405  0.0019 -0.2768
26377W        W41846   2.821   3.775  12.995 -0.4690  0.1765  0.2449
26378W        W41847   0.090  15.685   9.982  0.1850 -0.2428 -0.1087
26379W        W41848   8.930  16.084   9.282  0.2008 -0.2676  0.0551
26380W        W41849  10.849  18.013   4.704 -0.0547  0.1531 -0.1497
26381W        W41850   1.314  18.136   3.662 -0.0906  0.1509  0.0039
26382W        W41851  17.616  10.806   4.747  0.2787  0.0553  0.2175
26383W        W41852  12.018   6.949  10.753 -0.0178  0.1545 -0.0731
26384W        W41853   3.929   3.474   0.764 -0.4231  0.0097 -0.2343
26385W        W41854   0.436  10.814  12.595  0.0377  0.3006  0.1306
26386W        W41855  17.400   8.226  11.068  0.3399  0.1252  0.0039
26387W        W41856   2.332   9.360  12.527  0.0193 -0.0774 -0.0141
26388W        W41857  11.741  18.112   3.610  0.1684  0.0484 -0.0503
26389W        W41858   9.315   5.781   2.439  0.2467 -0.0735 -0.0654
26390W        W41859  15.578  13.236  14.849  0.0965 -0.1960 -0.1533
26391W        W41860   6.854   4.338   5.099  0.4322  0.2392 -0.0230
26392W        W41861   7.523  13.840  12.385 -0.4023 -0.1103 -0.1515
26393W        W41862   9.358   7.409   1.728  0.3008  0.1586  0.1651
26394W        W41863  12.529   4.868   0.235  0.0029  0.3342  0.1554
26395W        W41864  16.346   7.739  10.846  0.0880 -0.0730 -0.2598
26396W        W41865   9.546  10.962  15.206  0.1561  0.0994 -0.0766
26397W        W41866   8.104   1.566  11.374  0.3074  0.4757 -0.1191
26398W        W41867  10.074   1.377  12.198  0.3517 -0.2472  0.0419
26399W        W41868  12.859   9.604   0.159 -0.3448  0.2458 -0.2177
26400W        W41869  16.109   0.597   5.301 -0.1468 -0.0654 -0.2862
26401W        W41870   4.470  13.320  14.400  0.0761 -0.1195  0.0522
26402W        W41871   7.434   6.373   0.460 -0.2765 -0.1968  0.0549
26403W        W41872   3.975   8.810   3.157  0.0285 -0.0178 -0.3289
26404W        W41873   0.512   5.648  13.721  0.1165  0.0591  0.0417
26405W        W41874   5.978   0.681   4.847  0.3162 -0.3284  0.1405
26406W        W41875  18.353  14.446  11.811  0.1341 -0.2185  0.1284
26407W        W41876  13.583   9.164  14.050  0.2603 -0.0692  0.1373
26408W        W41877   9.462   5.292  10.625 -0.1236  0.0335  0.3394
26409W        W41878   5.510   9.026   0.920 -0.3948 -0.1500  0.0846
26410W        W41879   0.454   6.551  13.008 -0.2177  0.0866 -0.1829
26411W        W41880  11.285   6.556  13.641 -0.3448  0.0462 -0.1741
26412W        W41881   2.799   5.327   2.238  0.0927  0.0787 -0.1281
26413W        W41882   0.931   3.647  12.872  0.0086  0.0050 -0.2416
26414W        W41883  12.758  13.820   3.491 -0.0231 -0.1117 -0.0412
26415W        W41884   2.774  10.229   4.757  0.0288  0.1249  0.0391
26416W        W41885  12.822   6.133  13.963  0.1475  0.1195  0.2646
26417W        W41886  15.962   5.758  10.665  0.1269 -0.1060  0.1025
26418W        W41887  16.534   3.076  15.525  0.1901 -0.3576 -0.3028
26419W        W41888   1.419   5.719  15.284  0.1127 -0.4966  0.0092
26420W        W41889   0.104  15.350   6.392 -0.0872 -0.2776 -0.5679
26421W        W41890  16.097   0.565   0.942  0.0278 -0.0925 -0.1968
26422W        W41891  10.173  15.841  12.516  0.1976  0.2019  0.4913
26423W        W41892  12.264   3.229  15.579 -0.0665  0.1459 -0.2741
26424W        W41893   5.821  16.894  15.401  0.3135  0.3114 -0.1413
26425W        W41894   2.983   5.946   0.928  0.0326 -0.0907  0.0334
26426W        W41895  17.783   1.671  15.098  0.0468 -0.0219 -0.0734
26427W        W41896  12.738  10.247  15.130 -0.2639  0.0863 -0.1853
26428W        W41897   4.963   3.771   3.921 -0.2086 -0.1873  0.2221
26429W        W41898  11.021  10.161   0.691  0.1942 -0.3070  0.2630
26430W        W41899  17.284  17.421   3.958  0.1129  0.0118 -0.4617
26431W        W41900  12.474  11.252  15.605 -0.1564 -0.0497 -0.1890
26432W        W41901  10.478  15.516  11.364  0.0932  0.1883  0.3774
26433W        W41902  15.912  12.168  12.253 -0.1380 -0.2420 -0.2393
26434W        W41903  12.113  13.019  11.598 -0.1909  0.0032  0.0077
26435W        W41904  14.346  11.404  13.343 -0.1194 -0.2482 -0.2524
26436W        W41905   2.163   8.651  14.003 -0.1099 -0.0029  0.1087
26437W        W41906   4.461   1.497  10.970 -0.1568  0.0222 -0.1907
26438W        W41907   2.482   1.060  12.429 -0.0752 -0.1316  0.2632
26439W        W41908   4.298  17.113  11.097  0.2533 -0.0059  0.1136
26440W        W41909  10.092   7.151  14.470  0.0596  0.0466  0.0919
26441W        W41910   3.485   8.662   1.994  0.0181  0.2689 -0.1079
26442W        W41911  13.536  11.792  11.736 -0.0611  0.3290 -0.0095
26443W        W41912  15.224   3.896  10.821 -0.4198 -0.0965  0.0124
26444W        W41913  10.464  14.066   5.208 -0.2190 -0.1962 -0.0378
26445W        W41914   8.206  12.423   1.753 -0.0632  0.1684  0.2250
26446W        W41915   5.431  13.283   1.320  0.2933 -0.4523 -0.2961
26447W        W41916   2.333   9.376  11.058 -0.1544 -0.0357 -0.1180
26448W        W41917   7.945   2.993   3.173  0.1024  0.0476 -0.0764
26449W        W41918   2.035  17.303   4.474  0.0241  0.2161 -0.0194
26450W        W41919  18.179  12.533   2.042  0.0163 -0.1850  0.1362
26451W        W41920  12.251   0.207  15.103  0.2350  0.1637  0.0083
26452W        W41921   0.951   0.764   9.657 -0.3060  0.0459  0.0606
26453W        W41922   1.395  17.866  14.985  0.2952  0.0796 -0.2380
26454W        W41923   3.680  13.135   4.056  0.4207  0.1194  0.0773
26455W        W41924  16.232   6.649   3.270 -0.1304 -0.2195  0.1550
26456W        W41925   1.951   2.708   2.844  0.0078 -0.0490  0.1402
26457W        W41926  16.966  14.630  10.611  0.5440  0.0630 -0.1299
26458W        W41927   8.456  12.765   2.223  0.0591  0.0853 -0.2872
26459W        W41928   3.801  12.679  13.295  0.2862 -0.1081 -0.0206
26460W        W41929   0.518   7.294   1.212  0.3505 -0.0224  0.0294
26461W        W41930   4.468   5.505  12.172 -0.1251 -0.1439  0.0131
26462W        W41931   7.124   4.361  14.652 -0.0542 -0.0235  0.1070
26463W        W41932   1.347   8.872   0.442 -0.0155 -0.0820  0.3443
26464W        W41933  10.829   6.190   0.963  0.1103 -0.0999 -0.0958
26465W        W41934  13.039   5.269  10.693  0.0019 -0.0212  0.2094
26466W        W41935  15.497  10.112  10.840 -0.1591  0.5844 -0.3495
26467W        W41936  12.696   6.544  10.769  0.3593  0.1032  0.1375
26468W        W41937  13.639   7.382   5.386  0.2039 -0.2481 -0.1294
26469W        W41938  15.222  12.598   0.141  0.0489 -0.4657  0.1626
26470W        W41939  16.098   8.316  12.062  0.2330 -0.1702  0.1364
26471W        W41940  11.286   0.575   0.725  0.2124 -0.3128  0.1357
26472W        W41941   7.167   4.002   3.136  0.1385  0.0931 -0.0377
26473W        W41942  18.495   9.074   0.062  0.1240  0.1304  0.2448
26474W        W41943   9.014  12.854   3.575 -0.0687 -0.1960 -0.3340
26475W        W41944   6.795   3.565   1.215  0.0955 -0.1785 -0.2460
26476W        W41945  18.654  15.744   1.070 -0.2675 -0.2169 -0.0548
26477W        W41946   8.529   4.798  15.392  0.0650 -0.3102  0.0459
26478W        W41947  11.188  18.668   2.609 -0.1312 -0.0226 -0.1293
26479W        W41948   3.929   7.582  12.591 -0.1215 -0.0289  0.1040
26480W        W41949   5.232   2.304   1.276  0.0842  0.2666 -0.4604
26481W        W41950  10.390   2.400  13.746  0.1912  0.1703 -0.1141
26482W        W41951  10.191  18.559  11.314 -0.0286  0.0562 -0.2265
26483W        W41952   9.037   7.576   4.105  0.0137 -0.4002 -0.0568
26484W        W41953  13.926  10.290   4.752  0.1052 -0.0549 -0.0822
26485W        W41954   3.143  15.925   4.524  0.0205  0.1364  0.3661
26486W        W41955  10.416   0.734   2.836 -0.0860 -0.2990  0.2413
26487W        W41956  18.517  15.407   3.540 -0.2865  0.0125  0.0295
26488W        W41957   4.126  15.381  14.800  0.0669 -0.0412  0.4329
26489W        W41958  15.879  17.849   2.485 -0.1436  0.2026 -0.4869
26490W        W41959  16.917  12.360   5.278  0.0942  0.0123  0.1035
26491W        W41960   6.437  13.298  15.406 -0.1087  0.0100  0.0344
26492W        W41961   4.005  12.998  13.829  0.0950  0.4612  0.0644
26493W        W41962   4.254   4.253  11.603 -0.1290 -0.3613 -0.0212
26494W        W41963   3.210  18.057  13.405 -0.1938 -0.2446  0.3199
26495W        W41964   6.968   0.479  12.091  0.4614 -0.2300 -0.0765
26496W        W41965   6.455  16.756   3.683  0.5183  0.1891  0.0977
26497W        W41966  11.328  18.554   4.510 -0.0278  0.0959 -0.1097
26498W        W41967   6.678   9.915  13.908  0.2034  0.1284  0.0237
26499W        W41968  11.021   1.465   3.822 -0.1246 -0.2339  0.0603
26500W        W41969   4.603  15.770   3.209  0.3073  0.1377 -0.0567
26501W        W41970   9.380  18.727   3.534 -0.1113  0.2328  0.1142
26502W        W41971   1.623   1.628   0.689  0.1405 -0.0810  0.0626
26503W        W41972  18.749   3.705   4.515  0.1598  0.2549  0.3469
26504W        W41973   6.963  14.035   3.918 -0.4105 -0.1087 -0.1567
26505W        W41974   2.062   9.589   4.271 -0.1584  0.0894  0.0383
26506W        W41975  10.671   3.537   1.943 -0.2863  0.0036 -0.0326
26507W        W41976   4.782   3.326   4.662 -0.0365  0.5232 -0.0166
26508W        W41977  14.516  13.587  11.643 -0.0948 -0.1044  0.1741
26509W        W41978  18.222  12.932   3.864 -0.0411 -0.0072 -0.2738
26510W        W41979   7.588   9.237   9.338  0.2445 -0.0242  0.1591
26511W        W41980   0.446   9.197   2.603  0.2191  0.1936  0.3618
26512W        W41981   5.097   2.485   4.329 -0.0046 -0.0300  0.2065
26513W        W41982  11.763   9.804   3.192  0.2154 -0.0324  0.2528
26514W        W41983   0.022  18.441   3.881  0.0025 -0.0283  0.1932
26515W        W41984   7.139  18.699  14.119  0.0958  0.0003 -0.1107
26516W        W41985  16.337   0.568   1.737 -0.3853 -0.1723  0.1782
26517W        W41986  13.472  18.644  10.458  0.2212  0.1372 -0.2777
26518W        W41987   4.095   6.504  13.218  0.3484  0.4218  0.0979
26519W        W41988   6.618   5.904  11.957 -0.0678 -0.0039 -0.0785
26520W        W41989  14.629  11.565  13.823 -0.1844 -0.1183 -0.2014
26521W        W41990  12.464  15.391   1.992 -0.3731 -0.1498  0.0455
26522W        W41991   6.668   7.635  10.828  0.0513  0.1875 -0.0567
26523W        W41992  13.247   5.766  10.653 -0.2808  0.0338 -0.1273
26524W        W41993   4.758  16.490  12.307  0.2468 -0.2306  0.2281
26525W        W41994  13.141   4.094   4.577 -0.2206  0.0474  0.1321
26526W        W41995   4.424   4.397  14.083  0.0724  0.2110 -0.0787
26527W        W41996   7.021   7.579  13.593 -0.1782  0.1352 -0.0022
26528W        W41997   9.506  14.523  11.088 -0.1032 -0.0987 -0.0724
26529W        W41998   8.191  13.481  10.802  0.1012 -0.4521 -0.0889
26530W        W41999   7.843  10.640   0.208 -0.1584 -0.0650  0.2244
26531W        W42000   1.692  12.675   4.454 -0.0984 -0.0201 -0.3999
26532W        W42001   2.260   1.622  15.058 -0.5010  0.0081  0.1672
26533W        W42002   3.510   2.446  15.609 -0.1026  0.2793  0.1907
26534W        W42003   3.254  11.917   1.744  0.2005 -0.0551  0.0823
26535W        W42004  12.050  15.406  15.339  0.2962  0.0464  0.0229
26536W        W42005   6.709   1.091   5.217 -0.3607  0.1055 -0.0987
26537W        W42006   7.632  15.197   5.218 -0.0562 -0.3473  0.1452
26538W        W42007  11.903  18.618   2.302 -0.2661 -0.1587  0.0081
26539W        W42008  11.128   5.012   9.814  0.3434 -0.0215  0.1076
26540W        W42009  15.337  15.404  15.076 -0.0920 -0.0050 -0.1858
26541W        W42010   2.349   5.570   0.649  0.3048  0.2944 -0.1811
26542W        W42011  10.657   8.803  12.297  0.3879 -0.2492  0.2761
26543W        W42012  13.048   8.959   0.163 -0.1295  0.0894  0.1175
26544W        W42013   8.357   7.224  13.700  0.1478 -0.1801 -0.0341
26545W        W42014  12.327  13.466  15.480 -0.1141  0.0999 -0.0702
26546W        W42015   0.039   2.781  14.061  0.0310  0.2130 -0.0594
26547W        W42016  17.345   7.225   2.379  0.1528 -0.1804 -0.0168
26548W        W42017   4.589   4.635   2.817  0.1620 -0.0870  0.1009
26549W        W42018   1.215   6.695  14.166 -0.4062 -0.1846 -0.0223
26550W        W42019  15.102  15.863   2.457  0.0997 -0.1094  0.0313
26551W        W42020   8.692  13.723   3.708  0.0254  0.0294  0.1213
26552W        W42021   0.272   1.470   2.079  0.1038  0.0975 -0.1191
26553W        W42022  13.468   5.415  10.972 -0.0961  0.1078  0.4233
26554W        W42023   2.776  14.079   2.159  0.0685  0.1120 -0.0569
26555W        W42024   8.454  11.182  10.099 -0.2646  0.1030 -0.0775
26556W        W42025  12.390  16.177  14.271 -0.1297 -0.2448 -0.4109
26557W        W42026   7.768  17.495   1.616  0.1624  0.2453 -0.2519
26558W        W42027  14.343  11.904  14.621  0.2883  0.0714 -0.0865
26559W        W42028  15.449  15.015   2.263 -0.2265  0.3137 -0.0176
26560W        W42029   7.210  15.386   0.465  0.0671  0.1645 -0.0427
26561W        W42030   7.163  17.286  11.067  0.1584 -0.0760  0.4504
26562W        W42031   6.757  12.190   4.624 -0.3182 -0.0327  0.3147
26563W        W42032  10.412  14.276   2.311  0.1650 -0.2813  0.3252
26564W        W42033  10.551  12.615   4.210 -0.1354  0.1263 -0.3817
26565W        W42034  14.281   8.219   5.144 -0.0841 -0.0700 -0.0467
26566W        W42035   9.505   7.551   5.741 -0.1176  0.2725 -0.2606
26567W        W42036  10.503  15.482   1.430  0.1018  0.0228 -0.2079
26568W        W42037  12.309  15.550   4.663 -0.1773 -0.1917 -0.1945
26569W        W42038   1.754  16.245   0.831 -0.0131  0.0570 -0.1226
26570W        W42039   1.245   6.542  10.638  0.0037  0.2086 -0.1228
26571W        W42040   9.495   5.402   1.743  0.1827 -0.3507  0.0843
26572W        W42041  14.974  16.534   3.666  0.1452  0.1444  0.0260
26573W        W42042   0.508  12.886  14.579  0.0423 -0.1300  0.1074
26574W        W42043  18.015   7.262  13.040 -0.1368 -0.2260  0.3642
26575W        W42044   0.298  16.907   0.052  0.1349 -0.3809  0.1894
26576W        W42045  11.771  13.258  10.602 -0.1629  0.3590  0.1605
26577W        W42046  14.678  15.810   1.552  0.3545  0.0520  0.0177
26578W        W42047  16.023  12.410   1.016  0.1809 -0.1637 -0.2682
26579W        W42048   8.556   6.640   1.284  0.1291  0.4521  0.2354
26580W        W42049   1.901  17.966  15.168 -0.1009  0.2786 -0.2640
26581W        W42050   5.021   2.979   4.265  0.1421 -0.1779  0.0642
26582W        W42051  12.530  12.556   4.532 -0.0528 -0.2231 -0.4204
26583W        W42052  11.567   6.908  10.939 -0.3720  0.0890  0.2110
26584W        W42053   9.632   7.025  15.647 -0.0234 -0.3136  0.0948
26585W        W42054   1.898  11.951  13.568 -0.1642  0.0389 -0.0487
26586W        W42055   6.997   5.886   2.964 -0.1671 -0.2120 -0.2556
26587W        W42056  11.360   4.554  11.515  0.4313  0.1701  0.4340
26588W        W42057  13.131   8.036   2.194  0.0946 -0.2702 -0.1950
26589W        W42058  17.434   7.813   2.544 -0.0615  0.1712 -0.0217
26590W        W42059  11.366  18.759  12.146  0.1343 -0.0487 -0.0986
26591W        W42060  17.999   9.180   0.274 -0.1426  0.1752 -0.2420
26592W        W42061   3.395  12.638   5.337 -0.2208  0.3076 -0.2351
26593W        W42062   8.473   6.896   4.503  0.2141 -0.1667  0.4526
26594W        W42063   0.276   5.532   3.720 -0.2046 -0.3237  0.4360
26595W        W42064  13.067   3.343  14.979 -0.1635  0.2901 -0.3046
26596W        W42065   4.680   3.758   5.995  0.1632 -0.0472 -0.1208
26597W        W42066  15.704   1.776   0.845  0.0450 -0.0628 -0.0842
26598W        W42067  11.799  14.762   5.382  0.0960 -0.1158 -0.4043
26599W        W42068  14.022  12.709   2.380  0.0457 -0.1572 -0.1879
26600W        W42069   3.667   7.456  11.634 -0.2458 -0.1001  0.2002
26601W        W42070  16.034  16.500  12.113  0.1626  0.1046  0.3424
26602W        W42071  10.596   4.073  11.684  0.1449  0.1637  0.1683
26603W        W42072  15.820  16.724  15.623  0.3697  0.0674 -0.2832
26604W        W42073   3.320  15.875  15.052  0.2393  0.0454 -0.0247
26605W        W42074  17.169  11.121   4.864 -0.1248  0.2466  0.2709
26606W        W42075   1.811  15.382   0.858 -0.2020  0.2246 -0.0743
26607W        W42076  12.736  13.927  14.758  0.0511  0.2858 -0.0160
26608W        W42077   8.492   3.632   0.266 -0.1564  0.1157 -0.0765
26609W        W42078   9.146  17.646   2.105 -0.0256  0.0884  0.1289
26610W        W42079   5.836   0.254  10.595 -0.0370 -0.0270  0.3318
26611W        W42080  13.566   1.760   9.910 -0.0152  0.1295  0.3707
26612W        W42081  17.871   3.238  14.003 -0.1339  0.1830 -0.1100
26613W        W42082   7.619   6.984   0.231  0.0343 -0.1742 -0.0570
26614W        W42083   9.617   2.930  14.666  0.0384 -0.2344 -0.0390
26615W        W42084  16.004   7.949  11.778 -0.2703  0.0192  0.1246
26616W        W42085   0.308  17.231  15.073  0.1301  0.0554 -0.0291
26617W        W42086  14.379   9.089  15.196 -0.1193 -0.2657 -0.2433
26618W        W42087  18.249   3.740   0.752  0.2411  0.0268  0.0267
26619W        W42088  15.075  12.230  11.737 -0.1225  0.0754  0.1119
26620W        W42089   7.967  11.498   4.800  0.1358  0.1701  0.1615
26621W        W42090  17.596   7.316   3.277  0.0164  0.1339 -0.2736
26622W        W42091   9.760   4.901   5.266  0.0215  0.0151  0.0772
26623W        W42092   6.480   2.677  15.062 -0.1567 -0.3763  0.2194
26624W        W42093  14.853  11.237   2.500  0.4135 -0.2137  0.2013
26625W        W42094  16.750  18.082   2.109 -0.1630 -0.0693  0.0811
26626W        W42095  15.047  10.105  10.568 -0.0608  0.6758 -0.3051
26627W        W42096   9.618  14.423   4.921 -0.2111 -0.0316 -0.0356
26628W        W42097  13.085   8.100  11.750 -0.2879 -0.3703  0.2433
26629W        W42098   7.413  17.824  12.928 -0.1674  0.0954 -0.0221
26630W        W42099  14.988   6.650  12.180  0.0653  0.3054  0.1991
26631W        W42100   4.894  14.956  12.448 -0.1059 -0.1034 -0.0379
26632W        W42101  16.199  11.227  13.992 -0.2899 -0.1310 -0.2524
26633W        W42102  15.039  12.398   3.707 -0.2626 -0.1359 -0.1693
26634W        W42103  17.706   2.545  14.786  0.0399 -0.0356 -0.1210
26635W        W42104   2.563  14.007  11.396 -0.0793 -0.1169 -0.0317
26636W        W42105  17.121  14.179   5.731 -0.2859  0.0746 -0.3362
26637W        W42106  12.942   4.845   0.591  0.0393  0.2435 -0.4215
26638W        W42107  11.356  12.471  13.071 -0.1980 -0.2141 -0.2210
26639W        W42108   5.552  15.253  13.545 -0.1743  0.0726 -0.1348
26640W        W42109   7.132   3.225  11.612 -0.0434  0.0527  0.1687
26641W        W42110   9.067  10.952  10.568 -0.0048 -0.0434  0.5333
26642W        W42111   0.046   0.294  11.939  0.1559  0.1131 -0.4157
26643W        W42112  13.448   4.557   0.412  0.1142 -0.1902  0.1038
26644W        W42113  10.627   1.511   5.168  0.0999  0.0567  0.4736
26645W        W42114   3.211   4.084  11.697 -0.2256  0.2920 -0.0159
26646W        W42115  13.537  13.785   1.121 -0.1605 -0.0446 -0.1503
26647W        W42116  12.381  17.266  15.617  0.1445 -0.1030  0.1272
26648W        W42117  15.964  17.726   1.355 -0.2429  0.0407  0.1282
26649W        W42118  15.935   3.056  11.728  0.0641 -0.1693 -0.0560
26650W        W42119   2.829  11.301  14.569 -0.0947  0.0591 -0.0780
26651W        W42120   3.633   9.062   1.667  0.2064  0.2042  0.1630
26652W        W42121  12.572  18.140  13.666 -0.1358 -0.2180  0.2592
26653W        W42122   0.955  14.409  13.807  0.1808  0.1221 -0.0763
26654W        W42123  10.532  10.075   2.372  0.3111  0.1579  0.0377
26655W        W42124  10.514  11.448  11.276  0.0731 -0.0879 -0.1153
26656W        W42125  14.462   5.556   1.132  0.1350 -0.3296 -0.1887
26657W        W42126   6.929   7.457  10.388 -0.1942  0.0863 -0.0707
26658W        W42127   2.207  17.927  11.730  0.3031 -0.0506 -0.1351
26659W        W42128   4.479   7.720   3.360  0.3921 -0.1407  0.2046
26660W        W42129  15.566   3.183   2.577 -0.2319 -0.4899 -0.2197
26661W        W42130   5.819  16.372  15.668  0.3716 -0.2249 -0.1624
26662W        W42131  12.830   9.343  14.952 -0.1731 -0.2564 -0.4538
26663W        W42132   9.275  13.995  10.946  0.2098 -0.0560  0.1171
26664W        W42133  14.181   5.094   5.353 -0.1463  0.1033  0.1550
26665W        W42134   3.905   8.524  12.415 -0.1828  0.3497 -0.1614
26666W        W42135  16.570   1.963   2.630  0.0285  0.1452 -0.0818
26667W        W42136   5.724   5.999  14.876 -0.1544  0.0105  0.1296
26668W        W42137  11.976  13.912  15.649 -0.0125  0.0192  0.0983
26669W        W42138   8.890   6.458  12.545  0.1283 -0.1133  0.1478
26670W        W42139   1.975   7.547  13.874  0.2267 -0.1057 -0.0373
26671W        W42140  17.635   0.990   2.007 -0.1659  0.3150  0.1750
26672W        W42141  14.124  17.504  13.446  0.0978  0.0826 -0.1088
26673W        W42142   9.066  15.058  12.383  0.2278 -0.0606 -0.2154
26674W        W42143   3.348  17.754   3.464 -0.1392 -0.0445  0.0291
26675W        W42144   6.539   4.795  14.322 -0.4218 -0.2931  0.1707
26676W        W42145  12.286   6.251  13.601  0.1806  0.0383  0.2043
26677W        W42146   8.525   5.690   4.736 -0.1872 -0.1538  0.0354
26678W        W42147   3.755  15.180   4.192 -0.2996 -0.1448  0.3112
26679W        W42148   8.220  11.933   0.879 -0.1152 -0.1583  0.2670
26680W        W42149  14.117  18.075  14.297  0.0486 -0.2963  0.0272
26681W        W42150   5.517   1.109  15.418  0.1450  0.1093 -0.4266
26682W        W42151   5.633  13.766  13.572  0.0271  0.1473  0.1849
26683W        W42152   1.826  11.986   2.540  0.2348  0.2346  0.3639
26684W        W42153   4.176  11.266  14.710  0.0667  0.1452 -0.1141
26685W        W42154   3.961   5.002  12.097  0.4037  0.0054 -0.4905
26686W        W42155  14.341  13.232  14.685 -0.3064  0.1184 -0.1453
26687W        W42156  18.270  15.297   4.428  0.3481  0.3605  0.4026
26688W        W42157   7.046  11.350   4.108  0.1523 -0.0197  0.2740
26689W        W42158  13.497  14.945  13.371  0.1486 -0.0445 -0.1164
26690W        W42159  17.936  17.629  14.496  0.1292  0.0535 -0.1327
26691W        W42160  10.251   5.678  13.142  0.0212 -0.0735  0.5734
26692W        W42161   1.368   8.418  10.839  0.0497 -0.0054  0.1504
26693W        W42162   7.071  16.738   4.292 -0.3435  0.0819 -0.1380
26694W        W42163  18.495  17.329  14.821 -0.1237 -0.1156 -0.0340
26695W        W42164  16.388  14.198   1.689 -0.1415 -0.1123 -0.4027
26696W        W42165   5.031   4.110   5.287 -0.0009 -0.3331 -0.0256
26697W        W42166   6.804  18.188   4.814  0.0925  0.2039  0.1271
26698W        W42167   1.895   6.164   4.088 -0.0756  0.3836 -0.2276
26699W        W42168   2.388  15.424   2.014  0.0011  0.4476 -0.0662
26700W        W42169   8.789   1.137   2.396 -0.3246 -0.1283 -0.1326
26701W        W42170   9.110  12.225   4.911 -0.1219 -0.0273  0.1223
26702W        W42171   0.117   7.801   3.617  0.1028  0.0818 -0.0379
26703W        W42172  10.386   7.599  14.547 -0.0529 -0.1233 -0.2066
26704W        W42173  10.494   4.844   3.132  0.1956 -0.1959  0.1357
26705W        W42174   0.135   9.451  11.482  0.0937 -0.1455 -0.3268
26706W        W42175   0.962  18.482  15.358  0.0414 -0.0329  0.1450
26707W        W42176  11.685   6.001   3.238  0.2823  0.0909 -0.0825
26708W        W42177  15.143   0.309   0.370 -0.1096  0.0059  0.0121
26709W        W42178  10.306   4.750  11.224 -0.1792  0.0597 -0.1982
26710W        W42179   0.048   4.593  11.992  0.2495  0.2873 -0.0243
26711W        W42180  17.464   0.159  14.648 -0.0985 -0.2878 -0.0563
26712W        W42181  10.178  15.932   0.036 -0.0340  0.2553  0.0628
26713W        W42182  10.975   3.662   1.023 -0.1970  0.3959 -0.1493
26714W        W42183   1.949   0.669   3.775  0.1257  0.0320 -0.1743
26715W        W42184  17.219  17.184  13.240 -0.4057 -0.0694  0.1242
26716W        W42185   3.732   9.600   9.470 -0.3107 -0.1203  0.1974
26717W        W42186   9.442  14.258  14.093 -0.1194  0.0614  0.2423
26718W        W42187   6.026  14.947   3.961 -0.1538 -0.4555  0.2512
26719W        W42188   4.939   7.593   3.225 -0.2524  0.2407 -0.0705
26720W        W42189   1.272   9.865  10.999 -0.4769 -0.1612 -0.0611
26721W        W42190   2.210   0.220   4.574  0.0292  0.0785 -0.2936
26722W        W42191   0.396   9.371  13.571 -0.0191  0.1000 -0.0285
26723W        W42192   3.462   7.196  15.334  0.0869  0.1313 -0.0457
26724W        W42193   7.731   5.784  13.686 -0.0426 -0.2139 -0.2346
26725W        W42194  14.382  17.733   4.079 -0.2552 -0.0332 -0.1027
26726W        W42195   0.220  15.920   6.193  0.0450  0.1821  0.1264
26727W        W42196   6.823   7.668   9.904  0.0201  0.1291  0.0741
26728W        W42197   3.609  16.821  13.374 -0.1608  0.0810  0.1784
26729W        W42198  15.102   9.118  10.896  0.1460 -0.2606 -0.4220
26730W        W42199   0.465  10.976   5.061  0.1070  0.0779 -0.1934
26731W        W42200   5.894   6.083  10.229  0.0137 -0.0683  0.1011
26732W        W42201   9.187   9.776   3.569  0.1011 -0.1019  0.3645
26733W        W42202  11.450   2.348   1.106  0.0710 -0.0632  0.0270
26734W        W42203  12.720   1.337   1.546  0.2677 -0.2501 -0.1794
26735W        W42204  16.759  15.257   4.483  0.0774 -0.4294  0.0632
26736W        W42205   4.913  12.615  11.793 -0.0767  0.0825 -0.0163
26737W        W42206   5.485   9.966   4.115 -0.0013  0.0407  0.0836
26738W        W42207   5.126  15.521  13.420  0.0729  0.2773  0.0370
26739W        W42208  10.010   7.427   2.967  0.1580 -0.3171  0.0781
26740W        W42209   3.265   4.183   0.493  0.0938 -0.0756 -0.1713
26741W        W42210   9.628   8.497  15.185  0.1437  0.3348  0.1993
26742W        W42211  17.201   2.621   4.669 -0.1245  0.3744  0.1009
26743W        W42212   1.128   5.072   2.138 -0.1537  0.2328 -0.1047
26744W        W42213  11.426  13.519   4.575 -0.0681 -0.1306 -0.0147
26745W        W42214  16.373  17.123  13.426  0.1964 -0.1347  0.4785
26746W        W42215   9.093  15.156  13.275  0.1700 -0.4232 -0.1376
26747W        W42216  10.617  16.637  10.589  0.0330  0.0416 -0.0889
26748W        W42217   5.029   2.116  13.602  0.3405  0.2706 -0.1525
26749W        W42218  11.320   0.539  15.441 -0.1625  0.2291 -0.0102
26750W        W42219   8.213  15.217  13.917 -0.0294 -0.2878 -0.1440
26751W        W42220   4.057   9.676   2.286 -0.0136  0.3260  0.0068
26752W        W42221   1.034  10.713  10.769  0.2496  0.1841 -0.1028
26753W        W42222   0.896  11.667   6.215 -0.0082 -0.4973 -0.1141
26754W        W42223   8.600  17.321   9.404 -0.2010  0.0893 -0.0489
26755W        W42224  10.783   7.634  12.890 -0.0785  0.0605  0.0720
26756W        W42225   4.911   4.209   4.780  0.1699  0.1908 -0.3031
26757W        W42226   1.922  16.342  11.911 -0.1375 -0.0415 -0.0545
26758W        W42227  14.882   6.528   4.466  0.0558 -0.0275 -0.3238
26759W        W42228   4.556   7.691  10.830  0.0549 -0.0904  0.0261
26760W        W42229  11.919  12.474  10.342 -0.1438  0.1179 -0.0597
26761W        W42230   8.410   9.394  11.716 -0.0789  0.0324 -0.1598
26762W        W42231   1.509  14.136   2.879  0.1093 -0.1015 -0.2935
26763W        W42232  10.854   8.662   3.054  0.1372  0.0906  0.2017
26764W        W42233  13.575  15.546   1.191  0.0711  0.0590 -0.4205
26765W        W42234  15.151  17.397   3.990 -0.1054  0.1000  0.0490
26766W        W42235   6.237  18.329  14.990  0.1205 -0.3217 -0.4888
26767W        W42236   0.949   3.922   5.700 -0.1302 -0.0996  0.1041
26768W        W42237   7.077  14.279   1.107 -0.1953 -0.1091 -0.0407
26769W        W42238  12.191   7.190  13.270  0.2699  0.1790 -0.0139
26770W        W42239  10.358   6.604   1.086 -0.0085  0.0112 -0.0221
26771W        W42240   1.667  17.791   3.424 -0.2346 -0.2106 -0.0112
26772W        W42241  18.485   4.343  13.790  0.3352 -0.0383 -0.1248
26773W        W42242   1.470   3.382   2.302  0.4690 -0.0928 -0.0680
26774W        W42243  10.207  13.251   1.145 -0.4148 -0.0730  0.2420
26775W        W42244   1.335   1.766  10.523  0.0180 -0.6232  0.2876
26776W        W42245  11.631   8.920   0.565 -0.1519 -0.1965  0.1250
26777W        W42246  10.626  18.399   3.938  0.0500  0.0895 -0.1623
26778W        W42247   4.421  13.879   1.300  0.3700 -0.1095  0.0710
26779W        W42248   1.411  18.358  12.249  0.0046 -0.2025  0.0959
26780W        W42249   3.136  16.968   0.214 -0.0081  0.4300  0.1725
26781W        W42250   0.747  18.161   2.233  0.2113 -0.0600 -0.4392
26782W        W42251  13.154   8.854  13.249  0.4097  0.2782  0.0219
26783W        W42252  11.326   5.950   2.620 -0.2501 -0.1167 -0.2313
26784W        W42253  12.791   9.466  11.529  0.2858  0.0944  0.0834
26785W        W42254   2.085   7.656  14.382  0.2276 -0.0752  0.2104
26786W        W42255  11.384  11.138   0.378  0.0134 -0.1761 -0.2169
26787W        W42256  18.622  18.137  14.054 -0.0783 -0.0370 -0.3245
26788W        W42257   8.840  17.242   0.033  0.1476 -0.2773  0.2126
26789W        W42258   9.462  15.033   2.770 -0.2355 -0.0262 -0.1301
26790W        W42259   1.251   3.713   4.691 -0.0017 -0.1396  0.0633
26791W        W42260  13.327   3.131  11.742 -0.0966  0.4053  0.5033
26792W        W42261  12.328   9.167   5.255 -0.2023 -0.2593  0.2023
26793W        W42262  18.292   1.635  15.276 -0.3336 -0.2458 -0.0636
26794W        W42263   1.987   5.489   1.897 -0.2746 -0.0863  0.0834
26795W        W42264  14.559   0.002   3.627  0.2979 -0.1110  0.0540
26796W        W42265   4.072   6.367  10.727  0.2758  0.1595 -0.1022
26797W        W42266  10.199   1.349   1.756  0.1624  0.0263  0.2025
26798W        W42267  17.227   6.329  13.347 -0.1783 -0.1636 -0.4371
26799W        W42268   8.294   9.382   4.412 -0.1745 -0.0998 -0.1558
26800W        W42269  14.120  13.358   3.820 -0.1034  0.0056 -0.1295
26801W        W42270   7.642  13.700   2.796 -0.0950  0.2048  0.0082
26802W        W42271  16.599  18.585   3.535  0.1668 -0.0304  0.0660
26803W        W42272   8.048   4.952   2.038 -0.0408  0.0270 -0.4342
26804W        W42273  11.362   7.047  12.404  0.0150  0.1094  0.0571
26805W        W42274  18.404   3.848   2.459 -0.3635  0.0355  0.1231
26806W        W42275  11.660  13.961   1.279 -0.1201  0.1093 -0.0765
26807W        W42276  17.816  13.512   1.174 -0.1378  0.1454 -0.1185
26808W        W42277  12.580   7.211  12.126 -0.0332 -0.2670  0.1618
26809W        W42278   0.734   3.792   3.956 -0.3030  0.2144 -0.0233
26810W        W42279  17.809  13.785  15.447 -0.4164  0.1269 -0.3364
26811W        W42280   1.099  17.671  14.629 -0.3731 -0.2207  0.2161
26812W        W42281   4.057   7.278   0.244 -0.4295  0.0583  0.0481
26813W        W42282  16.443   1.481  14.769  0.2341  0.1632  0.0325
26814W        W42283  11.362  16.355   0.939  0.1189 -0.1133 -0.2360
26815W        W42284   6.927   6.903  15.372 -0.0122  0.1341  0.0644
26816W        W42285  18.335   8.746  11.663  0.1419  0.4624 -0.0983
26817W        W42286  15.455   3.890  10.333  0.1582 -0.0494  0.3859
26818W        W42287   4.065   3.057   4.981  0.2404 -0.2961 -0.3870
26819W        W42288   6.069   4.713   2.751  0.2545  0.0921  0.1971
26820W        W42289   9.097  16.862  15.465 -0.1563 -0.0746  0.2870
26821W        W42290  14.254  13.936  15.137 -0.0774 -0.0897 -0.1213
26822W        W42291  16.045   4.997   1.602  0.0117  0.1467  0.0503
26823W        W42292  18.234   2.104  11.180  0.2318  0.1953  0.3495
26824W        W42293   7.718  13.376  12.235  0.1181 -0.1740 -0.2954
26825W        W42294  11.693   1.337  11.869 -0.1321 -0.0444  0.0768
26826W        W42295   0.214   7.948  11.758  0.1935  0.0812  0.2191
26827W        W42296  15.989  11.082   1.784 -0.2398 -0.0603  0.0560
26828W        W42297   3.598  11.676   3.756  0.2552  0.1484 -0.0481
26829W        W42298  14.947  10.128  10.022 -0.2415  0.2130  0.1382
26830W        W42299  14.440   4.455   0.338  0.1070  0.2070  0.0732
26831W        W42300  10.876  15.906   4.153  0.0331  0.2754  0.1372
26832W        W42301   4.631   4.213   3.065  0.1834  0.1175  0.1317
26833W        W42302   7.220  11.125  15.258  0.1048 -0.2046  0.1246
26834W        W42303  12.165   9.427   4.348  0.2764 -0.1222 -0.0070
26835W        W42304   2.294   1.660   3.883 -0.0209  0.0486  0.0586
26836W        W42305  13.674  16.761   1.487  0.0630 -0.0275  0.0201
26837W        W42306  18.668   5.297  15.210  0.0029  0.3106 -0.2568
26838W        W42307   2.966   9.958   1.070 -0.0183 -0.2960  0.1484
26839W        W42308  16.855  16.689  14.557 -0.0270  0.1387  0.0787
26840W        W42309   0.123   2.577   3.183  0.1989  0.2759  0.3517
26841W        W42310  17.611   0.712   3.627 -0.6652  0.3208 -0.0120
26842W        W42311   1.972   1.549   1.140  0.1090 -0.2239  0.0900
26843W        W42312   7.225   6.644  13.760 -0.0563  0.6957  0.5051
26844W        W42313  13.612  11.530  12.196  0.3408 -0.0626  0.0267
26845W        W42314   8.832  18.337  12.823  0.2035 -0.2483  0.1790
26846W        W42315   0.100  13.101   4.719  0.0668 -0.0275 -0.0010
26847W        W42316  17.348   4.132  15.355 -0.1924 -0.0361 -0.1425
26848W        W42317   8.478   8.425  11.919 -0.1644  0.0598 -0.1696
26849W        W42318  15.411   0.278  14.057  0.0459 -0.3500  0.1615
26850W        W42319   8.482   0.257   2.017  0.0992  0.3643  0.1830
26851W        W42320  15.726   4.199   5.149  0.0039 -0.0901 -0.1492
26852W        W42321  16.882   3.390   3.536  0.0298 -0.2189  0.0414
26853W        W42322  15.421   5.864  10.587  0.0515 -0.0817 -0.0175
26854W        W42323   1.959  17.594  12.099 -0.0536 -0.1138  0.0928
26855W        W42324   4.384   6.729  14.191  0.3243  0.2695 -0.2729
26856W        W42325   8.042   4.133   5.568  0.0237  0.0910 -0.0253
26857W        W42326   5.042   3.418   2.090  0.0999 -0.3910  0.1220
26858W        W42327   9.264   0.248   0.580  0.1639  0.2587 -0.1781
26859W        W42328   5.454  13.567   3.433  0.0613 -0.0121  0.1203
26860W        W42329   7.611  15.711  14.332 -0.0644  0.1143 -0.1578
26861W        W42330   1.319   3.049  13.075  0.0203 -0.0145  0.1110
26862W        W42331   3.860  12.200   2.903 -0.0854  0.0171 -0.0274
26863W        W42332   7.603   7.598  15.180 -0.0813  0.0062 -0.2513
26864W        W42333   7.595  11.184   0.680  0.1025  0.0937  0.0672
26865W        W42334  10.903   2.407   2.969  0.0251 -0.0416 -0.4418
26866W        W42335   5.464   0.263  13.717 -0.0019 -0.0518 -0.2923
26867W        W42336   6.282  15.747  12.673  0.1385  0.1607  0.0808
26868W        W42337  14.405   0.396   0.747  0.0368 -0.0942  0.0588
26869W        W42338  12.642  14.214   0.785  0.0832  0.0307  0.0303
26870W        W42339  17.966   3.128  15.451  0.0820  0.0526  0.1610
26871W        W42340   6.034  14.485  11.498 -0.0277 -0.0071 -0.4106
26872W        W42341  16.137  11.095   0.815 -0.1785 -0.1368  0.0011
26873W        W42342   6.533   7.218  12.843  0.1056 -0.3599 -0.1947
26874W        W42343   0.346   3.789   1.341  0.3113  0.1708 -0.0806
26875W        W42344   9.673   9.850  14.726 -0.3002 -0.0602 -0.1695
26876W        W42345   4.939   8.803  14.589 -0.4776 -0.3527 -0.3747
26877W        W42346  17.749   0.186   1.832 -0.1220  0.1555 -0.1198
26878W        W42347   1.155   0.697   1.127  0.2863  0.1541  0.4402
26879W        W42348   9.523  16.348  15.100 -0.2313 -0.2026 -0.1274
26880W        W42349  13.999  15.823  11.688 -0.0364  0.0116 -0.2453
26881W        W42350   6.154   5.722   3.462  0.2429  0.1086 -0.1690
26882W        W42351   8.666   1.712  12.857  0.2237  0.1955 -0.4662
26883W        W42352   5.393   3.986   2.643  0.3591 -0.1005  0.1440
26884W        W42353  16.143  14.700   1.696  0.2502  0.1116  0.1287
26885W        W42354   6.243  14.339  11.977 -0.0767 -0.2558  0.1026
26886W        W42355  10.336  11.189  14.889 -0.1793  0.0732 -0.1008
26887W        W42356  16.664  13.713   2.376 -0.1791  0.2775 -0.3120
26888W        W42357   9.499   0.908  13.719  0.2855 -0.0947 -0.1047
26889W        W42358   0.423  14.089   5.533  0.1775 -0.2911  0.1186
26890W        W42359   1.240  13.102  14.916 -0.1137  0.0053 -0.0546
26891W        W42360  18.620  11.062   5.279 -0.4292 -0.0165  0.0321
26892W        W42361  11.771   2.184   0.710 -0.0733 -0.1161 -0.0404
26893W        W42362   6.939  14.106  11.169 -0.0730  0.1863 -0.0263
26894W        W42363  17.758   2.721   2.689  0.0037  0.0715  0.0830
26895W        W42364  11.731  16.929  14.549 -0.0385  0.0144  0.2059
26896W        W42365  18.350   8.199   0.105  0.0067  0.1945 -0.3564
26897W        W42366   8.910   1.339   1.427  0.1995  0.2135 -0.0807
26898W        W42367  14.938   9.071  13.183 -0.0588  0.2871  0.2114
26899W        W42368  16.253  11.998   1.822  0.1420  0.0983  0.2309
26900W        W42369  18.687  12.021   4.038  0.1471  0.2042 -0.2194
26901W        W42370   8.649   5.031   0.209 -0.2581 -0.1667  0.2565
26902W        W42371   0.360   0.824   1.962 -0.2915  0.1884 -0.3913
26903W        W42372  11.249   9.262  12.841 -0.0498 -0.1368  0.0844
26904W        W42373  12.439   9.221  13.962 -0.1166  0.1932  0.5355
26905W        W42374   8.203  10.259  11.810 -0.0253 -0.1191 -0.0723
26906W        W42375  14.706   2.882  12.589  0.3374  0.0694 -0.0123
26907W        W42376  12.564   8.921  14.521  0.2151 -0.0561  0.3036
26908W        W42377  11.309   2.083   3.905 -0.1569  0.3504  0.1186
26909W        W42378  12.653  17.111  11.519  0.1524  0.0597 -0.1167
26910W        W42379   0.785  14.043  14.128  0.1898  0.2341 -0.1013
26911W        W42380   7.272  10.739   0.590  0.1355 -0.3533  0.3579
26912W        W42381   2.552  14.774  15.477 -0.1256  0.1275  0.2015
26913W        W42382  16.786   8.472  14.466 -0.0537  0.1902  0.1714
26914W        W42383  17.520   1.171  11.116 -0.0324 -0.1935 -0.0287
26915W        W42384  13.759  18.662  13.210 -0.2205  0.2206 -0.2296
26916W        W42385  11.467   1.541  12.291  0.0399  0.2809 -0.0868
26917W        W42386  12.815   4.405  11.136 -0.3176 -0.0737 -0.0132
26918W        W42387   8.832   0.309   2.860  0.1638 -0.0652  0.1037
26919W        W42388  11.728   9.175   6.047 -0.1424  0.3476 -0.1434
26920W        W42389   8.387   7.386  10.374  0.1841  0.3027 -0.0879
26921W        W42390  15.536  11.429   5.362  0.1800  0.3349  0.0184
26922W        W42391   6.072   9.175   4.273 -0.1990 -0.0457  0.0251
26923W        W42392   3.511  14.415  15.557 -0.2203 -0.0536 -0.4168
26924W        W42393  16.143   2.061  14.390  0.3683  0.0510  0.1894
26925W        W42394   8.471  10.196   5.153 -0.0184 -0.0458  0.0220
26926W        W42395  13.114  11.815  11.313 -0.2853 -0.1908 -0.0357
26927W        W42396   4.920  13.659   4.526 -0.1056  0.2051  0.1356
26928W        W42397  12.582   0.745   0.087  0.1738  0.2768 -0.2205
26929W        W42398   8.449   4.744   4.424 -0.1420  0.1622 -0.0859
26930W        W42399   1.185   7.716  14.620 -0.2248 -0.0730  0.0744
26931W        W42400  18.033   1.506   3.743 -0.2062  0.1868 -0.0192
26932W        W42401   6.571  17.021   2.413  0.0883 -0.1349  0.4307
26933W        W42402  15.742   2.577   0.489 -0.2061 -0.2591  0.4351
26934W        W42403   9.635   5.729  12.354 -0.2386 -0.0821  0.2765
26935W        W42404  15.009  12.317   4.808  0.1787  0.1036  0.1393
26936W        W42405   0.409  13.957   4.814 -0.1127 -0.0255 -0.0853
26937W        W42406  12.168   5.010   5.193  0.1444  0.0638  0.1066
26938W        W42407   0.532  11.297   9.734  0.0627 -0.2612 -0.1252
26939W        W42408   2.587  13.353  15.576 -0.1234  0.1295  0.0492
26940W        W42409  17.607  15.842   3.943 -0.5772 -0.0771  0.1849
26941W        W42410   8.565   6.344   6.022 -0.1376  0.2152 -0.0589
26942W        W42411   9.315   4.164  12.705 -0.3297 -0.0725  0.0030
26943W        W42412  18.242   9.084   3.238  0.1004  0.2072 -0.0277
26944W        W42413   5.780   6.217  15.359  0.2739 -0.3015 -0.1445
26945W        W42414   4.239   3.645   5.354  0.2042  0.6373 -0.1147
26946W        W42415   2.320  15.112  12.371 -0.0922  0.0942 -0.0256
26947W        W42416  11.037  13.110  13.926  0.3132  0.3054 -0.0113
26948W        W42417   6.730   2.836   2.466  0.2510 -0.0103 -0.0448
26949W        W42418   0.612  18.679  11.116  0.1127 -0.0345  0.1836
26950W        W42419   4.175  10.518   4.468 -0.1230 -0.0415 -0.0228
26951W        W42420  12.824   9.448   3.572  0.3384  0.0640  0.1154
26952W        W42421  14.193   4.225   5.243 -0.3401 -0.0027  0.2250
26953W        W42422   9.628  18.015  15.149  0.2499  0.2703 -0.0027
26954W        W42423   7.460  16.932  14.339 -0.0671  0.0831  0.2016
26955W        W42424  15.291   2.497   5.395 -0.1113  0.0243 -0.1339
26956W        W42425   7.735  17.332   0.203  0.1384 -0.3521  0.3221
26957W        W42426  15.807   6.485   4.106 -0.2019  0.0362  0.0584
26958W        W42427   4.434   9.069   9.865  0.0254 -0.2305 -0.2544
26959W        W42428   0.422   8.437   3.039  0.1222 -0.0989 -0.0698
26960W        W42429   4.673  13.870   4.060  0.1593  0.0958 -0.0842
26961W        W42430   8.442   9.097  14.085  0.3510 -0.0690  0.0119
26962W        W42431   5.269   1.739   5.777 -0.2546 -0.3930 -0.1962
26963W        W42432   5.051  10.558  11.338 -0.1211  0.1202  0.1166
26964W        W42433   0.369  13.860  12.122 -0.0758  0.1298 -0.2278
26965W        W42434  13.554   3.290  13.631  0.4326 -0.0370 -0.0621
26966W        W42435  16.385   0.213  14.151  0.3214  0.0627  0.0442
26967W        W42436  16.782   5.266   2.172 -0.0165  0.0773  0.2432
26968W        W42437  12.088   7.395  13.787 -0.2429 -0.1266 -0.1806
26969W        W42438   6.125   2.597   2.810 -0.1909 -0.0564  0.2950
26970W        W42439  12.145   0.508   4.629 -0.2745 -0.1671 -0.2253
26971W        W42440   9.017  10.894   4.026 -0.1573 -0.2281 -0.1035
26972W        W42441   7.068   1.995  11.627 -0.1837  0.2042 -0.0565
26973W        W42442   8.681  17.552   4.100  0.2778 -0.2330  0.0196
26974W        W42443   3.398   6.066   4.673  0.0046  0.0140 -0.0228
26975W        W42444   1.663  11.733   2.040  0.3257 -0.0488  0.0979
26976W        W42445   7.957   2.593  11.768 -0.0888  0.0599  0.2237
26977W        W42446  17.761   8.718  12.273 -0.1336  0.2173  0.0621
26978W        W42447   8.664  11.029   3.212 -0.2399  0.4433 -0.2049
26979W        W42448   9.327   8.727   1.973 -0.4964  0.0621 -0.0470
26980W        W42449  14.902   7.780  12.359  0.0240 -0.0619  0.0532
26981W        W42450   3.075  12.801  10.840  0.1182  0.1726  0.0645
26982W        W42451  13.107   5.966  15.628 -0.0682  0.2287  0.2222
26983W        W42452  10.774  12.964   3.857 -0.2747  0.0630 -0.1171
26984W        W42453  12.833   2.916   4.572 -0.2643  0.0707  0.0663
26985W        W42454  14.803  10.732   1.450 -0.0851  0.2086  0.1158
26986W        W42455   3.835   8.340  11.312 -0.2482 -0.0205  0.0758
26987W        W42456   7.563   7.820  14.670  0.1897 -0.2393  0.1082
26988W        W42457  13.071   1.491   2.392  0.0629  0.0349  0.0010
26989W        W42458  14.939  17.303  11.776 -0.4743 -0.0978  0.1941
26990W        W42459   8.016  17.065  14.661  0.0990  0.0299 -0.1089
26991W        W42460   8.070  14.793  10.637 -0.1503  0.0492 -0.0525
26992W        W42461   6.609   9.665   2.631  0.2047  0.0719  0.0360
26993W        W42462  17.703   3.147   2.278 -0.0264 -0.1681 -0.1716
26994W        W42463   5.252  17.641   0.083  0.1361  0.1125  0.1576
26995W        W42464   3.683  15.270  13.922  0.1174 -0.3500  0.0365
26996W        W42465  16.762   8.019   3.968 -0.0932  0.0697 -0.0176
26997W        W42466  15.087   3.461   3.657  0.3309  0.0153  0.0131
26998W        W42467   8.449   9.848   4.749  0.2235 -0.0194  0.1105
26999W        W42468   4.004  14.351  15.348 -0.0999 -0.1089 -0.1622
27000W        W42469  16.498   7.160   2.195 -0.2704  0.0705 -0.0243
27001W        W42470   1.778   6.094   3.570 -0.3005 -0.1061  0.1651
27002W        W42471  13.432  17.276  13.957  0.0138 -0.3393  0.1901
27003W        W42472  13.161  14.555  13.602  0.2382 -0.1988  0.1790
27004W        W42473   7.181  10.009  13.767 -0.3020  0.1133  0.1672
27005W        W42474  18.066  16.603   3.452  0.5314  0.0244 -0.1327
27006W        W42475   3.984  13.366   2.571  0.1756  0.0699  0.0885
27007W        W42476  10.482  17.975  10.662  0.1563 -0.1713  0.1562
27008W        W42477   7.176   0.457  13.746 -0.0250  0.0490 -0.0763
27009W        W42478   5.101  14.007  14.712 -0.0802 -0.3884  0.2612
27010W        W42479   3.054  13.321  14.905 -0.2893 -0.1637  0.1319
27011W        W42480   7.508  11.886   1.277  0.0257 -0.4201  0.0684
27012W        W42481  18.705   5.575   4.725  0.0856  0.3428  0.0123
27013W        W42482   5.581  14.744  13.960 -0.1867 -0.1291 -0.1219
27014W        W42483   7.441  17.622   4.766 -0.0567 -0.1217  0.0483
27015W        W42484  14.001  18.696   0.232  0.2702 -0.3051  0.1060
27016W        W42485  14.904  11.918   1.690 -0.0954 -0.1562  0.0142
27017W        W42486  11.913   0.913  13.408 -0.0510  0.0306 -0.0724
27018W        W42487   6.044  18.753  11.844  0.1411 -0.1325 -0.1670
27019W        W42488  12.001   1.968   4.769  0.1342  0.1535 -0.1404
27020W        W42489   4.136   6.595   2.701 -0.3644  0.2780 -0.1705
27021W        W42490  12.473  18.426  12.737  0.3926  0.0872  0.3396
27022W        W42491   0.905  17.259   3.432 -0.0667  0.2578 -0.0927
27023W        W42492   1.836  16.731   4.557  0.0464 -0.1801 -0.1251
27024W        W42493   6.917   3.983   4.765  0.2285 -0.2683  0.1864
27025W        W42494   2.792  12.533  15.237 -0.1996  0.1821  0.0868
27026W        W42495   4.479  12.845  14.638 -0.1815 -0.5503  0.0455
27027W        W42496  18.032   4.978  15.464  0.1123  0.0127  0.0250
27028W        W42497   4.497  15.714  15.568 -0.0320  0.1482 -0.0512
27029W        W42498  11.087  11.482  13.307  0.0538 -0.3429  0.1782
27030W        W42499   6.143  17.303  14.469  0.2489  0.0297  0.0989
27031W        W42500  14.147   4.231   5.788  0.1071  0.1837 -0.0877
27032W        W42501   8.386  14.195   5.763  0.2121  0.0315 -0.2979
27033W        W42502  18.649  16.262   2.210 -0.3984 -0.0105  0.2481
27034W        W42503  16.726   3.722   2.476 -0.0391 -0.2976  0.3865
27035W        W42504  14.279   9.197   0.089 -0.0097  0.2010  0.1777
27036W        W42505  12.748  11.999  11.700  0.0147 -0.1620 -0.1038
27037W        W42506  11.987   6.796  11.396  0.0263  0.0278 -0.3383
27038W        W42507  10.937   1.895   4.192  0.1392  0.0055  0.0317
27039W        W42508   8.718  11.258  11.437 -0.0953  0.0479 -0.0541
27040W        W42509   9.639  10.363  11.126 -0.2046  0.1762  0.1970
27041W        W42510  18.375   8.063   9.693  0.0386  0.1165 -0.0827
27042W        W42511  12.975   6.859   1.070  0.0995 -0.0498 -0.2175
27043W        W42512  12.144  13.037  12.604  0.0656  0.0296  0.1915
27044W        W42513   7.780  17.391   5.366 -0.0222 -0.2358 -0.2659
27045W        W42514   5.490  16.314   5.667  0.1472 -0.0754  0.1243
27046W        W42515   7.453   9.325   3.137 -0.1351 -0.4356  0.0727
27047W        W42516   8.856  14.182   1.896 -0.1569  0.1527  0.2088
27048W        W42517   1.978  11.307   1.179 -0.2393 -0.2971 -0.1403
27049W        W42518  17.860   4.206  11.260 -0.0737  0.0763 -0.3899
27050W        W42519   3.307   7.075   2.775 -0.2227  0.0951  0.1184
27051W        W42520   8.714   6.768   1.759 -0.1480 -0.2330 -0.1340
27052W        W42521   2.774   9.804   5.172 -0.0144  0.1138 -0.2394
27053W        W42522   8.854   5.379   4.967 -0.0061  0.4711 -0.0276
27054W        W42523  10.757   0.551   3.868 -0.1162 -0.0263  0.0000
27055W        W42524  11.969  13.594   4.188 -0.0248  0.0167  0.1064
27056W        W42525  11.620   8.336  11.225  0.0965 -0.1734 -0.2094
27057W        W42526   8.812   4.928  12.918 -0.2016  0.2152 -0.2729
27058W        W42527  17.744  15.119   5.113  0.1141  0.1401 -0.0362
27059W        W42528  12.101   2.162   3.750 -0.3145  0.0545 -0.4383
27060W        W42529   0.880  13.563  14.304  0.4264  0.1675  0.1098
27061W        W42530   7.313   5.128  12.804  0.0776 -0.1548 -0.2728
27062W        W42531  14.240   6.233   4.530 -0.1065  0.0187  0.5745
27063W        W42532   1.058   2.683  10.228 -0.1238 -0.2614  0.2924
27064W        W42533   1.410   2.782   1.058  0.0382  0.1530  0.3015
27065W        W42534   5.666   9.021  12.233 -0.0754 -0.2654  0.2485
27066W        W42535   7.185   5.272  10.894 -0.0562 -0.1550  0.3080
27067W        W42536  12.636  11.970  11.224  0.3772  0.0843  0.0777
27068W        W42537   4.405  12.698   3.057  0.1371  0.1095  0.1338
27069W        W42538  10.806   3.962  12.624 -0.1289 -0.3734 -0.2505
27070W        W42539   4.573  12.489   0.861  0.1852  0.1632 -0.3222
27071W        W42540   6.823  11.222   2.461 -0.3152  0.0964 -0.0381
27072W        W42541  13.163   0.970  14.840  0.2292 -0.0307  0.2772
27073W        W42542   0.673  13.702  12.506  0.0571 -0.1033 -0.0802
27074W        W42543   7.902  15.166  12.595  0.1869 -0.1956  0.0383
27075W        W42544  14.956   0.229  12.643  0.0133 -0.0208  0.2620
27076W        W42545  17.516  13.150   0.944 -0.1581 -0.0919 -0.2038
27077W        W42546   4.673   2.103   2.203 -0.0651  0.0321 -0.1915
27078W        W42547   9.484   7.525  11.101  0.3204  0.1068  0.0301
27079W        W42548  18.297   5.687   2.589  0.4685  0.0147 -0.1805
27080W        W42549   2.869  14.534   1.775 -0.1435  0.2812 -0.1410
27081W        W42550  16.102  11.997   5.093 -0.0067 -0.0251 -0.1578
27082W        W42551   5.202  16.758  13.501  0.1754  0.0290  0.2631
27083W        W42552   9.565  11.057   2.591 -0.2360  0.0003  0.0845
27084W        W42553   4.635  10.943   2.592 -0.3008 -0.4046 -0.1641
27085W        W42554   1.686  15.168  14.998  0.0262  0.0781  0.0074
27086W        W42555   6.098   6.180  11.789 -0.2705  0.1301  0.0063
27087W        W42556   1.180  12.089   6.290 -0.0972 -0.1885  0.1424
27088W        W42557  16.597   4.294  13.066  0.0869 -0.3797 -0.1855
27089W        W42558  14.628   6.290  13.405  0.0713 -0.1230  0.1574
27090W        W42559   4.809  17.273  12.393 -0.1736 -0.2437  0.1943
27091W        W42560   1.515   4.342  14.890  0.0444  0.1254 -0.0086
27092W        W42561   7.699   8.756  11.900 -0.2573  0.1314 -0.0646
27093W        W42562  10.040   1.159   0.698 -0.3966 -0.1602  0.3765
27094W        W42563  15.514  14.483   4.618 -0.0764 -0.0162 -0.1576
27095W        W42564  13.669  13.082   3.703  0.0513 -0.1845  0.4143
27096W        W42565  17.237  18.150   1.813 -0.2720  0.0889 -0.0604
27097W        W42566  18.347  16.738   0.672  0.3741 -0.1219 -0.1003
27098W        W42567  10.504   1.920  10.319 -0.0534 -0.1305 -0.0184
27099W        W42568  14.759   7.068  12.835  0.0983  0.2270 -0.1724
27100W        W42569   3.980  17.360   2.682  0.2399 -0.0353  0.0302
27101W        W42570  15.920  17.389   2.773 -0.0786 -0.1111 -0.1747
27102W        W42571  16.085   6.802  14.621 -0.3238 -0.3506  0.2545
27103W        W42572   4.504  13.638  10.576 -0.1392 -0.1644 -0.1861
27104W        W42573   1.205   4.556   3.743 -0.0308 -0.0842 -0.0652
27105W        W42574  15.225  18.405   2.494  0.0442  0.2279  0.0224
27106W        W42575  14.037   4.005  13.095 -0.1533  0.2024 -0.2064
27107W        W42576  13.564  18.498  12.808  0.0651  0.2479  0.1871
27108W        W42577   9.909   9.401   5.309  0.0336  0.2449 -0.0553
27109W        W42578   5.154  14.242   2.765  0.2314 -0.0596  0.3869
27110W        W42579   8.398  18.301  11.358 -0.1129  0.0162 -0.0912
27111W        W42580  11.379  14.499   0.459  0.0538  0.4342  0.1790
27112W        W42581   4.545   4.966   1.877  0.0169 -0.0405  0.0168
27113W        W42582  10.096  18.507  11.971 -0.2126  0.0083  0.2695
27114W        W42583   5.347  15.625  11.591 -0.0168  0.3396 -0.2005
27115W        W42584   9.663   0.738  10.463  0.1319 -0.0853  0.2050
27116W        W42585  12.731   5.348   2.937  0.2892 -0.0306  0.1019
27117W        W42586  16.161   1.994   5.205  0.0209  0.2695  0.1671
27118W        W42587   5.936   1.289   0.527 -0.0141 -0.1530 -0.0103
27119W        W42588   8.816  13.054  15.167  0.2260 -0.2335  0.3273
27120W        W42589  15.213   8.324  15.251 -0.1990 -0.2197 -0.0064
27121W        W42590   6.370  14.092  12.492  0.0570  0.0162  0.0171
27122W        W42591   1.435   2.340  14.008  0.2425  0.1556 -0.2224
27123W        W42592   7.491  18.383   2.246 -0.4072  0.2333 -0.3381
27124W        W42593  14.086  16.628   4.448 -0.3212  0.1741  0.1528
27125W        W42594  15.180  18.242   4.661 -0.1369  0.2322 -0.0282
27126W        W42595  18.378  16.436   4.377 -0.0749 -0.1808 -0.2683
27127W        W42596  17.021   9.080   3.903 -0.2509 -0.1709 -0.2607
27128W        W42597  10.514  10.824  12.951 -0.1093 -0.0840  0.0486
27129W        W42598   3.512  11.083   1.967  0.0585 -0.2337 -0.0777
27130W        W42599  14.385   1.169  12.275 -0.1370 -0.0542 -0.1146
27131W        W42600  18.608  16.688   2.516  0.3841 -0.0142 -0.0962
27132W        W42601   3.923   3.140  10.648 -0.2547 -0.4180 -0.1299
27133W        W42602  17.967  13.588  11.235 -0.2499  0.1855  0.1880
27134W        W42603   7.261  13.686  10.881  0.0637  0.0219  0.2459
27135W        W42604  11.556   7.721   4.436  0.1066 -0.0848 -0.1153
27136W        W42605   6.375   0.807   6.092 -0.0155  0.0972 -0.2568
27137W        W42606  10.159  10.734   0.589  0.0417  0.0674 -0.0887
27138W        W42607  10.526  10.644  11.345 -0.0196 -0.2147  0.3102
27139W        W42608   9.012   8.039   4.167 -0.3604 -0.1737  0.2306
27140W        W42609   0.384   0.401  15.286 -0.1558  0.2546  0.2423
27141W        W42610   4.442  12.389   1.764  0.1780  0.2120 -0.3518
27142W        W42611   5.542   4.828   2.566 -0.0015  0.1163 -0.1599
27143W        W42612   7.635   6.517   4.584 -0.0090  0.1471 -0.3610
27144W        W42613   4.099  16.143   4.843  0.0841 -0.0729 -0.0304
27145W        W42614  15.844  15.032  12.347 -0.2417 -0.3202  0.2833
27146W        W42615   3.032  12.006   4.718  0.0444  0.0651  0.0591
27147W        W42616   4.787  18.168   5.011  0.1442 -0.3805  0.1239
27148W        W42617   8.804  13.110   1.690 -0.0319 -0.0499  0.1728
27149W        W42618  10.302  16.401   1.662  0.0793  0.0114  0.2952
27150W        W42619  16.811   3.560  11.682  0.3409  0.2428 -0.0317
27151W        W42620  15.996  12.801   1.332 -0.1961 -0.0859 -0.3076
27152W        W42621  10.079   3.455   0.771 -0.1331  0.5802  0.2262
27153W        W42622  17.507  16.015   5.468  0.3348 -0.0053 -0.0798
27154W        W42623   6.190   3.106  14.757 -0.2871 -0.1783  0.1572
27155W        W42624   7.902  16.479  12.417  0.3380  0.4006 -0.0942
27156W        W42625   7.238   0.595   0.047  0.0273  0.2152 -0.0152
27157W        W42626  15.940  13.345   1.024 -0.1736  0.2509  0.1063
27158W        W42627   5.031  16.781   0.481 -0.1377 -0.1810  0.0300
27159W        W42628  10.221  15.043  13.335 -0.2927 -0.1709 -0.2549
27160W        W42629   7.274  17.927  11.947  0.3011 -0.0053  0.0324
27161W        W42630   6.768   0.881   1.112  0.2459  0.2558 -0.0278
27162W        W42631  14.148   3.461  13.148  0.2560  0.1261  0.2510
27163W        W42632  10.235  17.204   1.059 -0.1305 -0.1454 -0.0683
27164W        W42633   0.347  11.143   3.739  0.1095  0.1241 -0.2690
27165W        W42634   3.131   2.674  13.096  0.1826  0.2327  0.0653
27166W        W42635  15.841  17.568  11.436  0.3296  0.1772 -0.0279
27167W        W42636  12.027  14.129   3.094 -0.2515  0.1286 -0.0517
27168W        W42637   9.467   8.165   5.002  0.2678 -0.1637 -0.1010
27169W        W42638  15.285  13.102  11.389 -0.3522  0.1417  0.0277
27170W        W42639   0.126   8.990  11.586 -0.0902  0.1986 -0.0217
27171W        W42640  15.146  17.579   0.650 -0.3215  0.1367  0.3154
27172W        W42641  16.755   1.235   3.903 -0.0613 -0.1088 -0.0585
27173W        W42642   1.203   2.672   3.977 -0.0320 -0.0452  0.0981
27174W        W42643   5.933  17.861  12.894 -0.3014 -0.2963  0.2268
27175W        W42644  14.774  10.185   0.247 -0.1541 -0.0980  0.2841
27176W        W42645   0.489   3.478  11.438  0.2397 -0.0104  0.1495
27177W        W42646  16.506   6.254   3.153 -0.4676  0.4296 -0.3197
27178W        W42647  14.245  16.583  14.769  0.0055  0.2560 -0.1426
27179W        W42648  15.949  12.805   0.320  0.1121 -0.1974 -0.2681
27180W        W42649  18.462   3.115   1.847 -0.1346  0.0227 -0.1790
27181W        W42650   6.254   0.081   4.250 -0.2042  0.1613  0.0253
27182W        W42651   5.188   2.079  12.917 -0.1077  0.1875  0.1989
27183W        W42652   5.369   2.685  11.479 -0.0374 -0.1295 -0.2163
27184W        W42653  18.216  18.211   1.788  0.2548 -0.0557 -0.1744
27185W        W42654  14.752  10.270  14.379 -0.1736 -0.0218  0.1137
27186W        W42655  11.275  11.158   4.181 -0.1595  0.0507 -0.1585
27187W        W42656  11.385   1.595   4.184  0.1120  0.0638  0.0981
27188W        W42657  16.734   1.932   3.129 -0.1086  0.0891 -0.0760
27189W        W42658   0.957  15.202   4.394 -0.0172 -0.1923  0.1515
27190W        W42659  18.467  12.154  15.566 -0.0082  0.2163 -0.2666
27191W        W42660  16.819  10.628   1.302  0.0254  0.1128  0.2371
27192W        W42661   2.915   1.844  12.423 -0.0945  0.2110 -0.1089
27193W        W42662  12.444  15.234   4.305 -0.0393  0.3283  0.1899
27194W        W42663  15.938   7.932   1.253 -0.0809 -0.3141 -0.0670
27195W        W42664  11.956   3.084   0.319 -0.1165 -0.3363 -0.1135
27196W        W42665   8.964   6.342   5.230 -0.2185 -0.0425  0.1855
27197W        W42666  11.103  15.511   5.541 -0.3023 -0.3246  0.1084
27198W        W42667   4.229  10.934  11.773 -0.2361 -0.1203 -0.1883
27199W        W42668   2.246  11.057   4.206  0.0873 -0.0743  0.0012
27200W        W42669   7.758  11.184   3.873  0.0496 -0.2721 -0.0749
27201W        W42670  10.981  12.360   4.280  0.1812 -0.1381 -0.0710
27202W        W42671   7.360  13.889  11.349 -0.2973 -0.0009  0.2186
27203W        W42672  12.301  14.002  11.760  0.0271 -0.2117  0.2594
27204W        W42673  15.471   4.764   0.360  0.0242 -0.1871  0.1348
27205W        W42674   3.551   4.900   3.780  0.1225 -0.0010 -0.0202
27206W        W42675   8.131  10.793  14.756 -0.1251 -0.0002  0.0768
27207W        W42676  17.568   2.395   1.609  0.1818 -0.1001 -0.2059
27208W        W42677   1.218  10.407   1.732  0.0164  0.0104  0.0270
27209W        W42678  13.549  17.979   4.171 -0.2513  0.1130  0.2577
27210W        W42679  16.767  13.985   3.933 -0.0572  0.2027 -0.0322
27211W        W42680  15.777  15.592   4.103  0.3064 -0.1351  0.0163
27212W        W42681   8.867   8.210   1.436 -0.0266 -0.0052 -0.1520
27213W        W42682  17.682  11.172   2.784 -0.2062  0.2704  0.2376
27214W        W42683  16.283   3.650   5.412  0.2272  0.2975  0.2738
27215W        W42684   7.192   1.942  14.675 -0.0700  0.2246 -0.2352
27216W        W42685   5.612  14.409   2.245  0.0794  0.1932 -0.2731
27217W        W42686   3.182   2.896   0.617 -0.0558 -0.0906 -0.1462
27218W        W42687   9.007   8.020  14.184 -0.5582  0.0285 -0.1832
27219W        W42688  10.972   1.958  13.023  0.4629  0.1574 -0.2290
27220W        W42689  14.472  11.012   5.378  0.0895 -0.1449  0.0472
27221W        W42690   6.328   4.433   1.588 -0.0961 -0.1846  0.1521
27222W        W42691  16.924   1.595  11.692  0.3549 -0.0457 -0.1731
27223W        W42692   0.096  15.100  13.086  0.0034  0.0219 -0.0677
27224W        W42693   0.919  12.269   0.122 -0.1519  0.0569 -0.0280
27225W        W42694  14.811   1.571   0.811 -0.1326  0.0936  0.3934
27226W        W42695   7.847   1.293  13.127  0.0587  0.0280  0.0602
27227W        W42696   0.730   4.324   4.795  0.2256  0.0135  0.1525
27228W        W42697   4.613   7.691   9.473  0.3141 -0.2949  0.0135
27229W        W42698   2.665  10.100  10.657 -0.2287  0.1103 -0.1114
27230W        W42699   5.684  11.656   3.005  0.1849  0.1904 -0.0685
27231W        W42700   4.115  18.429   5.533  0.0903 -0.0426 -0.0484
27232W        W42701  13.506  15.059  12.798 -0.1544 -0.1351  0.1582
27233W        W42702   5.851  12.437   2.747 -0.1673 -0.0450 -0.0938
27234W        W42703  16.877   3.041  14.062  0.0611  0.2338 -0.2375
27235W        W42704  14.085   6.885   1.126  0.2205 -0.0884  0.3083
27236W        W42705  14.177  15.248   4.352 -0.0550 -0.0239  0.0789
27237W        W42706   9.093  16.418   0.815 -0.1587  0.2961 -0.0479
27238W        W42707  10.501   2.220  15.668 -0.0471  0.0810  0.0601
27239W        W42708   3.862   6.359   3.877 -0.3883 -0.0664 -0.1384
27240W        W42709   3.543  16.279   1.834 -0.0248  0.2062  0.4987
27241W        W42710  12.401   0.242   5.729  0.2632 -0.1652  0.1714
27242W        W42711  11.385  15.930   4.121 -0.0173 -0.2097 -0.0936
27243W        W42712   1.087   3.218   1.120 -0.0531 -0.1263 -0.2746
27244W        W42713  10.127   3.557  12.497  0.3457  0.0401  0.2015
27245W        W42714   1.529  16.374  14.400  0.0509 -0.0745 -0.4418
27246W        W42715   3.843  15.508   4.881 -0.3435  0.0441 -0.1945
27247W        W42716  12.413  13.538  13.629 -0.2672  0.2473 -0.2492
27248W        W42717   7.472   2.266  12.705 -0.3535  0.0742  0.4412
27249W        W42718   7.257  11.814  13.959  0.2240 -0.0506 -0.3872
27250W        W42719   0.085   4.899   2.852 -0.0146  0.3456 -0.0976
27251W        W42720   5.848  13.427   0.205  0.0503 -0.2284  0.1319
27252W        W42721   2.773  10.221   2.893 -0.0324 -0.0253  0.2300
27253W        W42722   6.099  10.696   1.340 -0.1288 -0.0877  0.2054
27254W        W42723   6.034  16.904   1.012 -0.2146 -0.0880 -0.0903
27255W        W42724  14.316   7.504  14.781 -0.2493  0.0229  0.1396
27256W        W42725   0.348   8.624  10.483  0.2885 -0.0528 -0.1544
27257W        W42726   7.430  18.068   3.343  0.0517 -0.0085  0.5386
27258W        W42727   6.588   4.301  14.451  0.1792 -0.0486 -0.2902
27259W        W42728  10.854   7.040  12.235  0.2930  0.0642 -0.0597
27260W        W42729  15.270   2.782   2.667  0.0779 -0.0169 -0.0597
27261W        W42730   3.559   9.978   2.126  0.0519 -0.2095 -0.1667
27262W        W42731  12.592  14.792   4.184 -0.3387  0.0893 -0.0256
27263W        W42732  11.565   4.031  13.322 -0.0526  0.1017  0.2255
27264W        W42733   6.555  10.826   2.874 -0.0878 -0.3092  0.0988
27265W        W42734  14.257  10.812   2.601 -0.0457  0.0186  0.0383
27266W        W42735  17.217  13.954  14.478 -0.0426 -0.0975  0.2629
27267W        W42736   9.656   1.930  13.330 -0.2500 -0.2844  0.3530
27268W        W42737   1.047  15.604   5.180  0.1050 -0.0760  0.0501
27269W        W42738   3.697   7.935  11.769  0.0528 -0.3778  0.0506
27270W        W42739  16.057  18.533  11.609  0.1286  0.2384 -0.1602
27271W        W42740   5.806   4.448  15.075  0.1468  0.0934 -0.0020
27272W        W42741   5.384   6.030   5.006 -0.2187 -0.1305 -0.0927
27273W        W42742   8.692   8.878  11.816 -0.1079  0.0116  0.3150
27274W        W42743   9.820   4.105   1.963 -0.1266 -0.2217  0.0247
27275W        W42744  15.305  12.022   5.586  0.0408  0.1705  0.1223
27276W        W42745  12.164   0.965  11.224  0.2624  0.1751  0.3019
27277W        W42746   6.908  17.525   4.896 -0.0256  0.0843  0.1784
27278W        W42747   5.523   4.200   1.782 -0.2680  0.1623  0.2427
27279W        W42748   6.764  10.303  10.999  0.0160 -0.0904 -0.1397
27280W        W42749  18.106  18.420  12.242 -0.1106 -0.2228 -0.1693
27281W        W42750  18.388   6.669   5.454 -0.1925 -0.0216 -0.0429
27282W        W42751   7.882   4.168  14.439 -0.0406  0.1530  0.2059
27283W        W42752  11.320   6.430  10.243 -0.1031 -0.1517 -0.1893
27284W        W42753   0.711  13.874  11.617  0.2185 -0.1442  0.0050
27285W        W42754   5.770  13.974  10.439  0.2132  0.0824 -0.0571
27286W        W42755  14.108   5.544  12.127  0.0904 -0.1869 -0.0031
27287W        W42756  14.330   0.770  14.745 -0.0687 -0.2051  0.0107
27288W        W42757   0.050  16.819  12.911  0.2078 -0.0223 -0.0206
27289W        W42758   2.689   2.644  12.826  0.1290  0.2696  0.2649
27290W        W42759   0.170   7.895   4.996  0.1812 -0.1066 -0.1008
27291W        W42760  17.122   1.967  12.042  0.1018  0.0813 -0.1890
27292W        W42761   5.899   7.473  10.169  0.0195 -0.1047  0.1899
27293W        W42762   8.830   7.375  15.375 -0.2437  0.2091 -0.2052
27294W        W42763  17.848   4.709  12.318  0.0241 -0.1418  0.1373
27295W        W42764  16.215  10.152   3.105 -0.1581  0.1422 -0.4863
27296W        W42765   9.813   7.373  13.145  0.0948 -0.2147 -0.2479
27297W        W42766   6.507   4.069  10.385 -0.1223 -0.0449 -0.1821
27298W        W42767  11.520  14.914   3.820 -0.2214 -0.0039  0.1657
27299W        W42768  17.152  11.501   0.577 -0.3111 -0.2527 -0.1768
27300W        W42769  15.682   0.777  14.854  0.4466 -0.4723  0.0300
27301W        W42770   3.102  13.754   2.940  0.3091  0.2660 -0.1768
27302W        W42771   0.030  17.064   5.051 -0.0344  0.1467  0.0497
27303W        W42772  11.734  17.875  13.650 -0.0173  0.0317  0.2240
27304W        W42773   3.861   4.210  12.427 -0.1208  0.0723  0.0405
27305W        W42774   2.812  10.242  13.919 -0.4610 -0.0591  0.0305
27306W        W42775   6.534   3.818   3.982 -0.0353 -0.0817  0.2717
27307W        W42776   1.431   6.081   3.134  0.0855  0.1646 -0.1532
27308W        W42777  13.154  18.276   2.194  0.3339  0.0840 -0.0294
27309W        W42778   1.401  10.498   1.302 -0.0516 -0.0937  0.3995
27310W        W42779  11.525  11.943  14.482  0.0146 -0.0611  0.1178
27311W        W42780   2.425  13.573  11.165  0.0373  0.1018  0.1050
27312W        W42781   8.024  12.273  14.096  0.1318 -0.0879  0.0617
27313W        W42782   4.848  11.172   0.857 -0.0898 -0.0244  0.3549
27314W        W42783  11.247   5.713   1.378  0.0426  0.1206 -0.2948
27315W        W42784  17.322  11.691   5.837 -0.1631 -0.2231  0.2411
27316W        W42785  16.334   6.928   0.245  0.0915  0.1197  0.0017
27317W        W42786   6.288   0.774   0.968 -0.4879  0.1004  0.0841
27318W        W42787  18.184   2.304   2.494 -0.1477  0.0747  0.4321
27319W        W42788  14.781  18.208   0.704  0.0190  0.1913 -0.0617
27320W        W42789  10.224  16.015   0.531 -0.2471  0.0762  0.1635
27321W        W42790  11.042   3.042   0.334  0.0073  0.1334  0.0710
27322W        W42791   4.383   7.847   5.019  0.2139  0.0058  0.1678
27323W        W42792   4.911  12.365  14.245  0.2809  0.3279 -0.2850
27324W        W42793  15.275   5.909   1.820 -0.0638 -0.1322  0.1930
27325W        W42794  12.576  16.590   1.800 -0.0447  0.2225  0.1867
27326W        W42795  18.378   2.317   3.811 -0.1795 -0.1876  0.2887
27327W        W42796  13.368   3.878   0.664 -0.3668 -0.1020 -0.3441
27328W        W42797  13.724   0.302   0.504 -0.2704 -0.0836  0.1702
27329W        W42798  11.442   3.782  14.927 -0.0582 -0.1621  0.1554
27330W        W42799  18.061   1.546  14.663 -0.1693  0.1382 -0.0915
27331W        W42800   0.265   5.511   2.657  0.0096 -0.2790  0.0623
27332W        W42801   1.742   1.714   2.118  0.0143  0.0951  0.1402
27333W        W42802  17.943  12.235   2.872  0.2371 -0.2077 -0.2328
27334W        W42803   8.189   2.548   3.039  0.2813  0.0143  0.0991
27335W        W42804   8.872  13.773   2.145 -0.0634 -0.1532  0.1174
27336W        W42805  10.731   4.349   2.991  0.0442 -0.3894 -0.0710
27337W        W42806  10.386   4.687  13.082 -0.1792  0.0532 -0.2005
27338W        W42807   4.876   7.468  11.649 -0.1197 -0.0284  0.3135
27339W        W42808  14.104  14.730  12.388 -0.1855  0.0387  0.0278
27340W        W42809   3.352   9.620  14.082 -0.0849 -0.0660 -0.2857
27341W        W42810   4.177   3.316   2.623 -0.1636  0.0197 -0.2858
27342W        W42811   4.004  12.044  15.415 -0.1773  0.0065 -0.3747
27343W        W42812   9.095  18.265  12.416 -0.0914 -0.1853 -0.2365
27344W        W42813  14.600   1.986  11.827 -0.2353  0.0405 -0.0323
27345W        W42814   7.942  10.705  11.878 -0.3651  0.1336  0.1837
27346W        W42815  11.812  16.453   4.801 -0.2641  0.2470 -0.3429
27347W        W42816   0.978   8.458  11.291 -0.0234 -0.1963  0.0950
27348W        W42817   2.018   9.788   5.610  0.0043 -0.1216 -0.1140
27349W        W42818   4.211  13.499   0.608  0.2394  0.0934 -0.1273
27350W        W42819   4.332   9.584   4.881  0.0776 -0.2244  0.1402
27351W        W42820  16.383   3.327  14.046 -0.0122  0.0669  0.4757
27352W        W42821   9.345  10.601  14.859 -0.0558 -0.1866 -0.2425
27353W        W42822   9.681  13.067  12.109  0.0992  0.2448 -0.2807
27354W        W42823  16.141  15.307  10.284 -0.2352 -0.3023 -0.0216
27355W        W42824  11.334  16.487   3.305  0.0688  0.2216  0.2816
27356W        W42825  11.229   8.403   2.371 -0.0217  0.1956  0.0659
27357W        W42826   5.579   1.939   4.927 -0.1153 -0.1237  0.0995
27358W        W42827  12.356   2.575  13.918 -0.4664 -0.1918  0.0976
27359W        W42828   7.123  16.249   3.440  0.2547  0.2769  0.1158
27360W        W42829   6.328  17.978  13.931  0.0892 -0.4138 -0.0205
27361W        W42830   5.399   7.842   4.076 -0.0702  0.1724  0.0638
27362W        W42831   6.987  14.270  11.644  0.0991 -0.1653  0.2187
27363W        W42832   3.760  17.966   3.653 -0.0424  0.2658  0.1178
27364W        W42833   3.275   8.947  14.704 -0.1682 -0.1111  0.0089
27365W        W42834   6.211  11.647   4.187 -0.3453  0.0078 -0.0516
27366W        W42835  13.583  18.479   3.925 -0.5316  0.1926  0.0752
27367W        W42836  10.941   7.178   1.688 -0.3876  0.0911 -0.0473
27368W        W42837   8.338  10.440   2.742  0.4631 -0.0576  0.2401
27369W        W42838   4.908   5.662   2.642 -0.1099 -0.2660  0.0099
27370W        W42839   0.908  15.132   0.836 -0.2468 -0.0263  0.2016
27371W        W42840   8.349   9.367   0.937 -0.1750  0.1265 -0.1375
27372W        W42841   7.657  17.190  11.665 -0.2874  0.0014 -0.0823
27373W        W42842  10.408   8.619  12.749  0.0297 -0.1248  0.1287
27374W        W42843   1.515   2.998  10.156  0.1667 -0.1436  0.2246
27375W        W42844   4.553   1.909   4.061 -0.0934  0.2978  0.0564
27376W        W42845   0.717  16.184   5.685 -0.0694  0.0907 -0.4697
27377W        W42846  14.204   6.766   1.595 -0.3646 -0.0438  0.0348
27378W        W42847  14.980   3.333   9.965  0.1309 -0.2772  0.0961
27379W        W42848   1.035  12.896  13.905 -0.0349  0.3509 -0.1162
27380W        W42849   4.740   0.554  11.459  0.0271  0.0115 -0.0894
27381W        W42850  13.150   6.425  14.112  0.0676 -0.1877  0.0917
27382W        W42851  18.547  18.382   5.598  0.0755  0.0519  0.1326
27383W        W42852   3.557  14.927   0.773 -0.0737 -0.4028 -0.1480
27384W        W42853  15.636  13.388   4.618 -0.2394  0.5411 -0.0766
27385W        W42854  16.788  17.491  13.326 -0.1163  0.1624 -0.0966
27386W        W42855  14.768  10.407   3.740  0.2140 -0.1620  0.0907
27387W        W42856  15.644   7.313  10.878  0.4906 -0.1302 -0.3021
27388W        W42857   2.603  17.779   0.993 -0.0224 -0.1425 -0.0018
27389W        W42858   2.761  12.734   0.687  0.0211  0.1370 -0.1655
27390W        W42859  10.397   0.938  13.508  0.0827 -0.1868 -0.2201
27391W        W42860   4.665  13.493   0.963  0.2522 -0.1904  0.2315
27392W        W42861   2.835  18.300   3.208 -0.4306 -0.0984 -0.1059
27393W        W42862  16.491  16.383  15.343 -0.1018 -0.0016 -0.2702
27394W        W42863   2.449   0.197  12.656  0.1413  0.0774  0.0521
27395W        W42864   6.452  17.929  12.136  0.1379  0.1508 -0.0146
27396W        W42865  15.240  11.907  13.296  0.1005  0.2365  0.1444
27397W        W42866   5.985  17.957  11.761 -0.2145 -0.3224 -0.2357
27398W        W42867  10.529  18.043   9.515  0.1173 -0.3004 -0.3538
27399W        W42868  16.295  13.090   3.821 -0.1803  0.0272  0.0202
27400W        W42869   8.610  13.412  11.251  0.1942 -0.2499 -0.0454
27401W        W42870   9.874   7.098   0.734 -0.0999  0.2898  0.2593
27402W        W42871  11.703   4.586  15.603  0.0045  0.1403 -0.1580
27403W        W42872  11.137   7.799  14.132  0.2827  0.1580  0.0840
27404W        W42873   9.579  11.096   5.196  0.2205 -0.0471 -0.0198
27405W        W42874   9.245  17.349   3.362 -0.2882  0.2346 -0.1548
27406W        W42875   6.106   5.630   2.095  0.1654 -0.1251 -0.7121
27407W        W42876  17.548  11.215   5.173  0.3607  0.1955 -0.2376
27408W        W42877  14.095   8.617   0.023 -0.0591 -0.1423 -0.1310
27409W        W42878  16.643  14.024  14.400  0.0770  0.0038  0.1331
27410W        W42879  11.782   4.610   2.525 -0.1537  0.0221 -0.2903
27411W        W42880   4.787   1.408  11.356 -0.0408  0.0968  0.2829
27412W        W42881  15.401   9.815   3.372  0.1711  0.1743  0.2373
27413W        W42882   3.172  15.029  13.804  0.0202 -0.0897  0.0803
27414W        W42883  17.619  10.092   1.293  0.4414  0.1706  0.1280
27415W        W42884   7.251   4.587   0.099 -0.0021  0.2175  0.0985
27416W        W42885   0.806  15.283  14.278  0.0742 -0.1553 -0.2333
27417W        W42886  17.746  18.399  15.355 -0.3953  0.1051  0.1690
27418W        W42887   3.968  18.151   1.369  0.2511  0.2784 -0.0897
27419W        W42888   3.985  14.005  14.004  0.2338 -0.1134 -0.2112
27420W        W42889  10.429   0.306   0.630  0.4510 -0.1585 -0.0855
27421W        W42890  17.972  10.884  14.343  0.0968  0.1151  0.2240
27422W        W42891   3.578   9.543   1.745 -0.0136  0.0247 -0.1091
27423W        W42892  17.271   2.653  13.797  0.0300 -0.1621 -0.0603
27424W        W42893  12.508   3.303   5.448 -0.0290  0.0368 -0.1586
27425W        W42894  11.109   3.254  10.724 -0.0418 -0.0992 -0.4016
27426W        W42895   3.939   0.898  13.962  0.1802  0.0250 -0.3555
27427W        W42896   4.408  10.327   0.851 -0.0706  0.1009 -0.2274
27428W        W42897  14.119  11.784   4.495  0.0220  0.0511 -0.1735
27429W        W42898   2.580  11.000  15.508  0.0574 -0.0647  0.1670
27430W        W42899   1.137   2.599   1.541 -0.1053 -0.1339 -0.1497
27431W        W42900  17.838   3.899  14.639  0.1293  0.0704  0.0299
27432W        W42901  15.353   8.460  12.867 -0.1235  0.1986  0.1806
27433W        W42902  17.078   6.567  12.128 -0.1113 -0.0434 -0.2500
27434W        W42903   0.428   1.011  11.425  0.1033  0.0255 -0.1729
27435W        W42904  16.150  17.339  13.810 -0.1628  0.3059 -0.0854
27436W        W42905  13.463   2.609  15.301  0.0961 -0.2070 -0.2908
27437W        W42906  17.214   2.603  14.269  0.0470 -0.1099  0.0922
27438W        W42907  17.435   1.978   0.172  0.0741  0.2119 -0.1080
27439W        W42908  18.368   0.348   2.944  0.2058 -0.4222 -0.0451
27440W        W42909   0.025   1.173   1.749  0.0140 -0.1453 -0.0896
27441W        W42910   5.047  13.723   3.787 -0.1852  0.1781  0.1720
27442W        W42911  10.762   5.950  10.802 -0.1109 -0.1328 -0.3314
27443W        W42912   0.578  14.553  10.070  0.4430 -0.1582 -0.0201
27444W        W42913  16.000   5.463   2.340 -0.0530  0.2218  0.0331
27445W        W42914  18.123  16.293   0.664  0.1264  0.0138  0.3330
27446W        W42915  11.888  17.117   0.643 -0.1490 -0.1120 -0.1639
27447W        W42916   9.040  11.482   1.627 -0.0182 -0.0026 -0.3201
27448W        W42917   8.465   9.537   3.531  0.2929 -0.0135 -0.1817
27449W        W42918  13.610  10.273   2.728 -0.0486  0.1141 -0.0809
27450W        W42919   4.557  18.553   2.364  0.1914 -0.0054  0.1287
27451W        W42920   9.763  11.630   5.009  0.1809  0.0413 -0.2595
27452W        W42921  12.404   6.888  10.485  0.0037 -0.0915  0.1533
27453W        W42922   5.861   0.329  11.561  0.0317  0.0566  0.1105
27454W        W42923   2.164  14.865   4.433  0.0598 -0.3178  0.0862
27455W        W42924  17.654  18.400  14.099  0.4351 -0.1681  0.2460
27456W        W42925   6.556  15.174  11.908  0.2055 -0.1931 -0.0214
27457W        W42926  16.909   9.576  15.092 -0.0516 -0.2570  0.0533
27458W        W42927  12.572  11.172   4.415 -0.4461  0.1793  0.1642
27459W        W42928  11.995   6.285  11.975 -0.2710  0.3756  0.1427
27460W        W42929  14.103   7.754  12.738 -0.0413 -0.0432  0.0091
27461W        W42930  10.826  11.528   0.324 -0.2298 -0.0374  0.1821
27462W        W42931  10.796  13.458   1.074  0.1474  0.2455 -0.1443
27463W        W42932   9.854   6.924  11.849 -0.0849 -0.3578  0.0355
27464W        W42933   9.561   8.509   3.772 -0.3397 -0.0324 -0.1823
27465W        W42934  10.909   2.357  13.317  0.1677  0.3721 -0.1688
27466W        W42935  18.286   0.828   5.374 -0.2638 -0.1408 -0.0659
27467W        W42936   0.080   9.274  12.214 -0.0011 -0.0166  0.0117
27468W        W42937   1.370  11.041  13.935  0.3196 -0.3265  0.1023
27469W        W42938   9.959  12.583   3.667  0.0115 -0.0071  0.1168
27470W        W42939  13.310  10.769   1.410  0.2125  0.0254 -0.1158
27471W        W42940  14.946  17.846  12.770  0.0703 -0.0235  0.5318
27472W        W42941  12.701   7.208  14.756  0.0422 -0.1574  0.0206
27473W        W42942  13.927   9.880   0.493 -0.2483 -0.1264  0.1144
27474W        W42943   3.725   2.513   4.691 -0.1045  0.1435  0.2899
27475W        W42944   8.492  10.793  12.635 -0.3159  0.0164  0.0344
27476W        W42945  14.914   2.770   4.124 -0.1778 -0.2890 -0.2311
27477W        W42946   7.835   1.418  14.478 -0.3427 -0.1313  0.1408
27478W        W42947   6.813   4.315  13.585  0.1115  0.3876 -0.0161
27479W        W42948  12.021  10.133  11.368 -0.1198 -0.0937 -0.1534
27480W        W42949  12.762  15.852   2.024  0.1177 -0.3898 -0.0621
27481W        W42950  18.624  11.686  11.979  0.2061 -0.0562 -0.2194
27482W        W42951  16.062   5.377   3.326 -0.1228 -0.2797  0.3168
27483W        W42952  18.642  17.675   5.376  0.0610 -0.2929  0.2410
27484W        W42953   0.202   5.100   1.080  0.3870 -0.0195  0.0415
27485W        W42954   5.188  17.681   1.980  0.0707 -0.0522 -0.1042
27486W        W42955   8.922   5.794   3.811  0.2644 -0.0953 -0.1104
27487W        W42956   1.669  13.374  13.269  0.1579  0.2143  0.0317
27488W        W42957   0.562   4.750   2.551  0.0655 -0.3708  0.0922
27489W        W42958  13.458   9.138   4.906  0.0915  0.0104 -0.0644
27490W        W42959   8.812  12.005  14.234 -0.1687 -0.3964  0.3873
27491W        W42960   4.474   7.215  11.796 -0.0835 -0.0280  0.2755
27492W        W42961   6.764  12.952  15.167  0.2361  0.0294  0.0264
27493W        W42962   5.330   2.303   4.749 -0.0774 -0.2291 -0.0588
27494W        W42963  15.930  11.530   1.033 -0.5365  0.3613  0.1841
27495W        W42964  10.433  14.758   3.553  0.1629 -0.3795  0.1426
27496W        W42965   9.946   8.354  11.940 -0.0215  0.1590 -0.4130
27497W        W42966  12.294   7.808   0.693 -0.0999 -0.1092  0.1341
27498W        W42967   5.090   6.070  10.862  0.0665 -0.4308 -0.0684
27499W        W42968   6.943  14.754   4.406  0.0056  0.4437  0.2041
27500W        W42969  13.302   0.758   0.893 -0.1335 -0.0080  0.1632
27501W        W42970  16.731   0.762   2.510 -0.2919  0.1460 -0.1523
27502W        W42971   8.866   0.362   2.354 -0.0678 -0.1198 -0.0494
27503W        W42972   2.976  15.783   2.776  0.1839  0.0110  0.1782
27504W        W42973  11.319  15.406  14.503 -0.3447 -0.1464 -0.1887
27505W        W42974   1.328   8.597  13.090 -0.1733 -0.1383  0.1139
27506W        W42975  13.461  14.792  10.536  0.0308 -0.1625 -0.0666
27507W        W42976  17.031   3.596   2.868 -0.0160 -0.0277  0.2265
27508W        W42977   5.146  16.861   3.084 -0.0170  0.3833  0.2076
27509W        W42978  16.265  16.639  13.177 -0.1417  0.1078 -0.0177
27510W        W42979   0.895  14.953  11.938 -0.1276  0.0239  0.0259
27511W        W42980  10.861   6.342  13.916 -0.1650 -0.3828  0.4907
27512W        W42981  11.958  11.868   4.238  0.0370  0.0214  0.1982
27513W        W42982  15.621  11.122   4.081  0.1856  0.0148  0.0434
27514W        W42983  15.710   1.431  15.607  0.0098  0.1658  0.0641
27515W        W42984  18.592   4.206   4.381  0.1139 -0.0511 -0.0916
27516W        W42985   3.346  16.615  12.453 -0.0658 -0.1741 -0.0104
27517W        W42986  14.922   5.462  12.134 -0.4676  0.0672 -0.3468
27518W        W42987  16.679   5.000   3.983 -0.1802 -0.1777  0.0195
27519W        W42988   7.480  14.372   0.421  0.0777 -0.1171 -0.0303
27520W        W42989   8.001  18.582  11.574 -0.0908  0.0196  0.2667
27521W        W42990   6.811  12.363   1.448  0.2849  0.2620  0.0338
27522W        W42991  18.357   8.762   1.639 -0.1549 -0.1301 -0.1388
27523W        W42992   3.156   3.113  11.072  0.2292  0.2620  0.0576
27524W        W42993   5.217   8.960   1.915  0.2158  0.1820 -0.1534
27525W        W42994  13.650   9.456  10.936 -0.3224 -0.0233 -0.1126
27526W        W42995  11.136  14.434   1.366 -0.0177 -0.1301 -0.1869
27527W        W42996   1.464  13.497   0.384 -0.3147  0.0929  0.0075
27528W        W42997   3.858  15.062  11.368  0.3683  0.1353  0.2470
27529W        W42998   1.745  13.859  11.005  0.1022  0.1085  0.2423
27530W        W42999  10.840  17.138   2.024 -0.0188  0.2054 -0.1641
27531W        W43000   0.767   1.143   2.861 -0.1854  0.1825 -0.0479
27532W        W43001   6.681   0.071  12.451  0.2046  0.0310 -0.1196
27533W        W43002   4.060   5.736  14.386 -0.0994 -0.3345  0.0191
27534W        W43003   4.898  13.292  14.072 -0.1454  0.1018  0.0849
27535W        W43004   1.396  13.194  11.558 -0.1705 -0.3524 -0.0507
27536W        W43005   6.519   5.791  11.474 -0.2078  0.2129 -0.2026
27537W        W43006   0.184  11.236   2.378 -0.0084  0.3275 -0.0885
27538W        W43007  15.240   0.416  11.272 -0.3005  0.1778  0.1352
27539W        W43008   5.048  13.733  15.170 -0.1921  0.3211 -0.1395
27540W        W43009  13.330  18.681  11.956  0.0387  0.2559  0.1238
27541W        W43010   6.637   4.227  13.043  0.5128 -0.1041  0.0552
27542W        W43011  10.705   3.207  15.476  0.2676 -0.4727  0.0508
27543W        W43012  18.252   5.425  15.485  0.0725 -0.2014  0.3353
27544W        W43013   2.476   2.082   1.683 -0.1858  0.3350  0.0674
27545W        W43014  13.080  17.516   3.280  0.0645 -0.1589  0.3512
27546W        W43015  12.786  14.687  15.583  0.0081 -0.0889 -0.3686
27547W        W43016  18.218  17.765   1.086 -0.1980  0.0322 -0.0077
27548W        W43017  17.589  11.610   1.855 -0.3948 -0.0084 -0.0115
27549W        W43018  10.079   3.884  14.921 -0.0974 -0.0657  0.2813
27550W        W43019   0.797   1.003   5.660  0.0120  0.0863 -0.1398
27551W        W43020   0.382  12.852   3.972 -0.0039 -0.3229  0.0661
27552W        W43021   8.474  12.358  14.487  0.1424  0.1266 -0.1732
27553W        W43022  13.895   0.138  14.915  0.1299  0.0445  0.1789
27554W        W43023  15.469  17.638   2.754  0.2521  0.1944 -0.0981
27555W        W43024  16.311  18.134   3.987 -0.2315  0.0801  0.0600
27556W        W43025  10.441   9.326  11.590  0.0627  0.4577  0.1236
27557W        W43026   7.979   9.102  14.145 -0.4465 -0.0939  0.2496
27558W        W43027   8.622   5.040  10.365  0.2450 -0.2593 -0.2114
27559W        W43028   3.934  14.554   1.037 -0.0054  0.2190 -0.1718
27560W        W43029  10.681  13.943  12.413  0.0557 -0.0614 -0.0808
27561W        W43030   4.368   9.701   1.905 -0.3494  0.3100  0.3332
27562W        W43031   9.617   9.298  15.378  0.0934 -0.0018 -0.0196
27563W        W43032   0.362   5.327  15.417 -0.0418  0.2259  0.2485
27564W        W43033  16.346   5.770   5.215  0.2311 -0.0822  0.0554
27565W        W43034   1.374   0.679  15.359 -0.0130  0.3431 -0.1960
27566W        W43035  18.147  15.186  12.894 -0.0430 -0.3295  0.0850
27567W        W43036  14.971   4.693   0.367  0.3278  0.2698 -0.0099
27568W        W43037  13.132   4.556   4.273 -0.1526  0.2494 -0.2664
27569W        W43038  18.771   9.107   1.446  0.0206 -0.0245  0.4408
27570W        W43039  11.760   0.252   3.681 -0.0241 -0.1513 -0.2690
27571W        W43040  18.074   8.658   1.231  0.4662  0.1866 -0.2194
27572W        W43041  15.846  16.378  12.931 -0.1490 -0.1434  0.4180
27573W        W43042  18.502   2.787   4.121 -0.0673  0.1700 -0.3229
27574W        W43043  15.105  13.499   3.486  0.2284  0.3028  0.0393
27575W        W43044  16.513  12.084  13.217  0.0895  0.1464  0.0104
27576W        W43045   0.078  14.436   4.713  0.0124  0.4182  0.0423
27577W        W43046   3.878  12.066  13.639  0.0814  0.2706  0.1829
27578W        W43047   2.875  17.510   1.475 -0.0584 -0.2372  0.2431
27579W        W43048  15.214  10.472   1.635  0.1838  0.0658 -0.1191
27580W        W43049  16.749  13.862   5.681  0.0045  0.0778 -0.1910
27581W        W43050   6.290  15.901   3.916  0.1410  0.0562  0.0089
27582W        W43051   2.536   8.984   3.335 -0.1237 -0.1785 -0.0374
27583W        W43052  11.645  14.934   0.399  0.2761 -0.0542  0.0984
27584W        W43053   1.550   3.406  13.735 -0.1470  0.2596  0.0032
27585W        W43054   8.141  16.648  13.638 -0.2559 -0.0695  0.0792
27586W        W43055   8.378  16.299  12.364 -0.0900 -0.2009  0.1769
27587W        W43056  11.759  10.016   1.723 -0.2449 -0.3107  0.0667
27588W        W43057   3.414  15.508  13.166  0.1201 -0.3651  0.0589
27589W        W43058   1.678  15.963  15.247 -0.5538  0.0712 -0.1735
27590W        W43059  16.677  11.342  14.722 -0.0382  0.1099  0.1348
27591W        W43060  16.927   0.793   5.303  0.1265  0.0358 -0.0907
27592W        W43061  15.331   9.003   3.598 -0.0538 -0.3232 -0.6260
27593W        W43062  15.412   6.791   3.703 -0.0549 -0.0195  0.1030
27594W        W43063   7.699  11.384  12.498 -0.0053 -0.0040 -0.2005
27595W        W43064   3.666  14.392   3.689 -0.0326  0.2375  0.0116
27596W        W43065  10.350  14.694   0.041 -0.1881 -0.3016 -0.0698
27597W        W43066  18.339   1.682   0.593  0.1209 -0.0520 -0.3632
27598W        W43067  16.757  15.424   3.882 -0.3649  0.3743 -0.0823
27599W        W43068   9.526  15.450   1.912  0.2995 -0.1867  0.0648
27600W        W43069  16.465  12.939   1.118 -0.2239  0.0270 -0.1290
27601W        W43070   3.542   0.398  10.484 -0.1206  0.4894  0.3098
27602W        W43071  13.474  10.182  12.478  0.1996  0.4236 -0.0468
27603W        W43072  16.512  13.097  14.126  0.2053  0.0299 -0.2540
27604W        W43073   5.754   4.521  12.643 -0.0854 -0.5064 -0.1749
27605W        W43074  17.579  10.568   2.257  0.0287 -0.0101  0.0387
27606W        W43075   3.660   1.218   0.703 -0.0944 -0.5295  0.2089
27607W        W43076   9.565  16.694   5.455  0.1585 -0.2014  0.2068
27608W        W43077   0.199  12.175   2.327  0.2285  0.0846  0.2262
27609W        W43078  18.625   2.631   5.977  0.2692 -0.0229 -0.2692
27610W        W43079  10.041   3.053  11.693  0.1209  0.0967 -0.1914
27611W        W43080   7.914  14.442   4.352 -0.5207  0.0287  0.2393
27612W        W43081   4.543  14.956   0.424  0.1124  0.0326  0.3753
27613W        W43082  10.329   3.993   1.738 -0.0164  0.0991 -0.0402
27614W        W43083  17.138  10.195  12.020 -0.0871 -0.4125 -0.0529
27615W        W43084   4.178  16.682   1.010 -0.2414  0.0719 -0.1534
27616W        W43085  17.847   5.555   4.128  0.0883 -0.1417  0.2140
27617W        W43086   4.969  12.987   0.844 -0.1276 -0.0417  0.0295
27618W        W43087  18.011  14.187   3.477  0.3118 -0.2825 -0.1138
27619W        W43088   1.807  17.449  12.547  0.2788  0.3963  0.0856
27620W        W43089   1.270   9.703   4.691  0.0246 -0.0684  0.0510
27621W        W43090   7.402  14.272   5.618  0.1276  0.0395  0.2081
27622W        W43091   9.768  11.537   2.916  0.0547  0.1377 -0.1258
27623W        W43092  18.654  16.157  14.100  0.0598  0.0417 -0.1034
27624W        W43093   2.719   2.262  14.590  0.0727  0.0681  0.0325
27625W        W43094  13.432  14.048  15.590 -0.2357 -0.3455 -0.3680
27626W        W43095   6.487  14.581   4.605 -0.0176  0.3700 -0.4332
27627W        W43096   2.228   2.424   0.186  0.1726  0.3725  0.2754
27628W        W43097  15.233   4.921  10.018 -0.2870  0.0148 -0.1379
27629W        W43098   8.572  17.336   1.895 -0.1563 -0.1081 -0.1881
27630W        W43099   3.278  10.534   2.179  0.0177  0.0770 -0.0206
27631W        W43100   6.544  16.014   2.369  0.1283  0.1630  0.0621
27632W        W43101   0.457   8.733   0.167  0.1291 -0.0000  0.0432
27633W        W43102   5.053  10.944   3.975  0.0920  0.0611  0.0009
27634W        W43103   9.493  16.599   0.033 -0.0665 -0.1557 -0.0611
27635W        W43104  15.236   3.458   4.906  0.3583 -0.2506 -0.0696
27636W        W43105  13.904  14.899   0.607  0.1559  0.0288 -0.0856
27637W        W43106   9.847   6.474  11.101  0.0912  0.3586  0.1475
27638W        W43107  10.494   3.105  14.990  0.0898 -0.1692  0.1307
27639W        W43108   9.304   8.311   1.268  0.2912 -0.1730 -0.4459
27640W        W43109   7.165   3.527  14.730  0.1417  0.1908  0.5849
27641W        W43110   8.708  16.122  10.900 -0.0358 -0.2135 -0.0114
27642W        W43111  10.351   7.960  11.068  0.2312 -0.0696  0.1690
27643W        W43112   7.765   3.362  12.276  0.0818  0.0880  0.1019
27644W        W43113  12.929   5.967  13.500  0.1528  0.1727  0.0458
27645W        W43114   3.678   2.770   1.627 -0.0594 -0.3477  0.2393
27646W        W43115   2.448  18.721   4.874 -0.1274 -0.0238 -0.0085
27647W        W43116   2.049  16.795   4.064  0.1468  0.0717  0.0765
27648W        W43117   0.205  11.733   0.409  0.4244 -0.1152 -0.1482
27649W        W43118   0.057   9.029  13.905  0.0668 -0.1612  0.1130
27650W        W43119  11.365  12.185   0.146 -0.0686 -0.2879 -0.1012
27651W        W43120   1.992  10.167   9.998  0.3505  0.0503  0.0774
27652W        W43121  12.819  10.709  13.369  0.0102 -0.1677  0.3708
27653W        W43122   6.187   3.249   3.253 -0.0377 -0.1029  0.1252
27654W        W43123   9.360  15.969  12.083 -0.2031  0.0621  0.0062
27655W        W43124   3.241  18.047   4.955  0.0710  0.3897  0.0269
27656W        W43125  14.819   4.754   2.996  0.0749 -0.2028  0.2172
27657W        W43126   5.573  18.386  14.053 -0.0848  0.1966 -0.2368
27658W        W43127  16.437   9.420  10.928 -0.1001 -0.3637 -0.1436
27659W        W43128  11.188  14.479  12.568 -0.0031 -0.1338  0.0377
27660W        W43129  11.739  14.598   4.129  0.0360 -0.1260 -0.1105
27661W        W43130  14.488   5.496   9.448 -0.0631  0.0052  0.0905
27662W        W43131  15.408   5.949   0.770 -0.0653  0.0162 -0.0882
27663W        W43132   4.398   2.021   2.664  0.0557  0.3696  0.2287
27664W        W43133   0.278   8.179  14.915  0.2053  0.1010 -0.1429
27665W        W43134  16.942   0.109  11.072 -0.1771 -0.1292 -0.2315
27666W        W43135  12.056  14.148  12.527 -0.1477 -0.1636  0.3672
27667W        W43136   1.247   7.679  12.796  0.0057 -0.2017 -0.2731
27668W        W43137   6.672  15.171  14.522 -0.0335 -0.1513  0.0759
27669W        W43138  16.558   3.122  10.781 -0.3624  0.1434 -0.2221
27670W        W43139  17.915   9.493  10.363 -0.0703  0.5447 -0.2282
27671W        W43140   6.694  16.940  13.610 -0.2248 -0.1814  0.1566
27672W        W43141  12.626  10.052   2.863  0.0030  0.1434  0.0402
27673W        W43142  12.831   8.940  11.498  0.1410 -0.0081 -0.0435
27674W        W43143  13.172  16.283   4.738 -0.2196  0.2731  0.0400
27675W        W43144  18.135   7.089  13.846 -0.1111  0.0187 -0.1003
27676W        W43145  11.784   5.640  11.461 -0.3957  0.5020 -0.3481
27677W        W43146   4.318   2.197  12.830  0.3159  0.2737 -0.2223
27678W        W43147   4.359  10.300   3.849  0.3552  0.2057  0.1376
27679W        W43148   4.796  12.912   3.264  0.1607 -0.2947  0.1541
27680W        W43149   3.705   3.556   1.263 -0.0319 -0.0752  0.1676
27681W        W43150  16.277   0.540  13.816 -0.1409  0.0608 -0.3483
27682W        W43151  14.486  12.325   2.613 -0.0903  0.3030 -0.1822
27683W        W43152  16.384   4.443   3.064  0.1041  0.1743 -0.2298
27684W        W43153   3.359  11.125  10.871  0.2312  0.0768 -0.1901
27685W        W43154   5.720  17.704  15.522  0.1923 -0.1001 -0.0623
27686W        W43155   4.813   9.982   3.549  0.0539 -0.1551  0.3680
27687W        W43156  11.025   5.032  10.382 -0.1381  0.2229  0.3407
27688W        W43157   4.050  13.793  15.274 -0.2080 -0.0605  0.0592
27689W        W43158  11.901   3.806   3.924  0.0677  0.2853  0.1535
27690W        W43159  15.103  14.550   5.140 -0.1092 -0.0344 -0.2390
27691W        W43160   7.853   9.397   0.920 -0.0332  0.3191 -0.2472
27692W        W43161   9.966  14.568  14.081  0.2277 -0.2254 -0.1070
27693W        W43162   4.145   2.150   5.595  0.0584  0.0772 -0.0462
27694W        W43163  16.242  13.942  14.116 -0.2649 -0.1138 -0.4444
27695W        W43164   4.620   5.446  12.972  0.1341  0.1030  0.0156
27696W        W43165   1.409  14.935   4.198 -0.2546  0.1037 -0.2206
27697W        W43166  16.118   5.566  15.376  0.0297  0.1229 -0.0520
27698W        W43167   7.104   8.219  10.339 -0.2464  0.0118 -0.0521
27699W        W43168  13.432  11.868   1.989 -0.0660  0.2330 -0.1183
27700W        W43169  18.123  12.966   1.795  0.3558  0.0624  0.1195
27701W        W43170  16.830   8.606   0.271  0.0235 -0.1816 -0.3071
27702W        W43171  15.030  11.705   2.510  0.0896 -0.1394  0.3338
27703W        W43172   9.973  15.362   3.489 -0.1516 -0.2646  0.2366
27704W        W43173   2.745  10.945   0.909 -0.1387  0.0328  0.0894
27705W        W43174   3.731   7.575  13.310 -0.0536  0.2318 -0.2526
27706W        W43175   3.987   0.056   2.522 -0.0607 -0.0831  0.1433
27707W        W43176  13.170  10.273  13.440  0.3300 -0.3792 -0.1315
27708W        W43177  18.675  16.466   4.946 -0.4433  0.0180 -0.2305
27709W        W43178   6.592  11.005  12.127 -0.1290 -0.1105 -0.1578
27710W        W43179   2.509   2.439   1.956  0.0312  0.1301  0.2358
27711W        W43180   8.206   9.285   1.942 -0.1055 -0.1628  0.0468
27712W        W43181   9.774   1.395  14.989 -0.4289 -0.0133  0.1048
27713W        W43182  13.688  12.412   2.704 -0.0993  0.0075  0.5029
27714W        W43183  18.552   9.804   0.716  0.1439  0.0279 -0.3791
27715W        W43184   6.941   8.099   4.049  0.1153 -0.1624  0.2831
27716W        W43185  15.397   7.306   3.652 -0.2115 -0.1083  0.3306
27717W        W43186   3.640  17.101  12.437 -0.0793 -0.4113  0.2155
27718W        W43187  14.237   1.276  15.669 -0.1018 -0.1108 -0.2538
27719W        W43188  12.265   4.001   0.525  0.0456  0.1423 -0.0217
27720W        W43189   1.721  14.528   3.217  0.1612 -0.2211  0.1300
27721W        W43190  10.241  14.851   3.105 -0.1593  0.0050 -0.0712
27722W        W43191   3.224   3.617   9.327 -0.1325 -0.1466  0.2979
27723W        W43192  11.749  18.369   0.013 -0.1957 -0.1702 -0.1773
27724W        W43193   9.383  15.273   0.346  0.1333  0.1969 -0.1997
27725W        W43194   5.746  18.655   1.771  0.3474 -0.2421 -0.2439
27726W        W43195   2.204  10.392  13.704 -0.2196  0.0101  0.3658
27727W        W43196   4.747   4.813  14.211 -0.2896  0.0704  0.1287
27728W        W43197   2.473   9.241   2.367  0.1141  0.2375  0.2841
27729W        W43198  16.677  13.842   4.501  0.1153  0.1143 -0.1366
27730W        W43199   1.866  12.955  11.506 -0.0490  0.1061 -0.3239
27731W        W43200  10.441  15.450   1.923 -0.1952  0.2416 -0.2416
27732W        W43201   7.233   1.157   1.184  0.2182  0.3789 -0.3206
27733W        W43202  11.487   0.395   5.601  0.0649 -0.1830 -0.0962
27734W        W43203   4.349   5.731   2.659  0.2107  0.0232 -0.2282
27735W        W43204   6.088  14.134   3.010  0.0027  0.0727  0.0198
27736W        W43205  13.731   9.051   0.224  0.1727  0.2906  0.3329
27737W        W43206   8.622  12.786  14.727  0.1188  0.0492 -0.1643
27738W        W43207   5.950   2.995   1.966  0.2838  0.0316 -0.0217
27739W        W43208  12.858   8.428  10.689 -0.1154 -0.0480 -0.1470
27740W        W43209  15.297   6.353   2.030  0.0705  0.0987 -0.0387
27741W        W43210   7.706  11.856   0.768 -0.3168 -0.1416 -0.0461
27742W        W43211   1.983  12.441   2.552 -0.0159  0.0541 -0.3322
27743W        W43212  16.254   1.115   2.461 -0.2209  0.3487  0.0049
27744W        W43213  11.709  12.431  14.694  0.0277  0.0778 -0.1856
27745W        W43214  14.770  18.654  10.712 -0.1515  0.2124  0.1486
27746W        W43215  18.000  17.357  13.119 -0.3315  0.0066 -0.0407
27747W        W43216   1.791   8.770   0.107  0.0278 -0.1815  0.0598
27748W        W43217  10.135   2.478   3.272 -0.1811  0.0794  0.0886
27749W        W43218  16.953   9.295  14.653  0.2467 -0.1159  0.1250
27750W        W43219   3.734  13.475  13.524 -0.1793 -0.0570  0.2790
27751W        W43220  14.524  13.104   5.043  0.1234 -0.1828  0.1093
27752W        W43221  12.045   9.618  12.477 -0.0344  0.1188  0.2032
27753W        W43222   7.486   3.468   5.186  0.3398 -0.0796  0.2098
27754W        W43223  10.782   9.201   3.106  0.2562  0.0057 -0.1851
27755W        W43224   2.720  17.859  12.075  0.1005  0.4651 -0.0726
27756W        W43225   1.956  12.903  15.150  0.1817 -0.1545 -0.3435
27757W        W43226   0.779   8.618  10.253  0.2795 -0.1376  0.1692
27758W        W43227   0.267  15.001  12.633 -0.0038  0.0199  0.0176
27759W        W43228   2.729   3.955  12.493 -0.2168  0.0815 -0.1376
27760W        W43229  15.832  11.040  14.364 -0.1836  0.0708  0.1243
27761W        W43230  17.205   6.410  13.962  0.0969  0.0667  0.2101
27762W        W43231  16.618   6.129   2.181 -0.4079  0.1176  0.3118
27763W        W43232  18.778  14.231   2.049  0.0513 -0.1708 -0.1618
27764W        W43233  14.812  14.479  10.266 -0.0178 -0.1032  0.0270
27765W        W43234   5.170  10.863   1.167 -0.2012 -0.2157  0.0026
27766W        W43235   1.101  10.341   4.632 -0.0128 -0.3760  0.2590
27767W        W43236   0.056  17.162   5.521  0.0089  0.2508 -0.1851
27768W        W43237   1.148   5.237  12.460  0.0245  0.2086  0.1693
27769W        W43238   9.975  15.386  12.304 -0.2731  0.1617 -0.0958
27770W        W43239   3.291  12.054  14.578 -0.2773 -0.1112 -0.1189
27771W        W43240  17.741  16.322   2.451  0.0178  0.0857  0.0209
27772W        W43241   0.959  11.039  12.964  0.1478 -0.1273  0.0583
27773W        W43242  11.467  16.908  10.554  0.3530  0.0326 -0.4110
27774W        W43243  15.787  14.678   3.063 -0.3663 -0.0151 -0.0879
27775W        W43244  11.917  16.740   3.233 -0.1612  0.2811  0.2778
27776W        W43245  10.052  16.703  12.580 -0.3565 -0.2384  0.2109
27777W        W43246   7.298   8.891   3.474  0.0949  0.0527  0.1661
27778W        W43247  16.058  13.929  12.091 -0.0798 -0.0595  0.2417
27779W        W43248   6.647   8.489  10.663  0.2074  0.0920  0.2204
27780W        W43249   6.970  13.468   0.338 -0.1203 -0.1308 -0.2316
27781W        W43250   3.424   3.002  14.357 -0.1172 -0.0990  0.2524
27782W        W43251   6.114   9.443   3.413 -0.0733  0.3291 -0.1017
27783W        W43252  10.190   1.748   2.696 -0.1792  0.2106  0.1230
27784W        W43253   9.001  15.677   1.901  0.0621 -0.5281 -0.0370
27785W        W43254  16.668   8.568  12.721  0.1472  0.3034 -0.1952
27786W        W43255  16.242   7.110  15.464  0.0784 -0.2290  0.0070
27787W        W43256   4.836   7.352   2.789  0.0585 -0.1539 -0.2501
27788W        W43257   1.998  17.359   5.205  0.0263 -0.0692 -0.0524
27789W        W43258   3.789  18.228   3.170 -0.2390  0.0470  0.1243
27790W        W43259  14.875   3.153  15.098  0.2658  0.0728 -0.2398
27791W        W43260   9.814   4.203   4.490 -0.0660  0.0117  0.0544
27792W        W43261  12.754  18.625   0.753  0.1476 -0.2551 -0.1667
27793W        W43262  11.951   2.355  10.811 -0.0006 -0.0839  0.0151
27794W        W43263  15.923  16.007   3.299 -0.2214  0.0679 -0.0165
27795W        W43264  10.975   8.998   2.660 -0.0976  0.3157  0.1055
27796W        W43265   9.726  15.464  14.401  0.0417  0.1347  0.1535
27797W        W43266   3.743  13.312   1.409  0.1369  0.1294 -0.1160
27798W        W43267  15.457   9.268  11.529  0.1026  0.1198  0.1089
27799W        W43268   3.854   6.742  14.103 -0.1611  0.0314  0.1469
27800W        W43269  10.100   9.659   2.339 -0.1594 -0.0773 -0.1105
27801W        W43270   2.421   1.533   1.533  0.0011  0.0117 -0.3545
27802W        W43271   6.746   1.391   1.310  0.3559 -0.0608 -0.3559
27803W        W43272   4.702  18.424  12.991  0.0295  0.0817 -0.0432
27804W        W43273  17.842  14.002   4.134 -0.2032 -0.1087  0.3470
27805W        W43274  14.808   6.021   1.522  0.2305 -0.3066 -0.2829
27806W        W43275  18.583   5.576   0.811  0.1991  0.2701  0.1213
27807W        W43276   8.154   6.525   0.984 -0.1964 -0.1417 -0.0960
27808W        W43277  11.843   4.064  13.775 -0.0910  0.2385 -0.1128
27809W        W43278   7.810   3.614  14.518  0.4184  0.0099  0.1498
27810W        W43279  18.447  12.278   5.022  0.0099 -0.0142 -0.2923
27811W        W43280  10.611   8.084  12.684 -0.0974 -0.2159  0.0369
27812W        W43281   1.881  17.847  13.493 -0.0524  0.1778 -0.1074
27813W        W43282   0.340   7.615  13.921 -0.2731  0.1304 -0.0433
27814W        W43283   7.582   2.477   2.407 -0.0587  0.0387  0.0969
27815W        W43284  14.518   3.415  13.494  0.0568  0.1999  0.0422
27816W        W43285  18.400  17.106  12.921  0.2216  0.0293  0.1246
27817W        W43286   8.877   8.032  11.313  0.1060 -0.5104 -0.1329
27818W        W43287  11.242  12.307   1.070 -0.0381 -0.1213  0.0197
27819W        W43288  18.535   9.112   1.945 -0.2154 -0.0080 -0.0897
27820W        W43289  16.117  11.126   1.315 -0.4462 -0.1235 -0.1692
27821W        W43290   7.246   8.313  15.545 -0.1421 -0.1516  0.1541
27822W        W43291   9.881   1.408  10.849 -0.0809  0.1375 -0.0202
27823W        W43292  16.099  12.425  13.190  0.0812 -0.4153 -0.2593
27824W        W43293   6.652  14.286   4.234 -0.0710 -0.1103 -0.1998
27825W        W43294  14.894  10.634  12.802  0.1135 -0.1838  0.0413
27826W        W43295   0.959  12.159  11.346  0.0620  0.5105  0.0555
27827W        W43296  15.141   7.449  14.486  0.0151 -0.0989  0.1309
27828W        W43297   9.318   2.218   3.783  0.2871 -0.2229  0.1263
27829W        W43298  15.314  11.221  11.779 -0.0654 -0.1988 -0.1315
27830W        W43299   6.409  10.184   2.463 -0.0092 -0.1727  0.1324
27831W        W43300  14.001  18.050  14.790  0.1362  0.2127  0.2292
27832W        W43301   7.757   6.557  14.626  0.2645  0.0477  0.1858
27833W        W43302   1.194  13.323  11.951  0.2923  0.1957  0.2402
27834W        W43303  13.563   3.833   1.991 -0.0802  0.1174 -0.1317
27835W        W43304   4.976  15.252   2.308  0.2758  0.1028  0.1267
27836W        W43305  14.097   9.171   2.476 -0.1513  0.1789 -0.0631
27837W        W43306  11.573  13.229   3.086  0.0300 -0.0051 -0.5163
27838W        W43307   4.482  10.270  13.785  0.3409  0.0626 -0.0664
27839W        W43308   6.449  18.260  14.515 -0.3068  0.3360 -0.0887
27840W        W43309  15.659  14.941  11.340  0.4409 -0.2036 -0.1236
27841W        W43310  17.834   5.138  12.664  0.1640 -0.0418  0.0294
27842W        W43311   6.121  15.154   0.663 -0.1479  0.1855  0.0089
27843W        W43312   3.482   9.775   3.906 -0.0415  0.3059 -0.0312
27844W        W43313  14.210  15.424   2.668 -0.2129 -0.3591 -0.0996
27845W        W43314  17.997   9.952   3.071  0.0150 -0.1099 -0.1144
27846W        W43315   7.583  11.083   1.606  0.2010  0.0002 -0.3241
27847W        W43316  14.049  16.224   4.106 -0.2260 -0.3460 -0.0103
27848W        W43317  14.491   6.737   4.644  0.2652 -0.4885 -0.0085
27849W        W43318  10.620  11.332   4.925  0.1905  0.0917  0.2100
27850W        W43319  18.466   3.279  12.501 -0.1524 -0.1256  0.1776
27851W        W43320  18.743  12.539   0.866  0.3089 -0.1236 -0.0843
27852W        W43321   9.513   6.623   1.377 -0.2649  0.0755  0.0435
27853W        W43322  14.443   6.907  13.234  0.0565 -0.0083 -0.2214
27854W        W43323  13.598   6.986   5.109 -0.0787 -0.2758  0.0728
27855W        W43324   8.048   5.957  11.573 -0.1811 -0.1755  0.3599
27856W        W43325   1.827  15.210   4.129  0.4231 -0.1732 -0.0255
27857W        W43326  15.539   9.428   5.510  0.0572 -0.1334  0.0651
27858W        W43327  18.563  17.547  11.741  0.1611  0.0528 -0.3118
27859W        W43328   9.971  15.427   1.554  0.2422  0.0378  0.0381
27860W        W43329   2.749  11.997   5.714  0.0947 -0.3102  0.0701
27861W        W43330   6.822   7.988  14.899 -0.1487  0.0832 -0.1043
27862W        W43331   0.475   8.817   4.890  0.3003 -0.2026  0.1779
27863W        W43332  11.344   9.825   5.063 -0.2879  0.0126  0.1598
27864W        W43333   8.937   6.688  11.731  0.1634  0.1964 -0.0415
27865W        W43334   6.988   9.285  12.459 -0.1327 -0.1504 -0.1588
27866W        W43335  10.542  13.779   2.520  0.2895 -0.0922  0.0619
27867W        W43336  10.195   1.309   5.208  0.2047 -0.3345 -0.2745
27868W        W43337  17.688   8.539  15.328 -0.0503  0.2537  0.1925
27869W        W43338   2.480  17.034  11.935 -0.1912  0.2571 -0.0546
27870W        W43339   8.458  16.707   3.319 -0.1316 -0.2295  0.0197
27871W        W43340  16.868  17.156  10.437 -0.1274  0.3141 -0.0764
27872W        W43341  12.872   5.977   2.287 -0.0562 -0.1389  0.4823
27873W        W43342  14.267  10.641  11.634  0.0990 -0.0883  0.0890
27874W        W43343   8.318   7.890  10.510 -0.1006  0.1432 -0.3363
27875W        W43344   2.980  18.056   0.274 -0.2352 -0.1744 -0.1296
27876W        W43345   7.418   0.787  12.074  0.3583  0.0947 -0.0249
27877W        W43346   4.115   1.569   1.259  0.0541  0.0387 -0.1075
27878W        W43347   4.000  13.760   2.325 -0.2332  0.0822  0.3398
27879W        W43348   2.510  16.410  12.970  0.1818  0.2020  0.0337
27880W        W43349  18.498   1.921   2.480  0.1771 -0.2075 -0.0055
27881W        W43350  10.814  10.176   2.793 -0.1565  0.0736 -0.2872
27882W        W43351  10.831  10.740  11.917  0.0047 -0.1384  0.3015
27883W        W43352  15.416   5.045  14.626 -0.0242  0.1163  0.4441
27884W        W43353  18.347  11.390  12.337 -0.1004  0.1806  0.1908
27885W        W43354   4.291   8.741  13.560 -0.0193  0.2495 -0.2689
27886W        W43355  13.005  11.267  12.644 -0.0249 -0.2082 -0.1132
27887W        W43356   0.876  16.142   3.796  0.1462 -0.2362  0.0319
27888W        W43357  10.895  12.365   2.661 -0.2478  0.2534  0.0235
27889W        W43358  17.467  17.565  14.362 -0.0938  0.0173 -0.1250
27890W        W43359   0.976   3.239  10.256 -0.0221  0.0956  0.1535
27891W        W43360  13.056  14.956  11.311  0.0764  0.1577 -0.2512
27892W        W43361   2.180  12.190   3.841  0.0177 -0.0560 -0.0097
27893W        W43362  16.031  15.444   4.878  0.1006 -0.1401  0.0376
27894W        W43363  11.472  10.301   0.277  0.2144 -0.1996  0.1328
27895W        W43364  17.586  15.837  10.787 -0.1071  0.1624 -0.0170
27896W        W43365   5.178   5.421   3.525  0.1435 -0.0433 -0.2708
27897W        W43366   2.675   9.627   2.596  0.0100 -0.0830 -0.0325
27898W        W43367  10.809   2.611   4.988 -0.4735 -0.0644  0.0392
27899W        W43368   9.752  14.159  12.407 -0.2368  0.1164 -0.1677
27900W        W43369  10.695  10.118   5.881 -0.0117 -0.1195 -0.0297
27901W        W43370   1.984  18.216  15.634 -0.5401 -0.1833 -0.0822
27902W        W43371   9.937   7.909  15.204  0.0932 -0.0726  0.0065
27903W        W43372  10.447  17.995  15.623  0.1246  0.0664  0.3542
27904W        W43373   3.222   8.172   0.795  0.0988  0.0345  0.3198
27905W        W43374   9.482   2.811  13.955  0.0930  0.3001 -0.0669
27906W        W43375   3.113  16.360  14.555 -0.3445  0.1484  0.0535
27907W        W43376  13.280   4.774  13.092 -0.0280 -0.1321  0.0068
27908W        W43377   3.960   3.346   4.493  0.0182  0.3289  0.1252
27909W        W43378   3.692   5.288   1.919  0.0043 -0.1534 -0.3120
27910W        W43379   0.164   1.016  12.925 -0.0798  0.1880  0.1409
27911W        W43380   6.282   5.952  14.037  0.0665  0.0806  0.1968
27912W        W43381  12.240   2.963   5.156 -0.0340  0.1437 -0.2537
27913W        W43382   1.598   5.746   2.267 -0.1179 -0.0618  0.0146
27914W        W43383   6.606   1.804  15.105 -0.0054  0.0070  0.1893
27915W        W43384   3.571   4.965  14.405 -0.1660  0.2536  0.0842
27916W        W43385  10.028   0.207  14.132 -0.0427 -0.1185 -0.1475
27917W        W43386   7.869  15.842  13.269  0.0511 -0.2641 -0.0948
27918W        W43387   1.186  12.473   1.548  0.1354 -0.1221 -0.0602
27919W        W43388  13.061   0.840   1.726  0.2877  0.3323 -0.0811
27920W        W43389  13.103   3.217   3.581  0.0208 -0.0800 -0.0555
27921W        W43390  12.101   9.813   1.408 -0.0450 -0.1896  0.0626
27922W        W43391  10.523  10.325  12.614 -0.1261  0.1603 -0.3213
27923W        W43392   4.697  15.383   0.281  0.0376  0.2441 -0.0796
27924W        W43393  13.438  12.705   4.249 -0.4860 -0.1308 -0.0851
27925W        W43394  10.155  15.908  15.128  0.5069  0.1804 -0.3496
27926W        W43395  10.019  14.159   1.055  0.0271 -0.0405 -0.3392
27927W        W43396   5.625  10.415   5.385 -0.1996  0.1424 -0.0630
27928W        W43397   8.727  14.819  11.316 -0.1989 -0.0465  0.0131
27929W        W43398  13.618  13.688   5.184  0.2764 -0.0498  0.0760
27930W        W43399   5.188   3.416  13.217  0.1939  0.1421  0.0510
27931W        W43400  14.275   5.849   9.714 -0.0961  0.0287 -0.1137
27932W        W43401   5.712   7.321  14.805  0.0165 -0.2241 -0.3533
27933W        W43402   3.243  13.657  12.774  0.3358  0.0831 -0.0075
27934W        W43403  14.617  17.642  14.857  0.4405  0.2063  0.1571
27935W        W43404   4.212   2.041   4.994  0.1129 -0.1024  0.0142
27936W        W43405   9.776  15.378  12.786 -0.1463  0.2399 -0.0688
27937W        W43406  14.300   0.239  11.276 -0.4058 -0.1225  0.1051
27938W        W43407   7.025  11.641  10.350  0.2768 -0.0117  0.0328
27939W        W43408  15.226   6.707   1.661 -0.1100  0.0462  0.2924
27940W        W43409  13.433  12.317   3.121 -0.2013 -0.0968  0.1385
27941W        W43410   4.639   4.637   0.288 -0.2476  0.1497 -0.1905
27942W        W43411   9.485   4.139   1.172  0.0057  0.3234 -0.0118
27943W        W43412   4.655   6.575   3.503  0.1590 -0.1668  0.0294
27944W        W43413   2.915  14.578   2.540  0.1693 -0.0100  0.1637
27945W        W43414   6.785  10.988   1.961 -0.1948  0.1520 -0.0138
27946W        W43415   7.296  12.972  10.637 -0.1628 -0.0571 -0.0625
27947W        W43416  13.061  12.686   3.089 -0.1937 -0.3354 -0.3104
27948W        W43417   5.029  11.285  15.173 -0.0743 -0.0288 -0.1060
27949W        W43418  11.221   5.291   1.691  0.1256  0.1017  0.0840
27950W        W43419   3.493  13.492   3.103  0.0502 -0.1587 -0.1451
27951W        W43420   1.590  16.035  12.127 -0.1773 -0.2015 -0.1290
27952W        W43421   2.810   2.758  12.200 -0.2685  0.2475 -0.2257
27953W        W43422  11.656  15.897   2.150  0.2808  0.3007 -0.0981
27954W        W43423   7.750  10.437  12.313  0.0665 -0.0490  0.1262
27955W        W43424  17.351  13.182  12.692  0.0520 -0.3509  0.0225
27956W        W43425   4.936  12.663   3.713  0.0943  0.1967  0.1969
27957W        W43426  16.455  10.877  12.242 -0.0612 -0.1462  0.0275
27958W        W43427   5.686   0.016  12.268 -0.2092 -0.1182 -0.1041
27959W        W43428  17.328   6.816  13.483  0.0638  0.0170 -0.0065
27960W        W43429  13.260  12.413  13.372 -0.2133 -0.0249 -0.2149
27961W        W43430  14.962   4.319  15.041 -0.2732  0.1202 -0.2080
27962W        W43431   4.946   6.939  10.965  0.0963  0.4575  0.0888
27963W        W43432  11.276  14.511   2.803 -0.0903 -0.0128 -0.0700
27964W        W43433  15.727  15.009   1.705  0.3415 -0.1274  0.0001
27965W        W43434   2.720  12.141   3.073 -0.0035 -0.0159  0.0255
27966W        W43435  13.135   9.298  13.739 -0.1749  0.1924 -0.3274
27967W        W43436   5.956  18.642   1.338  0.3208  0.3353  0.1061
27968W        W43437  12.182   3.231  11.017 -0.0575 -0.2069 -0.3251
27969W        W43438   7.121  12.682  11.032  0.3161 -0.1782  0.0497
27970W        W43439   9.753   5.283  13.794 -0.1024  0.1136 -0.2477
27971W        W43440   9.298   3.991  10.517  0.0383  0.0779  0.1500
27972W        W43441   3.530   2.074  13.188 -0.2485  0.0573 -0.0851
27973W        W43442   6.723   5.507   5.082 -0.1583  0.0008 -0.2474
27974W        W43443  18.498  12.704  12.118  0.2202  0.0319  0.0987
27975W        W43444   2.510   8.813  11.518  0.0379  0.1021  0.0662
27976W        W43445   0.865  11.775   4.722 -0.0189  0.2116  0.0805
27977W        W43446   0.288  16.605   3.515 -0.2678 -0.2172  0.0848
27978W        W43447  14.610   6.220   4.096  0.4252  0.1076  0.1871
27979W        W43448   5.754  14.578   3.628  0.1504  0.3220 -0.0002
27980W        W43449  18.439  11.258   1.352  0.1211  0.2357  0.0204
27981W        W43450  11.588   3.055  10.639  0.1486  0.1249  0.0345
27982W        W43451   5.967  16.198   1.856  0.2034 -0.0795 -0.2018
27983W        W43452   6.598   1.229   4.237  0.1694  0.0911 -0.1165
27984W        W43453  18.344   0.105  14.551  0.3078 -0.0627 -0.4294
27985W        W43454   3.134  16.774  11.591 -0.2094  0.2506 -0.2938
27986W        W43455  15.250  13.551  12.235 -0.0351  0.1646  0.2913
27987W        W43456  14.481   9.617   4.930  0.0434  0.2318 -0.0492
27988W        W43457   6.051  15.737  10.465  0.2583  0.2259 -0.0624
27989W        W43458   7.974   2.528   2.082 -0.2321  0.5108 -0.3054
27990W        W43459   9.107   0.771   0.435 -0.1332  0.2686  0.0078
27991W        W43460  10.526  14.509   1.829 -0.2770 -0.2583 -0.0008
27992W        W43461  18.544   5.250   2.657 -0.2293  0.4364  0.1383
27993W        W43462  12.268   3.198   2.997 -0.1871  0.2503  0.0723
27994W        W43463   0.096   1.560   3.292  0.0476  0.1633  0.0934
27995W        W43464  18.097  11.308  13.956 -0.3877 -0.0779  0.1356
27996W        W43465  12.765   6.116  13.066  0.2085 -0.4345 -0.0103
27997W        W43466   6.647  11.738  11.500  0.0366 -0.0769 -0.0553
27998W        W43467  15.455   8.769   0.827  0.0977  0.0893 -0.0253
27999W        W43468   0.508   0.015   4.265 -0.1692 -0.3934 -0.0336
28000W        W43469  13.184   6.034   2.672  0.0569 -0.3333  0.0965
28001W        W43470  15.699  14.778   5.732 -0.2274  0.2073 -0.2145
28002W        W43471  13.268   8.590  15.178  0.0648  0.3826  0.2187
28003W        W43472   6.609  13.546   2.581 -0.1522  0.5037 -0.1234
28004W        W43473  11.705   8.499  13.163 -0.2703  0.3479 -0.2383
28005W        W43474   9.232  16.586   5.037  0.0508 -0.0709 -0.0106
28006W        W43475  12.474   4.457   0.566  0.1467  0.0084  0.1581
28007W        W43476   9.280  11.377   4.227 -0.1635  0.0138 -0.2284
28008W        W43477   8.998   1.223   0.656 -0.0943  0.1323 -0.2732
28009W        W43478   9.482  12.349   3.144  0.1420 -0.1200 -0.0321
28010W        W43479  16.445   4.311  14.354 -0.2033 -0.1252  0.2014
28011W        W43480   9.666   6.386  14.136 -0.1868  0.0495  0.1209
28012W        W43481  12.275  14.396   1.637  0.0050  0.1109 -0.0222
28013W        W43482   0.429   4.480  14.487  0.1832  0.0191 -0.1779
28014W        W43483   9.101   5.268  10.260 -0.0958 -0.0673  0.3901
28015W        W43484   4.940   1.861   1.183  0.1493  0.0038 -0.1203
28016W        W43485   8.699  15.870  12.655 -0.0520  0.1229  0.1472
28017W        W43486   5.172   5.988  13.695 -0.0669 -0.5100 -0.2602
28018W        W43487  16.889  14.099   0.771  0.1718  0.2028  0.0011
28019W        W43488   1.331  13.210   3.231  0.1542  0.0225 -0.0702
28020W        W43489  17.454   8.918   1.409 -0.1342 -0.0247 -0.1698
28021W        W43490   7.217   0.659  14.213 -0.3312 -0.2149 -0.0078
28022W        W43491   9.425   6.018   1.986  0.1173 -0.0051 -0.2820
28023W        W43492   5.926  14.556   0.651 -0.0700  0.0223 -0.0556
28024W        W43493  11.893   9.181  11.790  0.0553 -0.0293  0.1278
28025W        W43494  17.152   9.147  14.059  0.1007 -0.1685 -0.3139
28026W        W43495   8.495  10.754  11.884 -0.1518  0.0928  0.1577
28027W        W43496  10.723   2.322  15.155  0.1009  0.0220 -0.1709
28028W        W43497   9.889   0.123  11.218  0.2759  0.0518 -0.2606
28029W        W43498  13.328  13.160  14.514  0.1309  0.0448  0.2382
28030W        W43499   3.585   7.539  11.132  0.0940 -0.0345  0.2386
28031W        W43500  18.196   5.396  14.424 -0.0809  0.1013  0.2806
28032W        W43501   5.430  18.347  11.057 -0.0092  0.0742 -0.0340
28033W        W43502   3.564   5.382  11.037  0.6196  0.0417 -0.1563
28034W        W43503  17.621  11.290   4.602  0.2167  0.0380 -0.1157
28035W        W43504   3.035   9.213   9.993  0.2245  0.0507  0.1135
28036W        W43505  15.153   8.759  14.920 -0.1121  0.1983 -0.2976
28037W        W43506   4.380   5.013   3.075  0.1540 -0.2815 -0.1257
28038W        W43507  10.646  12.303  15.264 -0.1174 -0.1909 -0.0808
28039W        W43508   0.615  11.596  13.682 -0.1276  0.0042 -0.2917
28040W        W43509  11.764  11.413  11.472 -0.1610 -0.3852 -0.1149
28041W        W43510  15.628  13.427  11.236 -0.2217  0.0631  0.0495
28042W        W43511  13.890  13.085   2.761 -0.0117 -0.0135 -0.3039
28043W        W43512   7.427  13.259  12.737  0.0352 -0.2870  0.1536
28044W        W43513  13.083  12.800   0.223  0.1146  0.1793  0.0673
28045W        W43514  16.818  11.585  15.339  0.1242  0.2952  0.0685
28046W        W43515   8.599   0.178  15.387 -0.2413  0.0822  0.1040
28047W        W43516   0.128   9.054  14.402  0.0080 -0.3511 -0.1121
28048W        W43517  15.100  18.637   3.444  0.0622  0.1727 -0.0502
28049W        W43518  15.498  14.216  13.484 -0.0166  0.2461 -0.3354
28050W        W43519   5.323   9.232   0.134  0.2710 -0.0118 -0.1142
28051W        W43520  12.163   2.481  12.620  0.0154  0.2119  0.0850
28052W        W43521   2.966   9.195   9.379  0.2463 -0.2586  0.0418
28053W        W43522   9.223  11.439   2.283 -0.0424  0.1213 -0.0730
28054W        W43523  11.291   7.851  11.473  0.0443 -0.0816  0.3378
28055W        W43524   5.523   6.225   4.017 -0.1199  0.1381 -0.0859
28056W        W43525   4.165   6.767   2.221 -0.0290  0.1052  0.1403
28057W        W43526  16.322   8.877   2.962  0.3281  0.2679 -0.0991
28058W        W43527   8.469  18.159   2.968  0.4677  0.1662  0.2175
28059W        W43528   6.983   6.177  13.361  0.1768  0.1081 -0.1433
28060W        W43529  16.206  13.183  15.325  0.0107 -0.0074 -0.3740
28061W        W43530  16.338   2.753   3.726  0.0766 -0.0029  0.0435
28062W        W43531   1.942  16.768  13.153  0.1876 -0.0308  0.2743
28063W        W43532   0.604   8.610   1.043  0.3251 -0.0607 -0.0004
28064W        W43533  15.102  16.023   3.863  0.0890  0.1507  0.3493
28065W        W43534  10.559   2.412  11.680  0.0665 -0.1870  0.0089
28066W        W43535   4.165   8.497   1.053 -0.0144  0.0171 -0.1185
28067W        W43536  12.505   0.907  10.852  0.3067  0.1088  0.4061
28068W        W43537  17.174  16.503   1.260 -0.1465 -0.3422 -0.1821
28069W        W43538   8.504  15.975   2.443  0.0185 -0.1195 -0.2299
28070W        W43539   1.362   7.673   5.040 -0.1326 -0.0114 -0.0651
28071W        W43540  16.909   6.356   3.886 -0.1956  0.0532  0.1133
28072W        W43541   4.304   3.053  14.083  0.1915  0.4134 -0.0637
28073W        W43542   9.996  12.745  12.858  0.1179  0.1474  0.3693
28074W        W43543  16.161   1.260   3.843  0.2227 -0.0746  0.0208
28075W        W43544  10.389  15.650   3.828  0.0217 -0.2089  0.2338
28076W        W43545  12.509   9.911   0.371 -0.0266  0.2648  0.2455
28077W        W43546   7.792   1.147   5.409 -0.0836  0.0126  0.0912
28078W        W43547  12.217   0.976   9.404 -0.0444  0.2629  0.2542
28079W        W43548  11.451   1.235   3.729  0.1421  0.1692  0.0805
28080W        W43549  16.782  13.974   1.981 -0.0651 -0.2370 -0.2871
28081W        W43550   0.876   5.585   2.788  0.5024 -0.1758 -0.0430
28082W        W43551   7.755   5.789   1.921  0.1822  0.2568  0.1380
28083W        W43552   2.087  15.008  10.148  0.1412 -0.0105  0.1810
28084W        W43553   1.030  14.305   4.841 -0.3363  0.1032 -0.1217
28085W        W43554  10.176   1.178   5.705  0.0698  0.2235 -0.1230
28086W        W43555  15.096  18.049  12.281  0.0963 -0.1311 -0.0231
28087W        W43556  18.152   2.877   4.595  0.0361 -0.3322  0.1166
28088W        W43557   2.730  12.993  12.664  0.2031 -0.0295  0.2163
28089W        W43558  10.989   5.811   0.557 -0.1775 -0.1718  0.0295
28090W        W43559  10.131   1.848   0.101  0.0141 -0.1254  0.1403
28091W        W43560  17.812   6.468  10.921  0.0872 -0.2159  0.0249
28092W        W43561  16.732  12.664  12.478  0.0825 -0.0686 -0.2387
28093W        W43562   6.816   1.955  13.747  0.2998 -0.2675  0.1826
28094W        W43563  13.708  12.071   0.430 -0.2024  0.1400  0.0051
28095W        W43564   9.520  14.480  11.617  0.0491 -0.1475 -0.0839
28096W        W43565  15.193  11.075   0.957 -0.3533 -0.0337  0.1292
28097W        W43566  15.887   3.788   2.616  0.0430 -0.2358  0.0414
28098W        W43567   1.185   3.180   4.096  0.1047  0.5350  0.1236
28099W        W43568   7.388  14.252   1.782 -0.1241 -0.1063  0.1609
28100W        W43569   9.743   5.396   0.854  0.1212 -0.1210  0.2520
28101W        W43570  17.704  15.343   3.763 -0.1848 -0.0946 -0.1347
28102W        W43571  12.233  18.390   0.138  0.1358  0.0375 -0.1982
28103W        W43572   3.193  14.690   2.947  0.2119 -0.2547  0.0773
28104W        W43573   2.579   9.321   5.109 -0.0581 -0.1732 -0.1695
28105W        W43574   3.843  15.104  15.134  0.1565  0.4351  0.0882
28106W        W43575   0.679  11.773   0.998 -0.0017  0.0522 -0.2233
28107W        W43576  15.000  11.597  15.236 -0.0881  0.0312  0.0607
28108W        W43577   9.605  15.161   3.208 -0.3257 -0.1910  0.2749
28109W        W43578   8.801  12.704  11.872  0.2821  0.3752  0.0834
28110W        W43579   0.335  12.710   4.450  0.3134  0.0319  0.0944
28111W        W43580  18.100  12.313   3.412 -0.1059 -0.0728 -0.0342
28112W        W43581  16.675  14.188   1.285 -0.0157  0.3055 -0.1884
28113W        W43582  11.643   6.942   2.370 -0.0457  0.2026  0.1515
28114W        W43583  18.678   8.217   2.275  0.0341  0.1357 -0.1224
28115W        W43584   0.688   0.633   2.238  0.1475  0.2508 -0.2693
28116W        W43585  17.499   3.576   1.988  0.2318  0.0464  0.3438
28117W        W43586   2.968  17.759  12.485 -0.0555 -0.1798 -0.0646
28118W        W43587  12.802   9.011  13.561 -0.1242 -0.1033 -0.1802
28119W        W43588  16.682   4.455  13.883  0.0247  0.0160  0.0620
28120W        W43589  17.170   9.861   2.929 -0.0631  0.2135 -0.4672
28121W        W43590  14.217   1.603  11.976  0.1778  0.1211  0.2245
28122W        W43591   9.419   1.444  10.654  0.1925  0.0993 -0.1132
28123W        W43592   0.682  13.296   2.084  0.4322  0.1157 -0.0673
28124W        W43593  11.451  11.723  12.987 -0.2336 -0.0831  0.0149
28125W        W43594   5.557  11.638  14.095  0.2270 -0.0934 -0.1629
28126W        W43595   9.817   9.179  13.419  0.1147  0.1216 -0.3026
28127W        W43596   9.197   0.349  10.666  0.0669 -0.1546  0.2396
28128W        W43597  10.646   6.881   2.646 -0.1716  0.1482  0.0036
28129W        W43598  11.132  17.373   0.551 -0.3768 -0.3546 -0.0813
28130W        W43599  15.758   3.751  11.080  0.0266  0.0356  0.2128
28131W        W43600  16.729   3.579  15.385 -0.0458 -0.2881 -0.1479
28132W        W43601  10.155  18.572   3.983 -0.0777  0.1887 -0.1549
28133W        W43602  10.937   3.930  15.306 -0.2026 -0.1639 -0.4314
28134W        W43603  11.378   9.304   5.168 -0.0290 -0.3141  0.0893
28135W        W43604   2.228  15.814  11.125  0.0623  0.0537 -0.0823
28136W        W43605   8.624   1.941   1.973 -0.0664 -0.1141 -0.1417
28137W        W43606  15.991  11.488   3.018  0.1320  0.0426 -0.1113
28138W        W43607  10.296   0.090   4.350 -0.6605 -0.0241  0.0248
28139W        W43608  10.869   1.992  11.059  0.0276 -0.1301 -0.1167
28140W        W43609  10.535  17.295  11.730  0.1294 -0.0527 -0.1313
28141W        W43610   4.382   6.808  11.375 -0.1612  0.3530 -0.3381
28142W        W43611  10.564   3.947   0.395 -0.0200  0.4020  0.1519
28143W        W43612   3.070  15.271   4.904 -0.0012  0.0113 -0.1189
28144W        W43613  12.481  17.232   0.540 -0.0434  0.1649  0.2902
28145W        W43614  17.486  13.588  10.870  0.1574 -0.2812  0.1017
28146W        W43615   3.059   4.139   2.972 -0.0519  0.0161  0.1579
28147W        W43616  17.783   7.504   4.534  0.0890 -0.0523  0.3124
28148W        W43617  18.529  17.061   4.039 -0.2810 -0.0875 -0.0967
28149W        W43618   6.573   6.650   1.663 -0.0724  0.0879 -0.2145
28150W        W43619   3.345   0.008  10.136 -0.0569  0.3540 -0.0612
28151W        W43620   7.827  15.890   3.405 -0.1310  0.0102 -0.0247
28152W        W43621  11.608  15.982  11.795 -0.1903  0.1992  0.3046
28153W        W43622   9.021  13.350  15.559 -0.2510 -0.2976 -0.2676
28154W        W43623   5.465   3.083  12.271  0.0225  0.0288  0.0852
28155W        W43624  18.372  17.419   2.885  0.2281 -0.2033 -0.1002
28156W        W43625   3.276  16.022  12.396  0.1057  0.0995 -0.2342
28157W        W43626   7.767   8.920   5.041 -0.2588  0.0949 -0.3476
28158W        W43627  17.480   8.801  13.856 -0.0239  0.2910 -0.0173
28159W        W43628  15.553  18.693   3.046  0.0584  0.4045 -0.0045
28160W        W43629   3.562  11.155   1.443 -0.0391 -0.2282  0.2096
28161W        W43630   7.155   2.331   0.447  0.1737  0.0799  0.1146
28162W        W43631   5.959  11.298   1.335 -0.1499  0.1269 -0.0684
28163W        W43632   2.218  17.750   2.863 -0.1887  0.0698  0.2625
28164W        W43633   0.137  10.013  12.305 -0.0856  0.1760 -0.0025
28165W        W43634  17.673  14.722   4.778 -0.3544 -0.1127 -0.1470
28166W        W43635   4.626  13.890  14.522 -0.2613 -0.0862  0.3957
28167W        W43636   2.718  12.837  10.482  0.2936 -0.2149 -0.3127
28168W        W43637   7.066  15.287   3.295 -0.1278  0.2441  0.2142
28169W        W43638  16.776   7.700  15.055  0.1808 -0.2804  0.1362
28170W        W43639   4.837  16.675  13.937  0.0624 -0.3392 -0.0329
28171W        W43640   0.175   3.190   3.181 -0.5071  0.4309  0.2470
28172W        W43641   6.838  13.459  15.062 -0.1714 -0.1546  0.4769
28173W        W43642   8.873  10.371   4.215 -0.1635 -0.1629  0.2684
28174W        W43643  17.361   7.417   0.532 -0.0964 -0.1262  0.1432
28175W        W43644  10.986   4.884   5.045 -0.1117  0.1750 -0.3405
28176W        W43645  10.531  14.321   1.358  0.1209  0.0826 -0.0926
28177W        W43646   6.832  11.492  13.228 -0.1771 -0.0340  0.2727
28178W        W43647   7.551  18.095   9.970  0.5705 -0.0089 -0.0676
28179W        W43648   7.919  17.800  10.578 -0.0379 -0.0043  0.0516
28180W        W43649   5.864   1.872  12.213  0.3992  0.1304  0.2318
28181W        W43650  13.504  10.883   4.941  0.1356  0.3995 -0.1637
28182W        W43651   8.437  10.595   5.458  0.1587 -0.0188 -0.0850
28183W        W43652   5.421   1.012  12.003  0.2104  0.0754  0.1441
28184W        W43653   3.072   4.400   4.844  0.0106 -0.2773  0.0661
28185W        W43654   6.748  14.141   1.428 -0.0689 -0.2352 -0.0699
28186W        W43655   4.543   6.920   1.517 -0.0199 -0.3530  0.0284
28187W        W43656  15.927   7.656  14.453  0.1333  0.3253  0.3002
28188W        W43657  12.989   7.821  13.530 -0.6286  0.1662  0.2536
28189W        W43658   0.168  11.557  15.104 -0.0187  0.0787 -0.0981
28190W        W43659  11.813  10.798   2.384  0.0142 -0.3132 -0.3162
28191W        W43660   7.225   1.972   4.302 -0.1443  0.2921 -0.0883
28192W        W43661   5.488  11.319   4.077  0.3417 -0.0044  0.4973
28193W        W43662  10.059   0.723  13.820 -0.1584  0.0316 -0.0955
28194W        W43663  15.095   8.547   2.225  0.1131 -0.0523 -0.0007
28195W        W43664   5.158  13.533  13.732  0.2573  0.0135 -0.1451
28196W        W43665   0.677  11.754  12.398 -0.1744  0.1252  0.1417
28197W        W43666  12.497  15.611  11.347  0.2078 -0.0790 -0.2283
28198W        W43667  17.662   4.319   4.966  0.0532 -0.1178  0.1206
28199W        W43668   1.765   9.251   5.001 -0.2117 -0.1437 -0.0745
28200W        W43669  10.626   7.125   5.114 -0.0348 -0.1020 -0.2157
28201W        W43670   6.664  18.437  15.387 -0.1684 -0.2042  0.1857
28202W        W43671   1.858  10.992  12.243 -0.2335 -0.1263  0.1554
28203W        W43672  15.723  11.554   1.973  0.0477 -0.1647  0.0780
28204W        W43673  10.815  14.965  14.611 -0.1285  0.4043 -0.2261
28205W        W43674   3.594  15.587   5.537  0.2840 -0.0946 -0.3754
28206W        W43675   8.597  14.917   5.277 -0.0095 -0.3420  0.0162
28207W        W43676  16.470  11.593   2.101 -0.0638 -0.0387  0.2123
28208W        W43677  18.147   2.840   2.178 -0.1171  0.1195 -0.2188
28209W        W43678  15.113  16.905   2.646 -0.1083 -0.2481  0.0429
28210W        W43679  17.209  11.926   1.702 -0.3602 -0.3283 -0.0470
28211W        W43680  18.508  11.169   2.370  0.2751 -0.1833  0.0646
28212W        W43681  13.544   4.792   1.614  0.4076 -0.0740  0.1857
28213W        W43682   2.455  14.709   1.133 -0.1484 -0.3147  0.0292
28214W        W43683   0.348  15.901   2.183  0.1455  0.0240  0.0902
28215W        W43684   6.734  16.609   2.558  0.0843  0.1669  0.2617
28216W        W43685   8.048  10.300   0.975 -0.0323 -0.1408  0.1370
28217W        W43686   7.959  14.452  11.051 -0.2715 -0.3429 -0.1268
28218W        W43687  15.316   7.040   4.162  0.1298 -0.1122 -0.1803
28219W        W43688  14.304  15.313   5.165 -0.0300 -0.1140 -0.3439
28220W        W43689   5.957   4.380   1.942  0.0526 -0.1649 -0.0412
28221W        W43690   1.638   8.358   4.011 -0.0614 -0.0853  0.0897
28222W        W43691  16.594   1.783   1.345 -0.2041 -0.0893  0.1684
28223W        W43692  15.595   1.643   0.400  0.3574 -0.0362  0.2626
28224W        W43693   5.143  15.044  13.359 -0.0923  0.0181 -0.1463
28225W        W43694   9.900   1.677   1.504 -0.0731 -0.2359 -0.0475
28226W        W43695  15.333  17.823  14.093  0.3153 -0.2576  0.0697
28227W        W43696  17.287   8.317  14.539 -0.0079  0.1155  0.2460
28228W        W43697   0.711   2.508  12.153 -0.1011 -0.0304 -0.0138
28229W        W43698   4.008  17.932   0.138 -0.0844  0.0223  0.0271
28230W        W43699   1.140  12.629   4.576  0.1682 -0.1946 -0.2491
28231W        W43700  18.517   8.659   4.606 -0.3830  0.2718 -0.1078
28232W        W43701   0.459   4.523  10.177  0.1339 -0.0593  0.0568
28233W        W43702   8.500   7.945   0.875 -0.2992 -0.2072 -0.0610
28234W        W43703  10.008   0.621  11.318 -0.0351  0.0445 -0.2039
28235W        W43704  16.663   9.286   4.294 -0.1550 -0.0341 -0.1187
28236W        W43705   8.567   9.640   5.423 -0.2441 -0.0359  0.0301
28237W        W43706   1.266   5.902  13.162 -0.0315 -0.1845 -0.2045
28238W        W43707  13.500   4.911  13.953 -0.1507 -0.2286 -0.1154
28239W        W43708   3.897  17.893   5.764  0.2767  0.2840  0.1599
28240W        W43709  11.526  10.061  11.227 -0.2668  0.2014  0.0102
28241W        W43710  17.459  13.480   3.429  0.1927 -0.0941  0.1165
28242W        W43711  13.152   9.206   2.181  0.0037 -0.2554  0.2666
28243W        W43712   4.285  14.909  10.659 -0.2027  0.1619  0.2755
28244W        W43713   4.464  14.690   1.376 -0.0230  0.1932  0.4080
28245W        W43714  13.085  10.611   3.316  0.2408  0.1709  0.2640
28246W        W43715   9.777  15.086   0.942 -0.3482  0.0004 -0.4005
28247W        W43716  14.054  14.185   2.857  0.2578 -0.0306 -0.0294
28248W        W43717   0.369   2.430  15.110  0.1081 -0.0893  0.0819
28249W        W43718  13.191  15.480   0.387 -0.4666 -0.1749 -0.1049
28250W        W43719  17.367  10.120  13.548  0.2379  0.0903 -0.0482
28251W        W43720   5.423  16.817  11.890  0.4569  0.1361 -0.3199
28252W        W43721   8.357  15.614  14.714  0.0452  0.1883 -0.0357
28253W        W43722  12.443   9.087  15.091  0.0800 -0.0161 -0.4066
28254W        W43723  15.077   5.302  14.858 -0.0534 -0.0435  0.1894
28255W        W43724  12.475   5.136   2.127 -0.1732  0.0683  0.4304
28256W        W43725  17.587   7.070   0.975 -0.1044  0.1847 -0.0981
28257W        W43726  16.063   2.561   1.920  0.1224 -0.1265 -0.1805
28258W        W43727   8.138  12.113  14.896  0.1642  0.2125  0.2291
28259W        W43728  10.358   3.112   9.449 -0.1100 -0.2499 -0.1487
28260W        W43729  14.723  11.305  14.277 -0.1677  0.0452  0.1117
28261W        W43730   6.319   9.579   4.034 -0.0595 -0.1644 -0.2013
28262W        W43731  12.155   9.883  15.665 -0.2951  0.4019  0.0722
28263W        W43732   1.286  12.469   0.636 -0.8131  0.3031  0.2979
28264W        W43733   3.846  14.571  11.255  0.4036  0.0086 -0.0262
28265W        W43734  10.511   3.325   0.996 -0.2712  0.2885 -0.1261
28266W        W43735  16.229  13.433   6.280 -0.0406 -0.3562 -0.1539
28267W        W43736   1.169   7.947   1.989 -0.0886 -0.0550  0.2758
28268W        W43737   4.314  12.696   4.710  0.2108  0.0928 -0.0203
28269W        W43738  11.270   2.906   2.321 -0.1824  0.2918  0.0195
28270W        W43739   2.968   5.054  12.426  0.2836  0.1143  0.1386
28271W        W43740  13.206   7.872  13.056 -0.0068 -0.0977  0.0750
28272W        W43741  11.156  11.911   5.924  0.2809  0.0765  0.0164
28273W        W43742  11.574   6.219  14.849  0.1848 -0.0199  0.1395
28274W        W43743  13.950   2.830   0.845 -0.0304  0.1045 -0.0068
28275W        W43744  12.698  15.980   4.692 -0.2281 -0.1204  0.3475
28276W        W43745  16.091   5.348   5.275  0.0570 -0.0078  0.0785
28277W        W43746  13.509  14.887   2.113  0.0151  0.1280 -0.0169
28278W        W43747   4.707   8.459   1.039 -0.0507  0.2460 -0.1133
28279W        W43748  12.440  11.624  13.307 -0.0874  0.1618  0.0585
28280W        W43749  11.010   6.874  13.989  0.1564 -0.0312  0.1393
28281W        W43750   4.181  13.739  12.149  0.2437  0.0727  0.1966
28282W        W43751   0.129  17.796   4.569  0.3532  0.0377  0.0921
28283W        W43752   5.254  11.195  14.664  0.3354  0.0589 -0.3540
28284W        W43753   3.621  14.176   4.339 -0.2011  0.4672 -0.2730
28285W        W43754   6.251   3.954   1.793 -0.0234  0.2002  0.0541
28286W        W43755   0.779   7.320   4.699 -0.0444  0.2693 -0.0134
28287W        W43756  16.689  15.905   5.169  0.3244  0.0014 -0.2025
28288W        W43757   0.904   3.129  11.540 -0.0985 -0.1442 -0.0691
28289W        W43758  13.143  12.020  10.827 -0.0164 -0.0182 -0.0887
28290W        W43759   1.194  11.044  14.417 -0.1705 -0.0672  0.2622
28291W        W43760   1.004   7.012   6.030 -0.1089  0.2445  0.0946
28292W        W43761  16.836  18.439   1.788 -0.2448 -0.1898  0.0300
28293W        W43762  15.822  17.895   1.834  0.4374 -0.1621  0.4053
28294W        W43763   9.786  12.850  13.783 -0.2182  0.0768  0.0311
28295W        W43764   9.179   2.725  12.060 -0.1369 -0.2377  0.0409
28296W        W43765   7.482   2.422  13.422  0.0164 -0.1699 -0.1476
28297W        W43766  12.029  12.528   3.416  0.2513 -0.1266  0.1208
28298W        W43767   1.311   8.775   3.267  0.0844 -0.0926 -0.2150
28299W        W43768  12.895  16.829  11.883 -0.0979  0.1157 -0.1056
28300W        W43769  17.493  13.980   3.229 -0.1060  0.0827  0.0312
28301W        W43770   0.410  12.332  11.597  0.2240 -0.0253 -0.2634
28302W        W43771  15.242   6.271   1.483  0.4183 -0.0673  0.2716
28303W        W43772   2.246   5.176   3.948  0.0301  0.0979 -0.0371
28304W        W43773   6.269   9.772   3.030 -0.1460 -0.1581 -0.1876
28305W        W43774  17.641   5.737  14.469 -0.1553  0.2288  0.3445
28306W        W43775  11.059   8.763  12.050 -0.0290  0.1919  0.1578
28307W        W43776  10.450  15.585  13.491 -0.1857  0.0318 -0.2556
28308W        W43777   0.742  17.863  15.240  0.2098  0.2008  0.1211
28309W        W43778   9.953  12.474   5.444  0.0946 -0.0734  0.1286
28310W        W43779   0.575  18.530   2.564 -0.0553  0.0325  0.2466
28311W        W43780   2.651  17.531  12.819  0.1796  0.1215  0.1600
28312W        W43781   5.381  16.562  15.602 -0.3441  0.1710 -0.2950
28313W        W43782   6.221  16.296   3.652 -0.0260 -0.1864 -0.1540
28314W        W43783   2.993  10.309  14.468  0.3158 -0.1628  0.0619
28315W        W43784   2.370   4.750  14.037  0.2128  0.1364  0.0533
28316W        W43785   8.119   8.405  15.130 -0.2002  0.1808  0.2771
28317W        W43786  10.707  18.247   1.352 -0.6050 -0.1000  0.1309
28318W        W43787   9.484  17.337   2.350 -0.2289 -0.0139  0.2809
28319W        W43788   5.847   7.770   1.947  0.5002 -0.2176 -0.2484
28320W        W43789   6.193   1.018  10.835  0.1200  0.1782  0.0865
28321W        W43790  11.823  13.344  11.357 -0.0150  0.2067  0.0491
28322W        W43791  15.379  12.649   3.405  0.0613  0.3734 -0.2108
28323W        W43792   9.624   7.579  10.648  0.0019 -0.0375 -0.0405
28324W        W43793  15.146  18.588  15.006 -0.1102 -0.1774 -0.0692
28325W        W43794  16.647   1.981   0.424 -0.3075 -0.0836  0.2850
28326W        W43795  10.260   6.600   4.942 -0.0506 -0.1192  0.0503
28327W        W43796  14.494   1.678  13.181  0.2927  0.1842  0.0696
28328W        W43797  17.707  10.748  15.673 -0.1528 -0.3431  0.4824
28329W        W43798   0.458  16.419   0.082  0.3191  0.0890  0.0942
28330W        W43799  15.297   9.763  11.515 -0.1578  0.0040 -0.0755
28331W        W43800  18.076   0.672   2.702  0.0271 -0.2780  0.3827
28332W        W43801  13.581  16.366   1.990  0.2091  0.4015  0.1020
28333W        W43802   0.855  17.756   4.885 -0.0181 -0.2861  0.3052
28334W        W43803   9.100  17.536   0.884 -0.0918 -0.1096 -0.0685
28335W        W43804  18.644  17.281  15.391 -0.2620  0.0598 -0.0291
28336W        W43805   1.215   2.924   2.338 -0.1785  0.4292  0.0031
28337W        W43806  15.178   9.311   4.391 -0.0644  0.2692 -0.1536
28338W        W43807   8.425   3.047  15.085  0.1468 -0.0320 -0.0256
28339W        W43808   5.376   2.451  14.740 -0.2857  0.1359  0.0515
28340W        W43809   1.248  17.090  14.795  0.1043  0.2237  0.0171
28341W        W43810   6.722  14.842   2.693  0.2999 -0.1355 -0.3583
28342W        W43811   5.972  15.286   2.129  0.1521  0.1029  0.2247
28343W        W43812   4.105  15.878   3.862  0.1561 -0.1849  0.3041
28344W        W43813   8.296   7.017  12.967 -0.1344 -0.2770 -0.0413
28345W        W43814  10.630  15.327  14.951 -0.0723 -0.2516 -0.0843
28346W        W43815  15.421  11.559   3.948 -0.0140  0.2112  0.0889
28347W        W43816   3.487   8.224   3.944 -0.0421  0.1422  0.2701
28348W        W43817   8.124   8.050   1.758  0.1575 -0.0807  0.2815
28349W        W43818  12.172  10.068   9.943  0.0673  0.0440  0.3004
28350W        W43819   1.835   1.027  12.173  0.0764 -0.0282 -0.0828
28351W        W43820   0.340   8.276  13.114  0.0531  0.3406 -0.0909
28352W        W43821   5.791  13.436  14.562  0.2343 -0.1011 -0.0449
28353W        W43822  16.010   2.714   2.841  0.1224  0.1907  0.0281
28354W        W43823   0.208  17.462   2.803 -0.0066 -0.3768  0.0390
28355W        W43824  11.661  14.010   4.478  0.4993  0.2655 -0.2475
28356W        W43825  13.354   9.113  15.086 -0.1641  0.2582  0.2048
28357W        W43826   2.707  10.038  12.089  0.0357  0.0740  0.2060
28358W        W43827   3.193   3.730   3.709  0.2457 -0.2196 -0.3061
28359W        W43828  12.690   5.208  13.070 -0.0659 -0.0684  0.2300
28360W        W43829   1.502  18.419  11.590  0.1790 -0.2030  0.1863
28361W        W43830  17.153   2.759   3.616  0.2811 -0.1367 -0.1639
28362W        W43831   7.826  11.435  11.478  0.0433 -0.1085  0.0196
28363W        W43832  16.265   4.268   0.477  0.0037 -0.2515  0.1096
28364W        W43833  12.584   3.027   3.741 -0.1621 -0.3182 -0.0511
28365W        W43834   0.453   0.409  10.979  0.4371 -0.0772 -0.0623
28366W        W43835  14.075  16.127   4.659  0.0836 -0.1148  0.1305
28367W        W43836  17.627   2.616  11.790 -0.1677  0.1433  0.1820
28368W        W43837  10.662  17.075   4.328 -0.1012  0.1039  0.0708
28369W        W43838   1.590   3.174  12.480 -0.2016  0.4433 -0.2136
28370W        W43839   7.981  18.203  15.159  0.0414 -0.2936 -0.2704
28371W        W43840   1.974  11.401  14.713  0.0878  0.0308 -0.1484
28372W        W43841  18.232  17.421  11.091  0.0789 -0.0000  0.0137
28373W        W43842   0.854   0.506   4.875 -0.2289 -0.1599  0.3195
28374W        W43843  15.439   3.764  15.636  0.2369  0.0657 -0.0900
28375W        W43844   5.954   4.787  11.942  0.1076 -0.0320  0.0974
28376W        W43845   1.216  17.689   3.138 -0.0659  0.1948 -0.1560
28377W        W43846  16.967   8.808   4.364  0.1164  0.1338 -0.1022
28378W        W43847   9.813   7.486  15.470 -0.1340  0.2683  0.0188
28379W        W43848   6.184   6.058  13.543 -0.3127 -0.0530  0.2350
28380W        W43849   5.488  15.847   3.210 -0.0764 -0.2379 -0.0146
28381W        W43850   9.329  13.238  12.837 -0.0990 -0.2685 -0.0361
28382W        W43851   3.868  15.542  14.397 -0.4382 -0.1528 -0.0024
28383W        W43852  15.534  14.535  15.009 -0.0726  0.1611  0.0196
28384W        W43853  11.604  15.049   2.154 -0.0016 -0.0451  0.0099
28385W        W43854   2.023  14.806   6.325  0.0507  0.1118 -0.1790
28386W        W43855   4.266   5.919   1.904  0.2827 -0.1218 -0.1696
28387W        W43856   3.198   3.807   5.003 -0.1484  0.1022  0.1475
28388W        W43857   3.373   8.768   1.320 -0.3051  0.4054  0.2669
28389W        W43858  13.565   0.720  11.508 -0.2331 -0.0292 -0.2522
28390W        W43859   4.930  12.901  12.290 -0.3869  0.0916 -0.1695
28391W        W43860   5.699  17.091  12.878 -0.0080  0.2343  0.0561
28392W        W43861   6.554  18.415   0.623 -0.0033 -0.1811 -0.0082
28393W        W43862   5.959   3.264  12.242  0.0953  0.2903 -0.0747
28394W        W43863  18.008   9.590   2.071  0.0507 -0.0625  0.0417
28395W        W43864  12.172  13.633  14.902  0.1618  0.2542  0.4014
28396W        W43865  12.980  16.132  12.370  0.0800 -0.0457  0.3216
28397W        W43866   8.268   5.191  11.773 -0.0740 -0.4328  0.2028
28398W        W43867   2.344  17.509   4.827  0.2949 -0.2769 -0.0008
28399W        W43868   1.903   7.045   4.107  0.2256  0.1378 -0.1200
28400W        W43869  11.662  17.376  12.342 -0.2717 -0.0089 -0.0955
28401W        W43870  12.886   2.823  10.458  0.2077 -0.0556  0.0828
28402W        W43871   4.610  12.310   3.865  0.0595  0.0096 -0.0667
28403W        W43872  14.402  14.875   0.342 -0.1236 -0.1363  0.0778
28404W        W43873   8.474  15.071  14.534  0.1520  0.0917 -0.2621
28405W        W43874   3.873  13.044  15.526  0.0672 -0.1782  0.4618
28406W        W43875  14.531   2.240  14.551  0.2477 -0.1791  0.1158
28407W        W43876   2.496   9.289  13.799  0.0454  0.3179  0.1996
28408W        W43877  13.987  17.143   5.363 -0.0421 -0.3002 -0.0300
28409W        W43878  10.817   1.057   4.026 -0.2813 -0.2411  0.2095
28410W        W43879   6.427  16.899  14.069  0.1663  0.2095 -0.0631
28411W        W43880   5.041  13.128  13.549  0.0601  0.0535 -0.2492
28412W        W43881  17.659  15.811   0.720 -0.1293  0.3712 -0.1344
28413W        W43882   7.909   1.632   5.332 -0.0271 -0.0546  0.0166
28414W        W43883   5.989  17.933  12.380 -0.3140  0.4373 -0.1022
28415W        W43884  11.705   4.572  13.439  0.0849  0.0568 -0.2002
28416W        W43885   4.187   8.895   3.719 -0.0231  0.0464 -0.2655
28417W        W43886  15.375   6.897   0.745 -0.1457  0.1533 -0.2054
28418W        W43887   2.104   4.597   5.863 -0.2264  0.1355  0.1712
28419W        W43888  18.719   4.065   1.526  0.1906 -0.0605 -0.2022
28420W        W43889   7.056  18.187  12.355  0.1034  0.0988  0.1470
28421W        W43890  12.645  14.275  12.540 -0.2754 -0.0043  0.1404
28422W        W43891   8.330   5.548   5.929 -0.2156 -0.0325  0.1245
28423W        W43892   7.196  10.188  11.717 -0.3257 -0.1172  0.1224
28424W        W43893   8.604  14.586  14.813  0.3928  0.2371  0.1474
28425W        W43894   1.402  17.738  13.696  0.0676  0.5834  0.4329
28426W        W43895  14.722  10.385  13.861 -0.3028  0.1956 -0.3354
28427W        W43896  10.034   2.513  11.751 -0.3006  0.0144 -0.1139
28428W        W43897   9.254   5.068  12.185  0.2220  0.2019 -0.0478
28429W        W43898   7.958   1.717  12.896 -0.0691  0.1845 -0.3373
28430W        W43899  16.052  14.315  10.198  0.0738 -0.1867 -0.0662
28431W        W43900   6.673  12.949   0.118 -0.0873  0.1335 -0.0440
28432W        W43901   9.451   5.637  13.677  0.0582 -0.0584 -0.2707
28433W        W43902   9.935  10.701   0.129 -0.4579 -0.0611  0.1522
28434W        W43903  12.262  12.741   4.996  0.0879 -0.0433  0.0604
28435W        W43904   7.817  17.826   0.191  0.1754 -0.2722  0.2287
28436W        W43905   2.230   3.133  10.467 -0.0996 -0.2010  0.0232
28437W        W43906  12.548   9.627  12.631 -0.0218 -0.2384  0.1429
28438W        W43907  18.158   9.499  13.828 -0.1925  0.4754  0.1458
28439W        W43908   0.118  10.599   4.957 -0.1892 -0.0720  0.5382
28440W        W43909  15.205   1.838  11.395  0.0506 -0.1896 -0.0175
28441W        W43910   1.484   2.050  12.493  0.1982  0.2377 -0.2096
28442W        W43911   1.496   8.365  11.345  0.0880  0.0010  0.3530
28443W        W43912   4.596  17.810   2.238  0.5089  0.0416  0.2573
28444W        W43913   7.065   7.638   3.316  0.2313 -0.0791  0.1168
28445W        W43914   6.992   3.132   2.133  0.0333  0.2516  0.1262
28446W        W43915   2.488   7.646   0.338  0.0692  0.3512  0.3346
28447W        W43916  12.430  10.257  11.025  0.3139  0.2694 -0.0270
28448W        W43917   9.537   9.357  10.692 -0.1571  0.1358  0.0609
28449W        W43918   5.308  16.194  11.566 -0.0266  0.2360  0.1135
28450W        W43919   1.866   8.274   4.451  0.2218  0.2373 -0.0550
28451W        W43920   0.755  16.921   2.578 -0.2543  0.3268 -0.2900
28452W        W43921   1.881  18.228  12.167 -0.1854 -0.0391  0.0078
28453W        W43922   4.908   0.925  13.932 -0.1662 -0.2387 -0.2580
28454W        W43923   4.709   1.935  12.616  0.2068 -0.4113 -0.1491
28455W        W43924  12.465   0.816   1.330  0.2699 -0.0161  0.3600
28456W        W43925   9.380  12.413   4.458  0.0873 -0.1239 -0.2603
28457W        W43926   6.799  11.368   1.144  0.0823  0.2433  0.0623
28458W        W43927   4.501  13.577  13.116  0.1401  0.0790 -0.1467
28459W        W43928   4.823   5.125   4.798  0.3517 -0.1573  0.2831
28460W        W43929   9.277   3.511   5.575 -0.1976  0.0702  0.1037
28461W        W43930   1.360   1.462  14.869 -0.1587  0.2416  0.2572
28462W        W43931   1.458  16.514   3.140 -0.2375 -0.0224  0.1230
28463W        W43932   2.155   3.968   2.665 -0.2784 -0.1528 -0.3141
28464W        W43933   2.724   2.549   3.935  0.2772 -0.0566 -0.1982
28465W        W43934  14.718  15.020   4.430  0.0320  0.0126  0.0909
28466W        W43935  18.173   4.102   4.132  0.0340  0.5453  0.3415
28467W        W43936  13.601   9.267   3.580 -0.4189 -0.1222  0.0698
28468W        W43937   5.720   3.626   5.633  0.1733  0.1524 -0.1020
28469W        W43938   4.293  10.591   1.467 -0.0773 -0.0748  0.2808
28470W        W43939  17.603   6.451   5.223 -0.1004 -0.1484  0.2498
28471W        W43940  14.756   2.928   2.939  0.1953  0.0825 -0.3814
28472W        W43941   8.004   9.130  13.595  0.0161  0.0466  0.2191
28473W        W43942  11.212   8.564  14.938 -0.1821  0.2255  0.0950
28474W        W43943   9.974   9.269  10.242  0.1841  0.1105 -0.0943
28475W        W43944  17.582   1.718   2.616  0.2202 -0.1877  0.4137
28476W        W43945  13.425  13.149  10.909 -0.1280 -0.2069  0.0148
28477W        W43946  17.476   6.585  10.567 -0.1209  0.0480 -0.0687
28478W        W43947  18.616  17.916   4.907 -0.1995 -0.0288  0.0841
28479W        W43948  18.581  16.631  12.523  0.2016  0.1369  0.1369
28480W        W43949  18.344   5.281  12.870  0.0044 -0.1704 -0.1549
28481W        W43950   9.649  12.555  12.401 -0.1996  0.1025  0.3251
28482W        W43951  14.864  11.456  11.793  0.0635 -0.2750  0.3111
28483W        W43952  10.250   9.576  11.167 -0.4210 -0.4530  0.1422
28484W        W43953   3.665   0.283   0.260  0.3464  0.4993 -0.1228
28485W        W43954   4.019   5.259   3.429  0.0902  0.0812 -0.0045
28486W        W43955  17.180   4.970  11.157 -0.2685 -0.2161 -0.2050
28487W        W43956   6.284  18.351   4.016  0.2165  0.0298  0.0239
28488W        W43957  10.706   4.753  14.215 -0.2651  0.0283  0.2531
28489W        W43958   6.436  10.113   4.089  0.1498  0.2698 -0.2433
28490W        W43959   0.364   6.983   4.055  0.1534  0.1676 -0.2697
28491W        W43960  10.600  16.714   2.859  0.0476  0.0269  0.2189
28492W        W43961  14.437  15.787  11.333  0.0462  0.0666  0.1986
28493W        W43962  10.646  11.212  11.845 -0.0694  0.0397  0.3025
28494W        W43963  14.794   6.448  10.492 -0.0327  0.0792  0.2226
28495W        W43964   8.200   2.122   1.768 -0.1223 -0.0032 -0.3470
28496W        W43965   9.931   6.161   2.677  0.1142  0.1248  0.0549
28497W        W43966  14.747  13.075   1.855 -0.2722 -0.0839 -0.5264
28498W        W43967   5.112  11.840   2.322  0.1229 -0.0008 -0.1317
28499W        W43968  11.387   5.030   2.944  0.0979  0.0313  0.1376
28500W        W43969   5.748   3.240  10.842 -0.1705  0.3123  0.0263
28501W        W43970   7.503  16.746   4.817  0.0869  0.1788 -0.2873
28502W        W43971  18.573   6.300   1.634 -0.1185 -0.2734 -0.0622
28503W        W43972   0.027  17.426   3.239 -0.2222  0.0333 -0.2734
28504W        W43973   2.259   0.726  11.364 -0.0637 -0.1186 -0.0978
28505W        W43974   1.209   0.460   5.277 -0.0885 -0.3443 -0.0988
28506W        W43975   4.194   3.076   0.437  0.0212 -0.1131  0.1801
28507W        W43976   4.931   7.111   2.312 -0.1974 -0.0717 -0.1229
28508W        W43977  15.129  15.603  13.435  0.0230  0.1988  0.3887
28509W        W43978   2.532   0.453   2.869  0.0448  0.1584  0.5781
28510W        W43979  10.250  12.345  13.950 -0.0943  0.1992 -0.1504
28511W        W43980   7.148  16.035  13.561  0.1772 -0.2754 -0.1579
28512W        W43981  10.400   2.129   2.971  0.2827 -0.0446  0.2075
28513W        W43982   7.592   8.208   3.928 -0.0804  0.0918 -0.0009
28514W        W43983   5.057   3.286   3.192 -0.0223  0.1720  0.0612
28515W        W43984   0.408   5.908   5.790 -0.1274  0.0426 -0.2763
28516W        W43985   9.438  11.388   0.342 -0.0537  0.1251  0.0238
28517W        W43986  13.470   6.641  13.795 -0.2040  0.3150  0.0876
28518W        W43987   8.143  15.040  15.361  0.0133  0.3290 -0.2144
28519W        W43988  13.193  13.169  15.499  0.0487 -0.0978  0.1842
28520W        W43989  17.067   1.878  12.758  0.0477 -0.2949 -0.1035
28521W        W43990  10.034   0.916   4.745  0.0153  0.1651  0.0154
28522W        W43991  15.416  12.015  14.088 -0.0198  0.0252 -0.3338
28523W        W43992   2.402   5.781   1.616 -0.0461 -0.0398 -0.1453
28524W        W43993  15.898  10.037   0.828 -0.2430 -0.0217 -0.1778
28525W        W43994   4.256  18.656   3.882 -0.2680  0.0856 -0.1468
28526W        W43995   9.192   7.140   2.545  0.0865 -0.1495 -0.2129
28527W        W43996   6.479  13.996   3.783 -0.0615 -0.3007  0.0832
28528W        W43997  14.506   4.262   2.223  0.0649  0.3529  0.1078
28529W        W43998   4.976   6.217  10.371  0.0408 -0.1983 -0.0495
28530W        W43999   4.509  12.061  15.141  0.3132  0.0459  0.0635
28531W        W44000   2.244   1.810  11.863 -0.2130  0.0602 -0.1315
28532W        W44001  11.709   2.044  15.062  0.3169  0.0014  0.4204
28533W        W44002   2.871   5.910  10.639 -0.0206 -0.3537  0.2250
28534W        W44003  15.045   0.104  11.745  0.2016  0.0087  0.0236
28535W        W44004  15.351   6.902   0.236 -0.2205 -0.1368  0.2114
28536W        W44005  13.785   7.462   0.153  0.1619 -0.0263 -0.1663
28537W        W44006  15.709   2.572  12.451 -0.1560 -0.0778 -0.0309
28538W        W44007   4.806  18.395  11.183 -0.0612 -0.1348  0.0298
28539W        W44008   9.960  15.046  14.223  0.0606 -0.2891 -0.1771
28540W        W44009   8.298   5.059   4.025  0.1251 -0.1459 -0.0919
28541W        W44010   5.817   2.256  14.518  0.0101 -0.3295 -0.1182
28542W        W44011  17.036   4.306  13.225 -0.1669  0.1161 -0.0839
28543W        W44012  11.562  17.698   3.009  0.2028 -0.4429  0.0874
28544W        W44013   4.455   5.889   5.092  0.1143  0.1715 -0.0719
28545W        W44014   2.649  10.892   2.338 -0.1700 -0.2488  0.2696
28546W        W44015  13.289   6.001  14.306 -0.4319 -0.1359 -0.2994
28547W        W44016  17.670   3.525  13.648 -0.0372 -0.3558  0.0102
28548W        W44017   5.244   1.137   2.162  0.2674 -0.1504 -0.1433
28549W        W44018   1.508  17.780   0.207 -0.0053 -0.1153 -0.0992
28550W        W44019   4.936  18.116  13.388  0.1089  0.1162  0.2371
28551W        W44020   2.453  12.052  10.602  0.1828  0.2185 -0.1170
28552W        W44021   8.424  10.004  12.247  0.1737 -0.3161  0.1297
28553W        W44022   5.628   4.048  12.235 -0.2183 -0.0571  0.1527
28554W        W44023   9.822   8.320   5.514 -0.1634 -0.2126 -0.1316
28555W        W44024   5.699   7.430  14.328  0.0069  0.1193  0.0506
28556W        W44025  18.286   0.991   0.200  0.1201 -0.3480 -0.1686
28557W        W44026   0.684   5.516  12.104 -0.4373 -0.4244 -0.1162
28558W        W44027   2.753   1.265   6.295  0.1214  0.1599  0.0116
28559W        W44028   7.244   7.980   9.910  0.0420  0.1043  0.2622
28560W        W44029   2.660  12.878  13.718 -0.3077 -0.0876  0.2197
28561W        W44030  17.606   1.685   4.650 -0.1306 -0.0232  0.3297
28562W        W44031  14.096   2.775   4.276  0.1167 -0.3404  0.2987
28563W        W44032  10.280  17.654  13.768 -0.0995 -0.0981 -0.0586
28564W        W44033  17.159  12.574  10.317  0.0605 -0.0264 -0.2406
28565W        W44034   0.990  17.273  12.231  0.2021 -0.1046  0.2049
28566W        W44035  17.120  10.878  11.441 -0.0457  0.1296  0.3135
28567W        W44036  12.132   1.578   2.668  0.0797  0.0136  0.1233
28568W        W44037  16.524  13.309  11.563  0.1905  0.0552  0.1804
28569W        W44038   7.738   2.776  10.683 -0.0790  0.1444 -0.1357
28570W        W44039  11.403   3.734   4.106 -0.1498 -0.0877  0.1118
28571W        W44040   4.147   6.292  15.330 -0.1644  0.3494 -0.2933
28572W        W44041   5.454   0.096   4.908  0.2346  0.0766  0.2920
28573W        W44042  14.071   0.870   4.286 -0.1651 -0.3433  0.0832
28574W        W44043  17.529   3.001  10.935 -0.2243 -0.3072 -0.0175
28575W        W44044  10.168   0.665  12.634 -0.0453 -0.0290 -0.0904
28576W        W44045   3.417   4.655  11.256 -0.4503 -0.2692  0.0748
28577W        W44046   8.611   0.577   5.326  0.2767  0.2473  0.0888
28578W        W44047  14.803   7.029  11.335  0.0438 -0.0018  0.0806
28579W        W44048  11.620  18.488   4.996 -0.0828 -0.0061  0.4360
28580W        W44049  18.056  11.776  12.213 -0.0012  0.0843 -0.1215
28581W        W44050  10.636   6.316  11.655  0.2551 -0.2373  0.0875
28582W        W44051   8.241   7.433   2.701 -0.1526  0.2410  0.0529
28583W        W44052   2.997  16.502   0.178  0.1003  0.4227  0.1454
28584W        W44053   3.967  11.214   9.543 -0.1466  0.1017 -0.2970
28585W        W44054  16.902  17.836  10.856  0.1103 -0.1533  0.2805
28586W        W44055  16.076  16.918  14.091 -0.2460  0.1023  0.1179
28587W        W44056   3.237  15.806   1.735 -0.2232 -0.0425  0.1748
28588W        W44057  11.763  15.996   2.643 -0.0806 -0.2704  0.2545
28589W        W44058   9.921  15.821  14.603  0.1719  0.1527 -0.0848
28590W        W44059   0.273  12.211   5.755 -0.1208 -0.1875  0.0030
28591W        W44060  18.014   3.221  13.298 -0.0039  0.0980  0.4444
28592W        W44061  13.888   2.866   2.526 -0.0090 -0.0732 -0.0175
28593W        W44062  13.294   1.536   0.330  0.2343 -0.3722  0.1706
28594W        W44063  11.812  12.719  12.886  0.0293 -0.1443 -0.1048
28595W        W44064   0.880  11.305   0.751  0.0233  0.0821  0.0584
28596W        W44065   0.006  13.021  14.525  0.3705  0.3442  0.1752
28597W        W44066  17.778  16.977   1.458 -0.1738  0.0863  0.2466
28598W        W44067   5.902  15.643  14.893 -0.0160  0.1809  0.1700
28599W        W44068   2.889  12.769   5.088 -0.0362  0.2021  0.1424
28600W        W44069   0.536  10.891   2.169  0.3421 -0.1898 -0.0354
28601W        W44070   4.594  14.746   5.713  0.1301  0.2333  0.0097
28602W        W44071   2.515  14.449   0.728 -0.0538  0.1342 -0.0643
28603W        W44072   2.214   8.630  13.003 -0.2136  0.0382  0.1409
28604W        W44073   4.934   1.576   2.164  0.2394 -0.1821 -0.0798
28605W        W44074  14.184   3.698   0.849  0.1897  0.0922  0.2466
28606W        W44075   6.106  18.359   1.833 -0.1026 -0.0678  0.0948
28607W        W44076   5.581  17.323  11.734  0.2542  0.4472  0.4146
28608W        W44077  13.194   5.840  15.136 -0.1253  0.4142  0.1527
28609W        W44078   1.043  10.451   5.130  0.1350  0.1192 -0.1426
28610W        W44079   8.321   5.061   5.701  0.3224  0.1561  0.2125
28611W        W44080  18.184   5.981   0.850  0.2884  0.3201  0.3181
28612W        W44081   2.680   7.474  10.798  0.1463  0.3438  0.3071
28613W        W44082   8.898  16.954   1.032  0.2111  0.1345  0.0147
28614W        W44083  17.174  17.333  14.670 -0.0956 -0.1353 -0.0229
28615W        W44084  17.745  12.419  12.493 -0.3138 -0.0389 -0.0631
28616W        W44085  12.068   5.799   1.084  0.0546 -0.1183  0.0111
28617W        W44086  13.574   8.391   1.480 -0.1332 -0.0591 -0.3684
28618W        W44087  10.533  11.827  14.699  0.0227  0.3052 -0.3060
28619W        W44088   0.911   5.962   4.620  0.5356 -0.2069  0.0295
28620W        W44089   8.790   9.870  11.350 -0.2109 -0.0441  0.1752
28621W        W44090  17.972  15.282  15.026  0.1974  0.1074 -0.1366
28622W        W44091   9.200   7.611  14.626 -0.2144 -0.0850  0.0082
28623W        W44092   6.851  12.720   4.697  0.1635 -0.1343 -0.3140
28624W        W44093   9.855   3.370   5.675  0.5884 -0.2786  0.1278
28625W        W44094   3.883  11.275  11.126 -0.1662  0.0533  0.0706
28626W        W44095   4.897   3.261  10.708 -0.1311 -0.0781  0.1498
28627W        W44096   6.056  12.585   0.969  0.0318  0.4532  0.1112
28628W        W44097   7.239  15.470  15.203  0.0339  0.1049  0.0541
28629W        W44098  18.103  11.811  10.837  0.2605  0.1053  0.4189
28630W        W44099  10.379   0.805   0.892 -0.1851  0.2890  0.1258
28631W        W44100  17.910  10.917  14.883 -0.0060  0.2126 -0.4583
28632W        W44101  12.678   4.816  14.840 -0.0589  0.3029 -0.0176
28633W        W44102   2.859   4.663   0.639 -0.0699 -0.1993 -0.0383
28634W        W44103  11.260   1.088   0.557 -0.2225 -0.4087  0.2735
28635W        W44104   5.192   7.434  14.168  0.0522  0.0523 -0.2603
28636W        W44105  10.212  17.127  13.337  0.1350 -0.0710  0.1230
28637W        W44106   0.273   2.090   3.027 -0.4605 -0.2462 -0.0285
28638W        W44107   3.706  10.344   2.498 -0.1663 -0.0582  0.2039
28639W        W44108   5.640  12.560  11.775 -0.5065 -0.0822 -0.1085
28640W        W44109  11.763  14.601   2.752  0.0397 -0.0356 -0.0701
28641W        W44110   0.498  10.727   3.480 -0.0280  0.1837  0.0778
28642W        W44111   3.607   8.806  12.741  0.3756  0.1441 -0.1112
28643W        W44112  10.403  16.989  14.188  0.4618 -0.0231 -0.2320
28644W        W44113  12.080  13.759   2.103 -0.1026  0.0395 -0.0925
28645W        W44114   1.283   9.367   5.118  0.0439  0.4373  0.0648
28646W        W44115   5.018   9.147  11.764 -0.0031  0.4322 -0.1187
28647W        W44116  13.627  16.183   4.904  0.0715  0.1239 -0.1796
28648W        W44117   3.172   3.105  14.824  0.2135  0.0765  0.0030
28649W        W44118  10.312   0.852   3.855 -0.0085 -0.0074 -0.1915
28650W        W44119  15.123   2.301   4.052 -0.2088  0.2905 -0.0041
28651W        W44120  11.718   7.071   2.983  0.1772 -0.1220  0.2172
28652W        W44121   7.575   4.126   1.403  0.0815 -0.3655  0.1200
28653W        W44122   7.299  13.644  15.578  0.2408  0.2632  0.0087
28654W        W44123   2.796   3.762  15.383  0.4366 -0.0249 -0.1046
28655W        W44124   8.805  10.588   2.836 -0.0184 -0.1871  0.0899
28656W        W44125  10.422   0.700  10.990  0.2250  0.0990 -0.3216
28657W        W44126   8.114   9.734  11.936 -0.0309  0.0581  0.1723
28658W        W44127  11.735   1.675   3.819  0.1025 -0.1789  0.4297
28659W        W44128  12.776   4.728   2.217 -0.0630 -0.0465  0.2412
28660W        W44129   4.364   0.507  15.313 -0.0600  0.3236 -0.3099
28661W        W44130  17.330   2.118   5.555 -0.2238  0.0355 -0.2206
28662W        W44131   8.961   5.490  11.457 -0.0843 -0.0137  0.1314
28663W        W44132   1.339  17.505   4.811 -0.0335 -0.1187 -0.1917
28664W        W44133  16.877   4.462  12.654  0.1123 -0.1647 -0.0393
28665W        W44134   0.295  11.386  10.613 -0.0105  0.0198 -0.1991
28666W        W44135  11.588  16.225  13.487  0.3348 -0.2478 -0.5062
28667W        W44136  11.593   6.628   6.080 -0.5382  0.0388  0.0982
28668W        W44137   7.195   6.825   4.998 -0.1279 -0.1185 -0.3781
28669W        W44138   9.077   1.568  15.139 -0.0841  0.5338 -0.2859
28670W        W44139   3.912   7.888  13.652 -0.1907  0.0698  0.0637
28671W        W44140   3.474   8.960  13.561  0.3772 -0.3481 -0.0114
28672W        W44141   4.317  17.041   0.585  0.3076  0.0996  0.1932
28673W        W44142   7.937  18.402   2.686  0.1230 -0.0621  0.3759
28674W        W44143  12.337   4.481  15.002 -0.1363 -0.2506 -0.2700
28675W        W44144  13.994   8.071   4.068  0.1899 -0.1132 -0.2329
28676W        W44145  17.920  10.149  14.376 -0.1242  0.1993 -0.3625
28677W        W44146   4.532   6.473   9.825  0.1048 -0.0744 -0.1519
28678W        W44147   4.739  11.510   0.468  0.1141  0.1829  0.4539
28679W        W44148   7.761  14.414  14.818  0.0121 -0.2712 -0.1089
28680W        W44149  17.350  10.169  14.891  0.2715 -0.1260 -0.1109
28681W        W44150   3.785   4.680  11.563 -0.2954 -0.1788 -0.2006
28682W        W44151   0.273  17.866   1.312 -0.1253  0.0988 -0.3393
28683W        W44152  17.849   8.479   0.551 -0.1668  0.0425 -0.1991
28684W        W44153   0.925   9.583  14.768  0.0359  0.1572 -0.1935
28685W        W44154   8.684  14.685   4.871 -0.0864  0.0185  0.0046
28686W        W44155  10.596   9.995  13.721 -0.2295 -0.2654 -0.0723
28687W        W44156  15.792  11.815   5.551 -0.0449  0.1343 -0.0040
28688W        W44157   4.037  17.763   2.311 -0.1529  0.1542  0.1008
28689W        W44158  13.780   3.517  11.877  0.4165  0.1711 -0.4088
28690W        W44159   8.709  13.120   3.204  0.1913  0.0716 -0.0306
28691W        W44160  15.347  12.051   4.652 -0.1103  0.2400  0.0980
28692W        W44161  12.083   2.683   0.006  0.1993  0.0668  0.3079
28693W        W44162   4.473   3.173   3.596  0.0069  0.0603  0.1380
28694W        W44163  11.596  14.696  15.009  0.0103 -0.1699  0.0644
28695W        W44164   7.546  18.777  13.653 -0.1476 -0.1237 -0.0370
28696W        W44165   8.556   3.104   3.779  0.0145  0.4208  0.1110
28697W        W44166   5.899   2.335  12.907  0.1779  0.2337 -0.0120
28698W        W44167  14.691  15.819  13.938  0.1396 -0.1002 -0.4654
28699W        W44168   2.650  17.724   0.036  0.1465  0.0917 -0.0228
28700W        W44169   8.164  11.202  12.784  0.5742  0.3027 -0.0983
28701W        W44170   2.489   2.101  11.567 -0.3566  0.1756  0.0622
28702W        W44171   4.917   5.626  12.337  0.0899 -0.2887 -0.0227
28703W        W44172  14.866   1.125  15.065  0.1826 -0.0476  0.4150
28704W        W44173   3.404  18.064   1.629  0.0947  0.0280 -0.1569
28705W        W44174  17.570   1.653  10.894 -0.1560  0.1840 -0.0634
28706W        W44175   2.862  15.835  12.045 -0.1638  0.1116  0.2370
28707W        W44176  18.472   0.170   2.241 -0.0836 -0.1586  0.0567
28708W        W44177  17.154  16.967   5.806 -0.2915  0.2828  0.0053
28709W        W44178  18.709  11.486   4.488 -0.2108  0.1049 -0.1620
28710W        W44179   7.966   1.947  11.094 -0.1438 -0.4375 -0.0939
28711W        W44180  10.620   4.344  12.248  0.0523  0.0808 -0.2581
28712W        W44181   6.259   8.020  13.897  0.0591  0.1473 -0.1363
28713W        W44182   3.231  18.522  13.187 -0.1955  0.1427  0.0147
28714W        W44183  10.282   6.441  10.836  0.1083 -0.0688 -0.1524
28715W        W44184  13.988  11.205   3.209  0.0971  0.1471 -0.1329
28716W        W44185   5.023   1.863   6.151 -0.1454  0.1187 -0.1985
28717W        W44186  15.917  10.559   2.902  0.1444 -0.0962  0.2849
28718W        W44187   3.507   3.208  12.613 -0.4541 -0.1005  0.0403
28719W        W44188  12.633  15.852  14.650  0.2589  0.0630 -0.3584
28720W        W44189   2.570   4.359  12.350 -0.1097 -0.2667  0.2148
28721W        W44190   4.561   9.188  15.338  0.0187  0.4521  0.2350
28722W        W44191  15.509   3.560  12.835 -0.1275  0.3101 -0.0374
28723W        W44192   4.200   6.565   1.273  0.1610  0.1266 -0.1699
28724W        W44193   9.096   0.537  13.577  0.1523  0.0693 -0.1734
28725W        W44194   4.258   3.818  15.026  0.0839 -0.2446  0.3185
28726W        W44195  14.314  11.863   9.939  0.1142  0.1385  0.2272
28727W        W44196  18.144   3.869   3.661 -0.0795 -0.0030  0.3445
28728W        W44197  12.120  12.364   0.652 -0.1112  0.1358  0.4200
28729W        W44198   7.705   4.625   9.971  0.1501 -0.3043  0.1680
28730W        W44199  10.987  10.191  11.093  0.2202  0.0149  0.2021
28731W        W44200   6.138   5.654  12.699 -0.2043  0.0280  0.0290
28732W        W44201   5.243   2.556  12.860  0.0060 -0.0532  0.0617
28733W        W44202   4.433   9.143   1.883 -0.0813  0.0254  0.1317
28734W        W44203  17.090   9.797  14.662 -0.1864  0.0437  0.0379
28735W        W44204  15.909   5.289   2.808 -0.0791  0.0888 -0.1007
28736W        W44205   5.310   2.546   3.642 -0.1814  0.2734  0.3134
28737W        W44206  13.992  17.423  12.508 -0.1992  0.0578 -0.0512
28738W        W44207   3.794   0.382   3.515  0.1781  0.0783 -0.4218
28739W        W44208   3.275  10.209   2.623  0.1537  0.0720 -0.1760
28740W        W44209   3.911  16.852   0.337  0.0455  0.0743  0.3378
28741W        W44210   6.363   5.211  12.905  0.0846  0.0450 -0.2058
28742W        W44211  18.698   9.932  11.396 -0.1525  0.3301 -0.2532
28743W        W44212   7.289   9.355   4.214 -0.2331  0.0858 -0.0382
28744W        W44213  17.408   1.274  11.589 -0.1036 -0.0517  0.0557
28745W        W44214  11.989   8.548   3.611  0.0080 -0.2757  0.2540
28746W        W44215  10.560  12.094  14.267 -0.0572  0.0237  0.0494
28747W        W44216   4.680  12.515  15.141 -0.2331 -0.3516 -0.1967
28748W        W44217   6.836  15.266  14.008  0.1902  0.1686  0.2295
28749W        W44218   4.434  11.360   1.790  0.0493  0.0910  0.2346
28750W        W44219   7.298   9.137   2.183 -0.0190  0.1319 -0.0736
28751W        W44220  12.326   5.264  14.587  0.1160 -0.0018  0.0926
28752W        W44221   6.314   9.909  11.677  0.0695  0.0025 -0.2287
28753W        W44222  15.848  12.012   2.334 -0.1109 -0.4093  0.3663
28754W        W44223   2.882   6.494  12.367  0.1283  0.0250 -0.2460
28755W        W44224  11.064  12.132  12.869 -0.1277 -0.0263 -0.1963
28756W        W44225   1.213  15.638  13.658  0.0282  0.3107 -0.1328
28757W        W44226  12.972  18.471  12.823  0.3578 -0.3645  0.3051
28758W        W44227  16.362  13.822  11.560 -0.0474  0.0394 -0.0343
28759W        W44228   1.575   9.716   4.263 -0.2841  0.0786 -0.0578
28760W        W44229  13.894  12.618  15.356 -0.3542  0.2474  0.2477
28761W        W44230  16.716   4.971  11.000  0.2205  0.1406  0.2304
28762W        W44231   0.649  16.347   2.847 -0.1516 -0.1464  0.3478
28763W        W44232  11.323   6.445   1.040  0.2561  0.2348 -0.0315
28764W        W44233   6.828  17.542  12.729 -0.2303 -0.1685 -0.0106
28765W        W44234   7.805   4.656   0.105 -0.0867 -0.3271 -0.0369
28766W        W44235  12.574   6.414   3.133  0.3861  0.1296 -0.1536
28767W        W44236   0.531  14.910   1.089 -0.1672  0.0752  0.0384
28768W        W44237   8.450   3.305   1.356  0.0069  0.2691  0.3171
28769W        W44238   7.149   2.438  11.405  0.2323 -0.0169 -0.0141
28770W        W44239   7.750   0.528   0.760  0.0179 -0.0229  0.1109
28771W        W44240   1.090  15.686   3.019  0.3207 -0.2010  0.1414
28772W        W44241   6.505  14.402  13.956 -0.1019  0.0926  0.3459
28773W        W44242  18.680   7.756   2.099 -0.1438  0.5492  0.2105
28774W        W44243   4.439  17.127   2.465 -0.3450 -0.3744  0.0006
28775W        W44244  15.154  15.450  12.781 -0.1746 -0.1059 -0.0453
28776W        W44245   8.871  18.644  10.629 -0.2519 -0.0479  0.0262
28777W        W44246   5.350   8.463  12.389  0.3890 -0.2031 -0.0810
28778W        W44247   5.944   5.151   5.484 -0.2191  0.0536  0.0085
28779W        W44248   7.002   7.219  11.077  0.2813 -0.1508 -0.2550
28780W        W44249   3.717   4.375  10.939  0.0108 -0.4257  0.3737
28781W        W44250  14.887   3.085   0.710  0.0954  0.0182  0.0206
28782W        W44251   6.745  12.124   2.881 -0.0426 -0.0342 -0.0379
28783W        W44252   0.323   4.306   1.833  0.1252  0.0591  0.2390
28784W        W44253   8.824   9.984   3.359 -0.1963  0.1131 -0.4199
28785W        W44254  13.506  14.313   1.005 -0.0434 -0.0166 -0.2534
28786W        W44255   0.864   8.462   3.267 -0.2206  0.2059 -0.3553
28787W        W44256  15.326   6.920  12.430 -0.2109 -0.3886  0.0189
28788W        W44257   7.549   4.010  11.332 -0.0462  0.0551  0.0110
28789W        W44258  17.631  12.366   3.625  0.0943 -0.1197 -0.1824
28790W        W44259  17.731   9.873  11.412  0.1646  0.0940  0.3984
28791W        W44260   7.378   5.869   3.959  0.0240 -0.0663 -0.1575
28792W        W44261   1.451  10.925  13.004 -0.0766 -0.0911 -0.1591
28793W        W44262   2.533   6.381   0.399 -0.4628 -0.0694  0.1301
28794W        W44263   1.353   1.879   4.448 -0.1394  0.0420  0.1691
28795W        W44264   4.008   7.439   0.838 -0.3209 -0.0799 -0.0633
28796W        W44265   0.951   1.704   1.603 -0.0183 -0.1211  0.1637
28797W        W44266  13.854   9.327   0.999  0.1444  0.1145  0.0656
28798W        W44267   1.454  14.020   0.812 -0.4336 -0.1069  0.2368
28799W        W44268   9.585  12.584  11.922 -0.3605 -0.2272  0.1541
28800W        W44269   3.173   7.995  12.572  0.2294 -0.5776 -0.0450
28801W        W44270  17.882   9.292   1.196 -0.1015 -0.2153 -0.0865
28802W        W44271  13.988   9.772   1.989 -0.4447 -0.3166 -0.3771
28803W        W44272   5.468  16.652   1.766  0.1898  0.1456  0.0849
28804W        W44273   7.898  17.285   5.812 -0.1905  0.0698  0.0907
28805W        W44274   3.805   5.549  13.835  0.0186  0.2024  0.0282
28806W        W44275   2.245  13.547   2.697 -0.1075 -0.0473  0.2305
28807W        W44276  15.088   2.713  10.876 -0.0388  0.2169  0.1692
28808W        W44277   5.942   3.370   2.771 -0.1273  0.3395 -0.0246
28809W        W44278  16.867  17.622   3.454  0.1194 -0.1400  0.2019
28810W        W44279   1.492   8.317   3.168  0.1768  0.0459 -0.3087
28811W        W44280   3.733  11.152  11.689 -0.1793 -0.0104  0.4935
28812W        W44281   0.535  17.173   3.015 -0.1400 -0.1233 -0.1313
28813W        W44282   6.289   2.466  13.207  0.0522  0.1019 -0.1479
28814W        W44283  17.181  11.369   1.084  0.1495 -0.2698 -0.0493
28815W        W44284   0.390  18.405   0.317  0.0173 -0.1482  0.0296
28816W        W44285   5.885   5.615  15.236  0.2589  0.0035  0.1340
28817W        W44286   5.745   9.260   0.494 -0.3347 -0.1698  0.0739
28818W        W44287   2.627   3.353   0.892 -0.1924  0.1756 -0.1968
28819W        W44288   5.585  15.235  12.564  0.1237  0.0352  0.1708
28820W        W44289  12.781   9.766   5.536 -0.2855  0.0331 -0.3853
28821W        W44290  11.323  18.236   3.307 -0.0417  0.0740 -0.1146
28822W        W44291  13.298  10.125  15.263 -0.0135  0.1115  0.1151
28823W        W44292  14.021   9.784  13.857 -0.1677  0.0486 -0.2291
28824W        W44293  16.743  15.331   5.231  0.1506  0.0871  0.1463
28825W        W44294  10.890   4.118   1.063 -0.0365  0.0718  0.1031
28826W        W44295   7.195  11.404   1.486  0.3243  0.1841 -0.2994
28827W        W44296   0.594  12.456   1.527 -0.2061  0.1302  0.1719
28828W        W44297   3.891  16.259   1.133  0.1591 -0.1197  0.2233
28829W        W44298  14.254  12.828  14.369  0.1402 -0.2186 -0.2009
28830W        W44299   6.244  10.543  10.534  0.0219  0.2344  0.1533
28831W        W44300   9.732   5.017   0.557 -0.0862 -0.1645  0.0292
28832W        W44301   7.610  12.907  12.447 -0.0788 -0.0130  0.1705
28833W        W44302  13.441   8.761  15.570 -0.0881  0.1227  0.0893
28834W        W44303   5.263  12.331  14.979 -0.0231  0.3204  0.0075
28835W        W44304  18.086   6.423   1.343  0.5156  0.1434  0.1779
28836W        W44305   3.758  17.699   3.157 -0.0985  0.0035  0.1882
28837W        W44306   4.947   0.879  15.512 -0.0260 -0.1331 -0.3861
28838W        W44307  13.754  13.244  15.373  0.1064  0.4589 -0.1848
28839W        W44308  14.435   2.125   3.398 -0.6061  0.1324 -0.0475
28840W        W44309   9.374   7.167  13.748 -0.2099  0.2081  0.0152
28841W        W44310  11.487   6.820  13.271  0.3551  0.2586  0.2893
28842W        W44311  10.781  11.865  13.155 -0.1145  0.0978  0.0766
28843W        W44312  11.145   9.240   4.116  0.0287 -0.0974 -0.1573
28844W        W44313   2.741  15.338  11.356 -0.2444 -0.2963 -0.0037
28845W        W44314  11.263  15.013   2.821 -0.6123  0.2632 -0.1177
28846W        W44315  13.838  17.563   2.386  0.1459  0.1844  0.2166
28847W        W44316   2.731  13.926   0.766  0.3131  0.0527  0.1364
28848W        W44317   2.078   1.109  11.593  0.2623 -0.2269 -0.1708
28849W        W44318   8.388   7.737  12.950 -0.2517  0.1260  0.1675
28850W        W44319  17.347  16.598  14.394  0.2211 -0.0700 -0.3747
28851W        W44320  16.503  16.746   4.958  0.0729 -0.1752  0.0386
28852W        W44321  15.450  15.669   2.174 -0.2028 -0.1169 -0.0992
28853W        W44322  10.792   4.496  11.458 -0.2035 -0.3757 -0.0369
28854W        W44323  10.240   4.181  10.824 -0.0871  0.1649  0.0656
28855W        W44324  15.147   5.832  13.782  0.1877 -0.0432 -0.0938
28856W        W44325   9.502   1.821  13.777  0.2632 -0.0073  0.1877
28857W        W44326  12.525  14.254   3.343  0.1078  0.1644 -0.2108
28858W        W44327  14.380  12.094  12.525  0.0238 -0.1419  0.1266
28859W        W44328   3.746  10.571   1.278  0.0059 -0.2396 -0.0690
28860W        W44329   6.458   7.556   1.140 -0.2152  0.1820 -0.1600
28861W        W44330   5.359   3.834   2.088  0.5147 -0.1585  0.1884
28862W        W44331   0.899   9.293  13.797  0.2269  0.3275 -0.3302
28863W        W44332   9.165  18.205  15.474 -0.1146 -0.1188 -0.2323
28864W        W44333  15.270  18.484   0.212  0.0814 -0.0837  0.1483
28865W        W44334   9.364  12.971  13.277  0.0422 -0.0466  0.1474
28866W        W44335  12.087  15.921  12.650  0.2711 -0.4436  0.1692
28867W        W44336   3.870   7.476   4.021  0.4393 -0.1829 -0.0740
28868W        W44337  11.229  11.305   4.786 -0.0148 -0.0203 -0.0236
28869W        W44338  17.232   5.684   5.517  0.3318 -0.1896  0.0532
28870W        W44339   7.204  12.789  14.013 -0.0787 -0.3184  0.0670
28871W        W44340  18.635   8.728  11.282 -0.0303  0.0384 -0.1291
28872W        W44341  14.478   6.859   0.784  0.2149  0.0939  0.3063
28873W        W44342  10.272  14.776  11.744 -0.0214 -0.1083 -0.0849
28874W        W44343   0.488   7.657   3.231  0.2330  0.1267 -0.2244
28875W        W44344  12.506  13.956   0.029 -0.3863  0.1962  0.0253
28876W        W44345  14.194  15.611   4.756 -0.4769  0.2136  0.0555
28877W        W44346   0.363  12.793  15.043 -0.1205 -0.4609  0.1016
28878W        W44347  16.261  16.581  10.985  0.1679  0.3661  0.0751
28879W        W44348   5.602  13.704   5.227  0.1412 -0.0365 -0.0237
28880W        W44349   0.266   2.405   1.912  0.1464 -0.3207  0.2010
28881W        W44350   2.074   1.236  11.099  0.0350  0.0630  0.0440
28882W        W44351   4.026   3.921   0.931 -0.0003  0.1545 -0.0709
28883W        W44352   2.805   5.803   3.487 -0.0540  0.1612  0.0773
28884W        W44353   1.594   0.056   3.325  0.0453 -0.0429 -0.1804
28885W        W44354  17.467  11.598   4.213 -0.2660 -0.0906 -0.0023
28886W        W44355  11.574   0.818   1.598  0.0060  0.2023  0.0308
28887W        W44356  17.381  16.628   1.987 -0.1307 -0.1370 -0.5871
28888W        W44357   7.133  16.577  14.069  0.1943 -0.1977 -0.1035
28889W        W44358   4.219   6.442  10.217 -0.0039 -0.3630 -0.1649
28890W        W44359   9.742  16.501   0.962 -0.0479 -0.0405  0.1175
28891W        W44360  11.297  16.404  11.719  0.1274  0.1582 -0.0895
28892W        W44361   9.999   9.184  11.487 -0.0112 -0.1138 -0.0686
28893W        W44362  15.868   1.575   2.241  0.2560 -0.0956  0.2048
28894W        W44363  18.668  13.494  12.671  0.1225 -0.4413 -0.0475
28895W        W44364   7.991  11.077  10.018 -0.1830  0.2021  0.2380
28896W        W44365  13.070  11.517   1.870 -0.0422  0.1998 -0.0805
28897W        W44366   3.753  17.320   1.820 -0.0169  0.2906  0.0819
28898W        W44367  14.550  18.099   3.787  0.1135 -0.1473 -0.0054
28899W        W44368  15.371  12.976  12.959  0.0516  0.0695  0.2094
28900W        W44369   1.832   6.906  11.567 -0.2297 -0.0811  0.0102
28901W        W44370   5.476  15.204   4.291  0.1158  0.0567 -0.0897
28902W        W44371  17.749   4.354  15.084  0.2202 -0.2188  0.2123
28903W        W44372  10.181   5.368  10.582 -0.1795  0.0102  0.1978
28904W        W44373  12.345  11.161   5.826 -0.2174  0.1117  0.0550
28905W        W44374   4.626  15.060   1.826  0.4038  0.0365 -0.0664
28906W        W44375  17.713   1.142   2.860  0.0626 -0.1275  0.1819
28907W        W44376   4.870  14.333   3.225  0.0838  0.1720 -0.0041
28908W        W44377   3.663  14.281   1.373  0.1005  0.1728 -0.1744
28909W        W44378   6.652   6.420   2.138  0.1229  0.1334  0.1111
28910W        W44379  14.815  11.151  15.119  0.1128  0.2221  0.0450
28911W        W44380  16.245  15.277  14.226  0.0176 -0.3722 -0.1100
28912W        W44381  14.005   1.086   3.788  0.3215  0.1163  0.0941
28913W        W44382   3.712  17.061  13.804  0.0452 -0.3813  0.2249
28914W        W44383   8.480  17.238  11.438 -0.0384  0.0392 -0.4052
28915W        W44384   8.327   3.454  10.377 -0.0787  0.2813  0.1626
28916W        W44385  10.185  13.716   0.942  0.0658 -0.2398 -0.1549
28917W        W44386  16.060  15.393   1.496  0.0229 -0.3755 -0.0505
28918W        W44387   4.695   3.365  13.375  0.1596  0.0543 -0.1840
28919W        W44388   3.470   6.065   0.296  0.3481  0.2049  0.1006
28920W        W44389   2.919   3.752   2.299  0.1416 -0.1073  0.3340
28921W        W44390   8.280   3.297   4.977 -0.1503 -0.1674 -0.1842
28922W        W44391  17.375   9.030   1.927  0.1258  0.1197 -0.1335
28923W        W44392  15.663  13.214   1.476  0.1480  0.0399  0.2678
28924W        W44393   7.558  10.006   5.383 -0.0186  0.2590 -0.3061
28925W        W44394   2.642   8.203  14.829 -0.0274 -0.1100 -0.3271
28926W        W44395   9.158  17.212   1.847  0.0133 -0.2460 -0.3415
28927W        W44396  10.751  17.414  12.916 -0.5438  0.0948 -0.0713
28928W        W44397  16.196   4.441  13.595  0.1102 -0.0952  0.4005
28929W        W44398  13.195   4.807   1.987  0.0248  0.0364  0.3314
28930W        W44399   1.195  14.150  12.351 -0.2918 -0.2237  0.1156
28931W        W44400   3.948  18.774  12.654 -0.4176  0.2548  0.0400
28932W        W44401  11.957  18.027  14.480  0.1898  0.2611  0.1800
28933W        W44402  10.802   6.368  11.179  0.0476  0.0469 -0.3140
28934W        W44403   5.760   6.398   1.034 -0.0654  0.1241 -0.1129
28935W        W44404  14.888   5.254  15.341 -0.2660  0.1081 -0.0984
28936W        W44405  13.383  12.335  15.494  0.3804  0.2245  0.1945
28937W        W44406  10.473  10.997   5.216  0.1258  0.3455 -0.1969
28938W        W44407  18.406  16.830   1.995 -0.1373 -0.1154 -0.2613
28939W        W44408   8.555  13.019  13.838  0.0699  0.0531 -0.3369
28940W        W44409  18.235   7.095   2.731  0.0320  0.1389  0.0089
28941W        W44410   7.865  11.290  15.040 -0.0664 -0.1481 -0.0437
28942W        W44411   5.050  15.837   2.160 -0.1842 -0.3565 -0.1142
28943W        W44412   7.126   9.870  11.264  0.1555 -0.3272 -0.0734
28944W        W44413   4.721   9.479  13.922 -0.1231  0.0147 -0.2797
28945W        W44414   0.162  14.899  10.989 -0.0695  0.1112  0.1673
28946W        W44415  14.794   0.303   5.799  0.2787  0.2861  0.0872
28947W        W44416  18.050   5.141   5.031  0.1144  0.1087 -0.0830
28948W        W44417  13.014   7.858  12.248  0.0263  0.0447  0.0141
28949W        W44418  14.212  14.615   3.778 -0.0351  0.4077  0.0565
28950W        W44419   3.660  13.934  15.601  0.1573  0.2658 -0.0306
28951W        W44420   6.114  15.897   0.939  0.3193  0.1436  0.0114
28952W        W44421  14.765   1.091  10.923  0.1399  0.1450 -0.1528
28953W        W44422   7.234  17.175   2.249  0.2879 -0.1958  0.0055
28954W        W44423  16.231   8.420   3.198 -0.5138 -0.0219  0.2638
28955W        W44424   6.666   4.655  14.969  0.3163 -0.0645 -0.2712
28956W        W44425  13.570   3.057  15.097 -0.1558  0.1630  0.1956
28957W        W44426  13.773   8.142  13.038  0.0552  0.3330  0.0954
28958W        W44427  14.528   6.266  12.415  0.3385  0.0816 -0.0708
28959W        W44428  15.670  17.317   5.448  0.2115  0.0592 -0.0744
28960W        W44429  13.579  14.900   5.117 -0.1092 -0.0082  0.0806
28961W        W44430   0.606  10.425   4.764  0.3988 -0.1155 -0.0633
28962W        W44431   4.586   0.232   3.852  0.0560 -0.0386 -0.0583
28963W        W44432  13.487  14.237  12.301 -0.0267 -0.2710  0.1143
28964W        W44433   1.403  10.801   4.995  0.0053  0.1136  0.1281
28965W        W44434   2.134  10.205  14.881  0.0614  0.1415  0.3411
28966W        W44435  13.605  11.804  11.059 -0.3000  0.1718  0.2171
28967W        W44436   0.807  15.815  12.187 -0.1482  0.0341  0.0050
28968W        W44437   5.437   0.997  10.498 -0.0805 -0.1241  0.2065
28969W        W44438   0.495   3.932  14.371 -0.2233  0.2932 -0.0398
28970W        W44439  13.523   4.428   5.486  0.2407 -0.0406  0.3585
28971W        W44440  14.573   3.343   1.061  0.3160  0.0362 -0.1077
28972W        W44441   1.658  16.202   2.342  0.2163  0.2297  0.3093
28973W        W44442  11.853  14.689  13.801  0.0106 -0.1944 -0.1148
28974W        W44443   1.966   7.737  14.838 -0.0544  0.5087  0.4154
28975W        W44444  10.304   7.593   2.565  0.0413 -0.2051 -0.1341
28976W        W44445   5.140   6.220   1.081  0.1100 -0.0821  0.3750
28977W        W44446   1.771   7.474  15.262 -0.1818  0.0333 -0.0577
28978W        W44447   2.972   9.040   3.014 -0.0485  0.3076 -0.2189
28979W        W44448  12.362  13.232  13.219 -0.0757 -0.2040  0.1592
28980W        W44449  15.243   0.653  12.803  0.1032  0.1296  0.0868
28981W        W44450   6.387  16.097  11.345  0.0424  0.5983 -0.0585
28982W        W44451  17.871   7.186   2.236 -0.0603  0.1255 -0.1684
28983W        W44452   3.181   4.405  13.674  0.1240  0.0458 -0.1336
28984W        W44453   5.351  12.066   3.892  0.0763 -0.2824 -0.0610
28985W        W44454   8.115   7.049   0.909 -0.0417  0.0077 -0.1339
28986W        W44455   2.568  12.518  12.669 -0.0590 -0.2358  0.2853
28987W        W44456   1.711  15.456   5.172 -0.0334 -0.1361 -0.2342
28988W        W44457   1.358  10.997   2.624 -0.0398 -0.0340  0.0642
28989W        W44458  16.835  10.579  13.649  0.0623 -0.1078  0.0493
28990W        W44459   2.891  10.860   2.799 -0.1208  0.0601 -0.1411
28991W        W44460   8.893  14.585  11.699  0.0900 -0.0009 -0.0662
28992W        W44461  10.700  10.492  13.662  0.0441 -0.0591  0.0420
28993W        W44462  14.462  13.579  15.523 -0.1712  0.4782  0.2859
28994W        W44463  13.296   7.480  12.433  0.0995 -0.0217 -0.0345
28995W        W44464  18.741   2.623  15.358  0.0669 -0.1090 -0.0751
28996W        W44465  17.821  17.398  10.587 -0.0019 -0.1029 -0.2668
28997W        W44466   0.239   4.550   0.886 -0.0314 -0.0554 -0.1003
28998W        W44467  15.037   7.786   5.250  0.0525 -0.5000 -0.0703
28999W        W44468  11.397  14.300  14.624 -0.2719 -0.0957 -0.0991
29000W        W44469   2.892  16.786   5.912  0.1157 -0.1787  0.0935
29001W        W44470   7.492   4.936   1.133  0.1175 -0.0287 -0.1327
29002W        W44471   3.081   7.278   5.286 -0.3219  0.5661 -0.0770
29003W        W44472  18.400   1.317  14.873 -0.2504 -0.2650  0.0469
29004W        W44473   8.261   6.499   2.504  0.1108  0.0784  0.2484
29005W        W44474   7.951  17.950   9.698 -0.0237  0.0434 -0.0268
29006W        W44475   2.547   2.152  12.930  0.2117 -0.2157  0.1577
29007W        W44476   8.869  17.156   4.383 -0.0180 -0.1548 -0.2606
29008W        W44477   7.127   5.447  11.398 -0.1721 -0.1813  0.0078
29009W        W44478  10.582  12.826  15.539  0.0958  0.0739  0.1858
29010W        W44479   2.034   4.873   2.342  0.0528  0.1551  0.0369
29011W        W44480   3.713   6.699  10.433  0.1858  0.1989  0.1258
29012W        W44481  10.116   7.057   4.738 -0.1541 -0.0880  0.0380
29013W        W44482   6.418  14.229  15.452  0.1652  0.1528  0.4143
29014W        W44483  10.244  13.582  14.862  0.0266 -0.0074 -0.0753
29015W        W44484   4.365   6.792  15.430 -0.1273  0.1134  0.0983
29016W        W44485   8.955   6.370  10.939  0.4210 -0.0782 -0.1386
29017W        W44486  11.019   0.575   4.306 -0.1254  0.0289  0.0266
29018W        W44487  16.120   1.926  11.112  0.3358 -0.1840 -0.2419
29019W        W44488   2.363   5.756  15.423  0.0064 -0.1185  0.1004
29020W        W44489   9.647  11.042  12.676  0.1688 -0.1523 -0.0055
29021W        W44490  15.449   1.389   1.015 -0.2063  0.1335  0.0289
29022W        W44491   1.943  12.288  10.945  0.0100  0.2205  0.1335
29023W        W44492   5.882  10.389  12.416  0.2064  0.0028  0.1330
29024W        W44493  10.993  12.018  12.315 -0.2566 -0.0217  0.1077
29025W        W44494   1.241  16.806   3.435 -0.3130 -0.1503  0.0469
29026W        W44495  10.764  13.873  13.577  0.2164  0.2330  0.2818
29027W        W44496   5.067  17.908  11.215 -0.0976  0.0082 -0.0054
29028W        W44497  14.009  15.544  14.905 -0.3103 -0.3341 -0.1242
29029W        W44498   0.597   4.693  13.036  0.1545 -0.1504 -0.0152
29030W        W44499  13.452   8.360   3.352  0.1530 -0.1536 -0.1120
29031W        W44500  10.484   5.704   5.238 -0.0503  0.3018  0.3894
29032W        W44501   1.388  14.346   5.307  0.0176 -0.2033  0.0672
29033W        W44502  14.428   0.143   2.695 -0.1747 -0.0888  0.0221
29034W        W44503   3.760  12.202  11.699 -0.0112 -0.1357 -0.0067
29035W        W44504   3.324  11.929   5.503 -0.1305  0.1842 -0.4680
29036W        W44505  14.942  17.051  15.407  0.4491 -0.0368  0.0171
29037W        W44506  17.491   8.925   0.505 -0.2625 -0.1598  0.0437
29038W        W44507  16.727  11.734   4.334  0.0618 -0.2755 -0.0753
29039W        W44508   4.022  16.301   5.308  0.4645 -0.1291 -0.0380
29040W        W44509   2.907  14.252   2.986 -0.0524  0.2073 -0.0788
29041W        W44510  15.859   1.908  14.019 -0.0696  0.2374  0.0324
29042W        W44511  16.384  17.243   4.701  0.4258  0.0810  0.2005
29043W        W44512   7.622  12.813  14.973 -0.2845 -0.1034 -0.4126
29044W        W44513   9.937  10.904  13.047  0.1561 -0.2446  0.0921
29045W        W44514   0.965  12.297   4.974  0.1272 -0.2416 -0.0486
29046W        W44515  17.500   2.171   4.635 -0.0655  0.1048 -0.0935
29047W        W44516   9.344   1.279   5.276  0.1384  0.1462 -0.0875
29048W        W44517   6.691  18.691   1.006  0.2068  0.2964  0.1128
29049W        W44518  11.033   2.370   1.378 -0.0636  0.1858  0.4496
29050W        W44519   6.583   3.681   2.050  0.2060 -0.0346  0.0254
29051W        W44520   6.281   7.227   3.430 -0.1521 -0.1833 -0.1196
29052W        W44521   5.389   7.821   2.687 -0.3374 -0.3079  0.6015
29053W        W44522  13.014  14.045  11.117  0.1163 -0.1878  0.4951
29054W        W44523   4.478   9.481  12.962 -0.0094  0.6175 -0.2937
29055W        W44524  13.760   7.391  12.659  0.1832  0.0202  0.1511
29056W        W44525  16.432   4.720  11.400 -0.4605  0.1258  0.0861
29057W        W44526   3.528   3.304   1.640 -0.2372  0.1191 -0.3978
29058W        W44527   8.576  13.169   3.772  0.0932  0.1182  0.1357
29059W        W44528  17.755   6.703  14.474 -0.1598 -0.2408 -0.2498
29060W        W44529  17.143  17.986  13.097  0.0025 -0.1236  0.0557
29061W        W44530   0.254   4.147   0.556  0.0206  0.0432 -0.2036
29062W        W44531  18.526   3.448  13.343 -0.3907  0.1227 -0.0871
29063W        W44532  17.735   3.303  14.533  0.2540  0.1656  0.0137
29064W        W44533   8.959   4.041   3.179 -0.1514  0.3278  0.0941
29065W        W44534   1.440   3.906   3.372  0.1581 -0.1720  0.0313
29066W        W44535  15.234   7.581   4.552 -0.0869  0.1421 -0.0523
29067W        W44536  16.071   1.490  13.825 -0.1448  0.5210 -0.1612
29068W        W44537  16.489   1.748  10.110 -0.0718 -0.0613  0.3503
29069W        W44538  14.728  13.262  15.242  0.1892 -0.1891 -0.0024
29070W        W44539  14.820   5.106   4.135  0.0326 -0.2340  0.0287
29071W        W44540   2.941   7.622   9.805 -0.2868 -0.0673 -0.1208
29072W        W44541  18.373  11.041  14.789 -0.0761  0.1175  0.0274
29073W        W44542  11.834   4.681  10.992 -0.1757 -0.0527  0.1738
29074W        W44543  11.687   5.910   2.233 -0.0589 -0.0624  0.0739
29075W        W44544  18.436  12.746   3.465 -0.0669  0.0161 -0.2149
29076W        W44545   1.289   2.568  12.943 -0.1086 -0.2095  0.3695
29077W        W44546   1.668   3.584   0.662  0.2073 -0.2548 -0.1320
29078W        W44547   5.227  14.277   0.963  0.0859  0.5401 -0.0244
29079W        W44548  11.600  10.478   4.305 -0.0512 -0.3565 -0.0560
29080W        W44549   6.088   3.456   2.111 -0.2338 -0.0763 -0.4940
29081W        W44550  12.175   1.427   1.473  0.3084  0.0533 -0.0030
29082W        W44551   4.990   8.329   4.774  0.1395  0.0599  0.2290
29083W        W44552  14.777   6.372  13.870  0.1549 -0.0749 -0.0916
29084W        W44553   5.448   0.605  12.873  0.0689  0.1584  0.0745
29085W        W44554  14.722   3.555   5.176  0.2386  0.0511 -0.1961
29086W        W44555  15.916   6.850   0.543 -0.0048 -0.0167  0.0353
29087W        W44556   5.314  11.893   1.694  0.0215 -0.0812  0.0150
29088W        W44557   7.420  16.982   2.885  0.2093  0.3800  0.2320
29089W        W44558  17.890   0.578  13.922  0.2173 -0.1993 -0.2092
29090W        W44559   8.115  13.812   2.773  0.1567 -0.2362  0.1393
29091W        W44560  10.046  11.564  11.289  0.0971 -0.0683  0.1886
29092W        W44561  11.407   9.444  15.127  0.1745  0.0191  0.0949
29093W        W44562  10.883  14.383  15.425 -0.0119  0.0790  0.2107
29094W        W44563   9.710   2.973   1.438  0.1653  0.1249  0.1725
29095W        W44564   4.124  18.059  12.287 -0.2278  0.2768  0.1604
29096W        W44565  13.737   4.086   5.065  0.1591  0.3342  0.2708
29097W        W44566   1.855   8.571  10.949  0.1589  0.0093 -0.0890
29098W        W44567  18.695   9.702  11.888  0.0968  0.2753 -0.0763
29099W        W44568   6.137  12.149  11.484  0.0261 -0.0143  0.3588
29100W        W44569   5.128   9.257   3.181  0.0191  0.1301 -0.0535
29101W        W44570   7.209   8.419   3.743  0.2204  0.1028  0.1060
29102W        W44571  15.671  18.255   2.835  0.0878 -0.1619  0.0616
29103W        W44572  14.017  10.272   1.009  0.0511 -0.2317  0.0140
29104W        W44573  11.301  15.172   3.442  0.1499 -0.2720 -0.0599
29105W        W44574  12.602  13.774  10.925  0.0250  0.3612  0.2911
29106W        W44575  17.102  12.909   1.888  0.3257 -0.0599  0.4367
29107W        W44576   3.483  13.309  10.901 -0.2742  0.2377  0.4733
29108W        W44577   8.503   5.514   4.014 -0.0628  0.3962  0.1504
29109W        W44578  11.123   7.089  10.809 -0.2305 -0.0086 -0.1060
29110W        W44579   7.158  16.038  11.814 -0.0018  0.0943 -0.2054
29111W        W44580  13.058   9.263  11.086 -0.2467 -0.0576  0.0107
29112W        W44581  17.645   9.632   3.742 -0.1351  0.3482  0.0467
29113W        W44582  16.848  14.645   2.328 -0.0769 -0.1816 -0.2425
29114W        W44583   3.750  18.629  13.204 -0.0748  0.1050  0.2784
29115W        W44584  17.445   6.013   5.163  0.0477 -0.0915 -0.0378
29116W        W44585  14.388  10.785  12.995 -0.1138 -0.2185  0.0661
29117W        W44586   9.928   6.043   2.148 -0.1095 -0.0256  0.0884
29118W        W44587  15.094  17.215  11.217  0.0701 -0.2283  0.1088
29119W        W44588  13.831   0.708   2.356 -0.0441 -0.0970  0.0299
29120W        W44589   6.579   0.793  10.647  0.1114 -0.1348 -0.2460
29121W        W44590   5.867  15.715   2.600 -0.1448 -0.2252  0.1895
29122W        W44591  13.364  15.855  15.079 -0.1323 -0.0393 -0.0163
29123W        W44592  16.422   3.850  10.720 -0.1527  0.3544  0.2108
29124W        W44593  14.927   2.094  13.645  0.0443 -0.2372 -0.3415
29125W        W44594   5.298   1.534   4.118  0.3518 -0.0111 -0.1696
29126W        W44595  11.323  14.635  10.131  0.0242 -0.1611 -0.3138
29127W        W44596   4.433   6.886  13.320 -0.2749 -0.0529 -0.1094
29128W        W44597  14.108  17.532  14.867  0.2087 -0.1560  0.1622
29129W        W44598   1.546  12.987  12.994  0.2262 -0.1229  0.1240
29130W        W44599   8.090   4.568   4.074  0.0521  0.0421 -0.2206
29131W        W44600  12.481   2.575   0.942  0.4057 -0.0973  0.1236
29132W        W44601   2.015  14.396   4.500  0.2549  0.0916  0.0583
29133W        W44602   8.246  11.722  15.200 -0.3114  0.1330 -0.0917
29134W        W44603  11.968  14.616   0.283 -0.2107 -0.0503  0.1011
29135W        W44604  11.433   6.725  14.803  0.0752  0.0737 -0.1028
29136W        W44605  10.632  12.614   0.384 -0.0766 -0.3073  0.0214
29137W        W44606   7.978   5.641  11.205  0.0951 -0.2656  0.3094
29138W        W44607   8.135   2.822  12.203  0.0964  0.0485  0.0421
29139W        W44608  14.449   7.212   3.269 -0.1106 -0.1945  0.1967
29140W        W44609  16.052  12.997  14.024 -0.2947  0.1750  0.2878
29141W        W44610   0.144   6.952  11.229  0.2197  0.1210 -0.2066
29142W        W44611   1.594  12.682   5.108  0.0478  0.1504 -0.1011
29143W        W44612  11.745   1.830  11.974  0.1258 -0.2639 -0.0954
29144W        W44613  12.641  17.766   3.397 -0.1331 -0.2131 -0.5343
29145W        W44614   7.913  12.265  11.830  0.0017  0.2650  0.3333
29146W        W44615  14.190   9.876   5.552 -0.3081  0.0378 -0.1644
29147W        W44616  11.960   0.730  14.896 -0.0987 -0.0301  0.0346
29148W        W44617  11.454  10.421  14.020  0.0665  0.1857  0.2149
29149W        W44618   4.718  15.512  10.807  0.1066  0.0137  0.0172
29150W        W44619  11.016   8.225   2.772 -0.0149 -0.0831 -0.0190
29151W        W44620   6.565  10.797  12.780  0.1654  0.0016  0.0614
29152W        W44621   9.722   9.684  10.369 -0.1917  0.2773 -0.1855
29153W        W44622  14.329  12.765  11.795  0.0246  0.1643  0.1686
29154W        W44623  11.704   4.639   2.042 -0.1899 -0.0081 -0.1823
29155W        W44624   6.926   0.416  13.219 -0.1502  0.1586  0.1719
29156W        W44625  15.746   1.058   3.320  0.2228  0.1864  0.2311
29157W        W44626  10.049  15.809   4.669 -0.0290 -0.0875 -0.0521
29158W        W44627   1.333   2.089  12.987  0.3433 -0.0263 -0.0107
29159W        W44628   7.636   5.669   5.227 -0.1033 -0.0401 -0.1936
29160W        W44629   6.124   8.659   0.535 -0.1316 -0.0154  0.0116
29161W        W44630  14.619  11.986   4.768  0.3707 -0.1797 -0.0059
29162W        W44631   2.671  13.753  15.281  0.2517 -0.1824 -0.0015
29163W        W44632  13.074   1.807   0.694  0.0527  0.2155 -0.5909
29164W        W44633  14.591   7.894   0.787 -0.1516  0.1684 -0.4549
29165W        W44634   7.749  10.702  11.208  0.1905  0.1064  0.0606
29166W        W44635   1.280   8.660   3.882 -0.3695 -0.0382  0.3082
29167W        W44636  14.807  13.993  13.893  0.1340  0.0632 -0.4479
29168W        W44637  10.664  11.584   2.911 -0.1573 -0.1657 -0.1520
29169W        W44638  10.813   7.492   1.256 -0.0470  0.2025  0.0866
29170W        W44639   2.594   8.468   1.428  0.1804  0.3125 -0.0388
29171W        W44640  10.577   7.061  15.131 -0.0059 -0.0411  0.1835
29172W        W44641  18.014   2.499   3.062  0.0714 -0.0916  0.1816
29173W        W44642   0.831   7.639   2.225  0.2792 -0.1919  0.0639
29174W        W44643  11.732   0.934  10.125  0.0928  0.2892  0.0709
29175W        W44644  17.128   1.996   2.484 -0.2323 -0.5577 -0.1002
29176W        W44645  13.898  10.690  13.092 -0.0818 -0.2224 -0.0085
29177W        W44646  10.421  14.379  10.397 -0.1672 -0.1645  0.1879
29178W        W44647  18.510   7.554   4.939 -0.1041 -0.1266  0.0605
29179W        W44648   1.744  18.144   4.647  0.1119 -0.2410  0.1286
29180W        W44649  18.407   0.786  12.200 -0.1677 -0.1044 -0.3971
29181W        W44650   7.917  13.858   3.223 -0.0038  0.0403  0.3206
29182W        W44651  10.776   9.397  13.662 -0.3400  0.0251 -0.0462
29183W        W44652  16.709  13.176  15.084  0.1316 -0.0014 -0.0415
29184W        W44653  18.204   4.292  12.194 -0.1020  0.1505 -0.1843
29185W        W44654   9.554  13.469  11.866 -0.3120 -0.1301 -0.3428
29186W        W44655   2.212  18.106   0.997 -0.0107 -0.1561  0.1498
29187W        W44656   0.452   1.444  13.936  0.0549 -0.0539 -0.1191
29188W        W44657   8.645  18.069   4.239  0.1781 -0.0364  0.2281
29189W        W44658   9.491  11.134   3.813  0.1838 -0.0716 -0.2250
29190W        W44659  13.819  17.167  14.295 -0.0024 -0.0384 -0.0100
29191W        W44660   9.254   4.577   3.262 -0.3571  0.0789  0.0076
29192W        W44661  10.234   1.409  11.721 -0.0025  0.1297 -0.0376
29193W        W44662  17.956   0.724  11.180 -0.1501 -0.1288 -0.1950
29194W        W44663  14.391   8.989   9.934 -0.0749 -0.0776  0.2548
29195W        W44664   9.279   4.511   0.450 -0.1729 -0.0790  0.1784
29196W        W44665  15.964   1.075  12.494 -0.3304  0.0577  0.2072
29197W        W44666  10.370  11.955   1.133  0.1218  0.2060 -0.4012
29198W        W44667  16.285  17.639   3.313 -0.0622  0.1626 -0.1098
29199W        W44668  18.521  14.738  11.344  0.1881  0.1813  0.0247
29200W        W44669  11.900   9.239  15.022  0.0591  0.0868  0.1741
29201W        W44670   4.365  11.555   1.342  0.0195 -0.1725  0.1295
29202W        W44671  12.402  18.499  14.930  0.0837  0.1887  0.2024
29203W        W44672  18.552   6.029  13.393 -0.5231  0.1796 -0.2573
29204W        W44673   0.812  16.050  13.745  0.3027  0.4218  0.0435
29205W        W44674  17.431  14.945   3.881 -0.0591 -0.4125  0.0144
29206W        W44675   6.794  15.423   3.694 -0.0247 -0.1003  0.1148
29207W        W44676   0.736   0.881  12.738 -0.0438  0.3144  0.7324
29208W        W44677  12.397  14.866  11.931  0.1749  0.0346 -0.2925
29209W        W44678  18.282  17.981  11.911 -0.4395 -0.1223  0.4732
29210W        W44679   0.502  11.354   0.354 -0.0485  0.1394 -0.2523
29211W        W44680   6.140   9.605  15.434 -0.1475  0.0590 -0.2168
29212W        W44681   2.454  15.197   3.372  0.2914 -0.2397  0.2124
29213W        W44682   2.766   1.224  13.875  0.1029 -0.0304 -0.1333
29214W        W44683   4.743   7.397  11.163 -0.3138 -0.3021  0.1085
29215W        W44684  10.099   0.104   1.669  0.0815 -0.1117  0.0933
29216W        W44685  10.425   7.336   0.028 -0.0210 -0.0080 -0.0281
29217W        W44686   9.423   4.389  11.396  0.4066 -0.2224 -0.1820
29218W        W44687  12.448  10.622  10.150  0.0845 -0.1755  0.2602
29219W        W44688  15.930   0.978   1.154  0.1559 -0.1368  0.1689
29220W        W44689   7.384  10.619  11.976 -0.0379 -0.2475 -0.0368
29221W        W44690   4.501  11.450  14.304 -0.1930 -0.0039  0.0655
29222W        W44691   2.041  12.333  14.120 -0.0920 -0.2418 -0.1102
29223W        W44692   0.691  11.324   1.973  0.0372 -0.1314 -0.0911
29224W        W44693  10.229  13.206  12.218 -0.4080 -0.1755  0.0248
29225W        W44694   3.479   9.965   3.455  0.0301  0.1144  0.0117
29226W        W44695  18.569   1.527   3.730 -0.3404  0.0604 -0.1491
29227W        W44696  12.209  10.863  12.080  0.1574  0.1573  0.1319
29228W        W44697  10.792   1.426  10.420 -0.1827 -0.2254  0.0508
29229W        W44698  14.034  11.158   0.121  0.2110  0.3032  0.0780
29230W        W44699   6.596   8.250   1.369 -0.1489  0.0196  0.1066
29231W        W44700   8.963  13.760  11.205 -0.1539  0.3313  0.0386
29232W        W44701   9.496   0.870   1.389 -0.0675 -0.0991  0.1796
29233W        W44702   6.399   1.323   0.845  0.0864  0.1331 -0.0838
29234W        W44703   1.943  10.163   5.208  0.0569 -0.0865 -0.0799
29235W        W44704   3.132   4.191   2.475 -0.1485 -0.1698 -0.1505
29236W        W44705  11.387  15.553   1.625  0.2168  0.2327  0.0588
29237W        W44706  12.627  13.377   3.351 -0.3448  0.1309 -0.1887
29238W        W44707   5.400   0.606   4.321  0.3892  0.0975 -0.2610
29239W        W44708   6.311   5.103  13.414 -0.1946 -0.1199 -0.2989
29240W        W44709   7.214   0.555   2.449  0.0831  0.0292 -0.0662
29241W        W44710   9.312  15.475   3.013 -0.1798 -0.0675  0.4114
29242W        W44711   4.556   3.407  13.856  0.1389  0.1651  0.6510
29243W        W44712   1.020  13.132   0.559  0.0411 -0.0848  0.1821
29244W        W44713   1.169  13.021  12.504 -0.1303 -0.0167  0.1802
29245W        W44714   9.570   7.250   2.155 -0.0733 -0.2135 -0.1399
29246W        W44715   8.529   1.665   0.965  0.1166  0.1104 -0.0400
29247W        W44716   4.535   0.642   3.515 -0.2058  0.2136  0.0242
29248W        W44717   3.737  18.411   2.720  0.1396 -0.0046  0.1473
29249W        W44718  12.196  14.956   2.014  0.0520 -0.0580 -0.2254
29250W        W44719  14.529   0.470  12.454 -0.0944 -0.1820  0.1565
29251W        W44720  16.488   2.515  15.633 -0.1754 -0.3693  0.2009
29252W        W44721  16.164  11.882   3.268 -0.2624 -0.1285  0.4293
29253W        W44722   2.607  16.032  13.802  0.0177  0.1504  0.2749
29254W        W44723   3.335  14.558  12.264 -0.2364 -0.0004 -0.0133
29255W        W44724  17.966  11.781  14.249 -0.1316  0.0990  0.1965
29256W        W44725   1.514  12.314  15.057 -0.2123 -0.2077 -0.1058
29257W        W44726   9.480   9.256  13.052  0.2400  0.0326 -0.2171
29258W        W44727  13.324   3.402   3.180 -0.0220  0.1479 -0.0268
29259W        W44728   9.164  18.287  11.011  0.2181  0.1923 -0.0593
29260W        W44729   6.052  13.890  12.100 -0.1174  0.1260  0.0089
29261W        W44730  18.726  18.697   4.293 -0.1655  0.1751  0.0795
29262W        W44731   1.795  11.762  11.833 -0.3523 -0.0663 -0.0994
29263W        W44732  18.683   5.203  14.509 -0.1224  0.1196  0.1617
29264W        W44733   5.359   6.258  15.132 -0.0010  0.0521  0.2416
29265W        W44734   5.011   9.964   1.252 -0.0598 -0.0759  0.0278
29266W        W44735  17.761   6.157  10.511  0.0911 -0.0130  0.0909
29267W        W44736   7.554   1.792   0.394 -0.2799 -0.3675  0.2645
29268W        W44737   6.683   9.849  10.817 -0.1649  0.0382  0.1544
29269W        W44738   4.286   3.817   2.653  0.0956 -0.0023 -0.2043
29270W        W44739   9.393   6.577  10.663  0.0516  0.0074  0.1205
29271W        W44740   2.757   9.460  10.777 -0.0707  0.0425  0.0515
29272W        W44741  16.013   9.062  13.290 -0.1184 -0.0109 -0.0462
29273W        W44742  15.923   4.548  11.310  0.1599  0.4105 -0.0914
29274W        W44743  17.243  15.066   4.469  0.1085  0.2899  0.2153
29275W        W44744   1.581   7.688   1.058  0.0649 -0.2287 -0.1260
29276W        W44745  14.013  14.307  13.876 -0.1622  0.0610  0.3486
29277W        W44746  18.761  13.814  14.752  0.0130  0.0879  0.2441
29278W        W44747  16.839  17.711  10.371 -0.2758  0.1323 -0.1192
29279W        W44748   9.841  15.562   0.680  0.2074 -0.2010  0.1573
29280W        W44749  15.053   0.302   4.462 -0.0613  0.0849  0.0118
29281W        W44750  16.675   2.864   1.087  0.0074 -0.1176  0.2427
29282W        W44751  16.087   1.394  10.928  0.4021 -0.0552 -0.5225
29283W        W44752  17.034   7.554   5.599 -0.1077  0.0757  0.1518
29284W        W44753  14.267   8.368  13.530 -0.1370 -0.0098 -0.2085
29285W        W44754  11.271   6.212   3.496 -0.0250  0.1065 -0.0784
29286W        W44755  14.130  11.489  13.746  0.2965  0.2015  0.2997
29287W        W44756  18.314   8.204  12.447  0.1330  0.0128 -0.0576
29288W        W44757   1.933   0.184  12.649  0.1844  0.4271  0.1743
29289W        W44758   9.401   1.359   9.991  0.0400  0.2763  0.0834
29290W        W44759   6.018  11.826  15.382  0.3086 -0.1223  0.3212
29291W        W44760  12.342   8.149   1.717  0.0172 -0.0462  0.0155
29292W        W44761   6.895   5.284   1.828 -0.0578  0.1818 -0.0640
29293W        W44762   7.842   9.519   1.588  0.0637 -0.2476 -0.4053
29294W        W44763   3.902  14.781  12.178 -0.0600  0.1279  0.0195
29295W        W44764   5.573  17.487   9.969  0.1337 -0.0421  0.0495
29296W        W44765   1.409   0.189   4.374  0.1421  0.2302  0.2787
29297W        W44766  11.659   4.542   0.457 -0.2037 -0.1820  0.0374
29298W        W44767   9.963  12.488   2.007  0.1178 -0.2496 -0.1285
29299W        W44768  15.075  15.378   2.329 -0.0664  0.2008 -0.1460
29300W        W44769   9.903   1.758  14.526  0.0566 -0.0766  0.3537
29301W        W44770   9.893   5.881   3.943  0.2239  0.0331  0.1737
29302W        W44771   4.124   8.852  15.138 -0.1530 -0.3570 -0.3422
29303W        W44772   1.783   8.941  13.130  0.1043  0.1791  0.2219
29304W        W44773  10.366  14.358  15.276  0.0050  0.1873 -0.2589
29305W        W44774  16.420   2.452  14.445  0.2026  0.1365  0.1177
29306W        W44775   7.487  11.399  12.000 -0.0035  0.4796  0.3418
29307W        W44776  15.822   4.542   3.328  0.0049 -0.0359  0.2151
29308W        W44777   4.245  13.736  12.633  0.1539  0.1165  0.2394
29309W        W44778   9.904  17.018   5.224 -0.0440 -0.0922 -0.0951
29310W        W44779  14.909   0.994  12.877  0.2354  0.0446  0.1947
29311W        W44780   5.651   4.941  12.305 -0.2558 -0.0237  0.0558
29312W        W44781   9.406   6.815  11.633  0.1221  0.2831 -0.3227
29313W        W44782  14.927  13.937   1.344 -0.3113 -0.2613 -0.2460
29314W        W44783  16.544   8.182  10.480  0.0873 -0.1427  0.0666
29315W        W44784  14.824  18.457   5.527  0.1160  0.0439 -0.4069
29316W        W44785   2.771  18.318   4.502 -0.0869 -0.2563  0.0480
29317W        W44786  11.868   0.040  11.973  0.1505  0.2578  0.1987
29318W        W44787   5.789   6.096   4.579 -0.0990  0.0888  0.3557
29319W        W44788   0.854  17.169  12.737  0.0142  0.0173 -0.1098
29320W        W44789   1.368  14.487   0.008  0.1799  0.0516 -0.1730
29321W        W44790   9.928  14.093   1.960 -0.1549 -0.2894  0.1003
29322W        W44791   5.944  14.097   5.191 -0.0402  0.1305 -0.0202
29323W        W44792  14.959  13.315   5.123  0.0319 -0.0956  0.0187
29324W        W44793  18.326   9.057  13.677 -0.1079 -0.0051 -0.0743
29325W        W44794  13.070  16.608   4.393 -0.1744  0.2505 -0.0333
29326W        W44795  14.778   4.857  15.112 -0.0909 -0.1456  0.0562
29327W        W44796  12.256  18.252   3.612  0.0630  0.2232 -0.0267
29328W        W44797   5.755  12.091  10.702  0.0456  0.0259  0.3547
29329W        W44798  10.071   2.130  14.199  0.1319 -0.1797 -0.3241
29330W        W44799   7.282   0.969  15.322 -0.1276 -0.0619  0.3498
29331W        W44800  17.630   4.535   2.400  0.1966 -0.0805  0.1393
29332W        W44801   4.786  17.842  14.286  0.2496  0.0610  0.2430
29333W        W44802   6.261   0.832  12.904 -0.3642 -0.0155  0.1805
29334W        W44803   0.646   4.935   2.080  0.0666  0.0124 -0.0833
29335W        W44804  17.590   1.659  13.384 -0.2036 -0.0629 -0.2920
29336W        W44805  18.285  10.574  11.547 -0.0975  0.2395  0.0398
29337W        W44806   2.516   2.434  12.416  0.5145  0.0562  0.2371
29338W        W44807  16.549  18.456  13.451 -0.0206 -0.1109  0.3879
29339W        W44808   7.736   6.078  12.898  0.1755 -0.1795 -0.2330
29340W        W44809   9.654   7.013   5.660  0.0572 -0.1012  0.1563
29341W        W44810  10.339   3.691  11.386  0.1280  0.2526 -0.2361
29342W        W44811  17.711   7.430  12.076  0.2696  0.0387  0.3261
29343W        W44812  15.292   4.334   0.686 -0.1807 -0.0932  0.0039
29344W        W44813  17.262  10.027   0.855 -0.1859  0.1353 -0.1224
29345W        W44814   4.435  14.434   0.380  0.1378 -0.0263  0.1897
29346W        W44815   0.016   5.469  11.883 -0.0753 -0.0529  0.0260
29347W        W44816   8.095   1.159  14.154 -0.1083 -0.3191 -0.0112
29348W        W44817   2.049   2.526  10.957  0.1354  0.0577 -0.0501
29349W        W44818  15.341   7.241  13.719  0.2074  0.2633  0.0206
29350W        W44819   3.662   2.168   4.308  0.0532  0.0478  0.0686
29351W        W44820  16.921  10.277  13.282 -0.0399 -0.0364  0.1323
29352W        W44821  15.651   2.914   0.121 -0.2689 -0.3167 -0.1429
29353W        W44822   4.418  17.129  13.011  0.2047 -0.0542 -0.0309
29354W        W44823   6.450   7.979  11.522  0.0520 -0.2187  0.1263
29355W        W44824   1.046   7.261   1.041  0.2537  0.0497 -0.0556
29356W        W44825  12.794   3.773  14.819 -0.0750 -0.4120 -0.0177
29357W        W44826  13.850   9.223  11.387 -0.2064 -0.1379  0.0194
29358W        W44827   9.117   2.071   2.241 -0.0362  0.0980  0.3898
29359W        W44828  18.379   9.587   1.319  0.1355  0.0104  0.4184
29360W        W44829  12.890   5.059  14.056 -0.1680  0.1872 -0.3133
29361W        W44830   8.366  10.341  15.148 -0.0151 -0.3048 -0.1591
29362W        W44831  15.450  15.350   0.132 -0.0672 -0.1735 -0.1964
29363W        W44832  17.242  17.012  15.356 -0.0766  0.1312 -0.0114
29364W        W44833   1.808   2.095   2.498  0.1766  0.0459 -0.3460
29365W        W44834  11.129   2.952   4.834 -0.0667 -0.4556 -0.0962
29366W        W44835  16.737   6.432  15.256  0.0428 -0.0939  0.2390
29367W        W44836   8.601   1.950   0.104  0.0819 -0.0852  0.0107
29368W        W44837   9.074   4.043  13.186  0.0521 -0.0710  0.1538
29369W        W44838   2.912  15.783  12.678 -0.0812  0.3476 -0.0484
29370W        W44839   2.611  13.584   3.459 -0.4190  0.0897  0.1333
29371W        W44840  14.769  14.132   3.940 -0.2265 -0.1616 -0.0196
29372W        W44841   8.860   3.417   1.171  0.1727 -0.5122  0.0477
29373W        W44842   2.264  17.155  11.423  0.1805  0.1566 -0.0060
29374W        W44843   5.556   9.693   5.016 -0.1554 -0.1234  0.1389
29375W        W44844   6.349   5.325   0.558  0.1257 -0.0974  0.0411
29376W        W44845   3.025   7.854  10.276  0.2659  0.3156 -0.2576
29377W        W44846   8.729   9.228  10.848 -0.2185  0.1401 -0.2628
29378W        W44847  11.815  11.357  13.278 -0.1758  0.0018  0.2231
29379W        W44848  10.913   8.242  11.793 -0.0256 -0.4439  0.1733
29380W        W44849  15.747   5.506  12.841 -0.2432  0.1369  0.4381
29381W        W44850  16.487   1.549   3.640 -0.0218 -0.2812  0.4105
29382W        W44851  18.237  17.428   5.614  0.1145  0.0640 -0.3130
29383W        W44852  16.101  12.524   4.576 -0.0841 -0.1436 -0.0490
29384W        W44853  17.946  11.598   4.984  0.0598 -0.0280 -0.1472
29385W        W44854  13.155   7.070  14.640  0.1067 -0.2157 -0.1095
29386W        W44855   9.256  18.759  10.216 -0.3660  0.0543 -0.1539
29387W        W44856   2.706  16.169  14.303  0.1212 -0.2230  0.0741
29388W        W44857  14.565  16.516  10.054  0.0651  0.0782 -0.0293
29389W        W44858  18.576  10.078  13.579  0.0880  0.3359 -0.0019
29390W        W44859   2.653   1.943  14.212 -0.0911  0.0912  0.1266
29391W        W44860   5.828  15.553  11.333 -0.1965  0.1853 -0.0548
29392W        W44861  11.352   5.775  14.697 -0.0818  0.0199  0.2686
29393W        W44862  16.464  13.637  12.775 -0.2576 -0.1422 -0.2095
29394W        W44863   8.731  14.138  11.531  0.2919 -0.0077  0.0068
29395W        W44864   9.633  12.601   4.020  0.1974  0.0135  0.4268
29396W        W44865   0.339  11.772  11.961  0.0126 -0.0645  0.1795
29397W        W44866   9.424   1.919   4.279  0.1185 -0.0363 -0.0313
29398W        W44867   5.846   4.375   3.268  0.1132  0.0814 -0.5329
29399W        W44868  16.934   3.798   3.840  0.1362  0.1077 -0.1914
29400W        W44869   2.554   1.572   5.073  0.1033 -0.2411 -0.0676
29401W        W44870   9.336   2.789   2.772  0.1302 -0.0667 -0.0352
29402W        W44871   7.640  12.456  12.656  0.1083 -0.0876  0.0914
29403W        W44872   3.686   8.138  14.144 -0.3730  0.1686  0.1504
29404W        W44873   7.506   2.241   0.730  0.0450  0.0082 -0.0167
29405W        W44874   7.885  17.789   3.477 -0.3038 -0.2191  0.0722
29406W        W44875   0.710   6.969  14.757  0.1165  0.2041  0.0046
29407W        W44876   5.241   6.688   2.262 -0.1375 -0.0191 -0.0761
29408W        W44877   2.602  15.625   4.597 -0.1251 -0.0054 -0.0476
29409W        W44878  17.832   8.053   5.563  0.3499 -0.0544  0.0896
29410W        W44879  15.412   1.813   1.224 -0.1730 -0.1897  0.1673
29411W        W44880  10.044  12.751   1.084  0.2258  0.1099  0.2284
29412W        W44881   8.063  17.308  10.707 -0.1692  0.0679 -0.1356
29413W        W44882  17.902   7.935  13.388 -0.0948 -0.1101  0.0045
29414W        W44883  16.503   0.015  11.775  0.2774 -0.0316  0.0525
29415W        W44884   6.311   5.217   3.699 -0.3328  0.3412  0.0254
29416W        W44885  13.563  10.290  13.090 -0.1951  0.0065 -0.2709
29417W        W44886  17.361  16.791   0.109 -0.2803 -0.0809  0.0382
29418W        W44887  10.160   7.014  12.694  0.1069 -0.1907 -0.3343
29419W        W44888  16.607   0.513  14.586 -0.0738  0.1806  0.0100
29420W        W44889   4.581   2.265   4.722  0.0942 -0.1854  0.0228
29421W        W44890  11.373   3.893   4.625  0.2965  0.4869  0.1652
29422W        W44891  18.654  13.373   2.432 -0.0210  0.0807  0.0916
29423W        W44892   8.788   4.530   0.241 -0.3365 -0.0923  0.1888
29424W        W44893  16.380  17.364   2.449  0.0138  0.2138  0.0998
29425W        W44894   6.686   5.423   1.398  0.1748 -0.3388  0.0374
29426W        W44895   3.943   9.564  12.382 -0.4097 -0.1243  0.1017
29427W        W44896  11.253   9.041   4.772 -0.0535 -0.0633 -0.0248
29428W        W44897  15.520   7.766  15.348 -0.0912  0.1152 -0.0468
29429W        W44898   7.580  16.516  15.587 -0.0750 -0.1283 -0.1107
29430W        W44899   3.355   1.893   1.752  0.0418  0.0704 -0.0419
29431W        W44900   1.705   4.755  13.323 -0.0102  0.0669 -0.1373
29432W        W44901  16.215  12.740  14.472 -0.0033 -0.0311 -0.3157
29433W        W44902  10.306   6.261   3.659  0.1931 -0.1351  0.4210
29434W        W44903   0.828   6.172   2.744 -0.0615 -0.1170 -0.1084
29435W        W44904   5.895  11.918  13.840 -0.2003  0.0834  0.0795
29436W        W44905   2.869  12.167   1.572  0.0498 -0.2922  0.0550
29437W        W44906  17.059  18.538   2.291 -0.2302 -0.0306  0.0299
29438W        W44907   0.911   8.939   0.237  0.0994 -0.1620  0.2205
29439W        W44908  18.024   4.551   0.202 -0.1471  0.1640  0.1317
29440W        W44909  18.403   0.592  13.033  0.0813 -0.0152  0.2357
29441W        W44910   4.910  17.751  12.108  0.0841 -0.5303  0.1021
29442W        W44911   6.958   9.509   2.321 -0.0321 -0.4142  0.1064
29443W        W44912   2.024   0.124   3.553  0.4754 -0.0200  0.3945
29444W        W44913  10.613   2.828   1.199  0.2097  0.0259  0.1998
29445W        W44914   3.212  11.803  15.586 -0.1647 -0.0026 -0.0291
29446W        W44915   8.274  13.904   0.089  0.3398  0.3017  0.2790
29447W        W44916   7.526  15.645   0.832  0.1320 -0.0955 -0.2632
29448W        W44917  17.616   9.333  13.883 -0.0620 -0.5122 -0.1217
29449W        W44918  13.056  11.912   1.570  0.0090 -0.2295  0.0465
29450W        W44919  11.792  12.168  12.155 -0.0299 -0.0737 -0.2591
29451W        W44920  10.760   0.905   2.459 -0.0480  0.1588 -0.1481
29452W        W44921  16.025  16.445   5.101 -0.0920 -0.0291 -0.0193
29453W        W44922   6.339  10.858   1.795 -0.1411 -0.0008 -0.0492
29454W        W44923   8.393  14.640   4.219  0.0213 -0.2641  0.1039
29455W        W44924   0.080   7.531  11.453 -0.2359  0.0501  0.3350
29456W        W44925   2.157  12.212   3.266 -0.0052  0.1034 -0.1389
29457W        W44926  11.507   1.057   3.302 -0.0180  0.0346 -0.0941
29458W        W44927  11.417  11.313  12.601 -0.1155  0.0706  0.2946
29459W        W44928  12.457  14.504  15.200 -0.0144  0.3059  0.2453
29460W        W44929  14.501  10.498   2.973 -0.2316 -0.1979  0.2631
29461W        W44930   6.615   6.265  12.353  0.3635  0.1106  0.0594
29462W        W44931  10.693  11.394  13.020  0.0237  0.0395  0.2300
29463W        W44932  16.841   9.758   1.056 -0.1259  0.3020  0.1407
29464W        W44933  10.639   4.900   0.492  0.1571  0.3604 -0.0848
29465W        W44934   9.237   8.235   1.799 -0.2996 -0.3449  0.0289
29466W        W44935  13.121  10.405   1.106  0.0365  0.2844  0.4109
29467W        W44936  16.355   0.243   3.713 -0.0191 -0.0715 -0.1218
29468W        W44937   7.314   1.526   4.069 -0.2247  0.1532 -0.0902
29469W        W44938   5.850  10.813   1.792 -0.0287 -0.3919  0.2277
29470W        W44939   1.576  15.541   3.763  0.1335  0.0140 -0.3849
29471W        W44940  13.692   2.990   4.099 -0.1000 -0.1982  0.0932
29472W        W44941   7.949  15.658   0.431  0.1330  0.0676  0.0408
29473W        W44942   1.672   1.681  10.916  0.3821 -0.2565  0.0326
29474W        W44943   0.904   4.545   5.263 -0.0940 -0.2866 -0.0883
29475W        W44944   1.086   0.115   3.314  0.1404  0.1294 -0.0504
29476W        W44945   9.967  15.810   2.607 -0.1422 -0.1978 -0.2326
29477W        W44946   6.522   2.986  15.461  0.0546  0.1100  0.0854
29478W        W44947  13.938   7.323   1.385 -0.0236  0.1074  0.2580
29479W        W44948  12.507  10.629  10.681  0.2035 -0.2149  0.1008
29480W        W44949   6.987   9.763  12.151  0.0491  0.2650  0.0689
29481W        W44950   9.589  15.900  12.554  0.1792  0.3263 -0.0091
29482W        W44951   3.216  12.658   3.640 -0.0409 -0.0769 -0.3033
29483W        W44952   3.869   8.437   2.812 -0.0486  0.0802 -0.0476
29484W        W44953   5.791   3.550  10.468 -0.1106 -0.1442  0.1307
29485W        W44954  15.130   0.342  13.176 -0.0807  0.1401 -0.1813
29486W        W44955  10.927  13.518  14.251  0.2091  0.0865 -0.2106
29487W        W44956   7.626   3.360  11.731 -0.1535 -0.0138 -0.3394
29488W        W44957  17.175  14.993  11.100 -0.0593  0.1047  0.0413
29489W        W44958  15.517  12.519  14.815  0.1008 -0.2762 -0.1590
29490W        W44959  11.589  14.237  11.729  0.2340  0.0060 -0.0512
29491W        W44960  11.131  15.403   4.376  0.2195  0.3162  0.0889
29492W        W44961   9.937   7.660  14.267  0.1150 -0.0840 -0.0541
29493W        W44962  12.698  13.339   0.139  0.1311 -0.1125  0.1302
29494W        W44963  11.521  16.984   0.192 -0.1578  0.1944  0.0899
29495W        W44964   2.986  14.167  11.619 -0.2037 -0.1672  0.0164
29496W        W44965   8.964   2.423   1.268  0.0753 -0.0328 -0.0144
29497W        W44966  14.386  15.172  15.610  0.3118 -0.1191 -0.0804
29498W        W44967  17.404  10.386  10.651  0.0726 -0.1831  0.0331
29499W        W44968  10.026   1.070   2.141  0.0024  0.1275  0.1474
29500W        W44969   0.473   9.298   5.638 -0.0651  0.4776 -0.1234
29501W        W44970  10.423  15.371   2.424 -0.4558  0.3472 -0.0095
29502W        W44971   5.155   4.944  11.378  0.0108  0.4556  0.2361
29503W        W44972  15.120  13.426   2.003 -0.0800 -0.1185 -0.3376
29504W        W44973  18.572  10.718   1.540 -0.2059 -0.0910 -0.0072
29505W        W44974  15.961   7.413  13.010 -0.2861  0.1941 -0.4166
29506W        W44975  12.010   0.517  12.073  0.3127  0.0859  0.2648
29507W        W44976  13.610  10.683   2.428 -0.0590  0.2238  0.3329
29508W        W44977  12.144  17.937  13.947 -0.0277  0.0554  0.0407
29509W        W44978   8.135   5.241   3.260 -0.1062  0.0878  0.1060
29510W        W44979  14.437  12.260  14.186  0.0743  0.1138 -0.1669
29511W        W44980  18.011   7.664   5.793  0.1908  0.2135 -0.2047
29512W        W44981   1.285  14.914  14.422 -0.2680  0.1082 -0.1353
29513W        W44982  10.070   7.725   3.687 -0.0147  0.1713 -0.2527
29514W        W44983   7.586   3.349  14.992 -0.1234  0.2277  0.0111
29515W        W44984   0.642  13.441  11.242 -0.1689 -0.5138  0.0674
29516W        W44985  16.977   4.979  12.644 -0.0720  0.1084 -0.1127
29517W        W44986  18.749   1.971   5.254 -0.1363  0.0135  0.0199
29518W        W44987   3.507  13.388  13.923  0.1439 -0.0566 -0.2041
29519W        W44988  12.575  17.008  14.915  0.1441 -0.4614  0.2783
29520W        W44989  18.515  12.878   2.703 -0.3166  0.0802 -0.1539
29521W        W44990  15.300   1.888  13.955  0.2301 -0.2243  0.0756
29522W        W44991   9.666  16.328  13.324  0.1244 -0.1043 -0.2357
29523W        W44992  14.965  14.225   0.643 -0.2672  0.1785 -0.1105
29524W        W44993   1.388  11.437  11.767  0.4725  0.0559  0.2971
29525W        W44994   9.121   5.989   0.027  0.2933  0.0087 -0.0257
29526W        W44995  15.902  14.590  14.706  0.0594 -0.1942  0.0619
29527W        W44996  11.395  13.710  14.302 -0.0839 -0.0694  0.1621
29528W        W44997   5.847  17.105  14.869 -0.0901  0.2174  0.1303
29529W        W44998   2.792   3.816  11.384 -0.1262 -0.0240  0.0948
29530W        W44999   8.317   6.357   0.155 -0.1515 -0.1028 -0.0448
29531W        W45000  13.003  10.242   0.001  0.2280 -0.0705 -0.0097
29532W        W45001  16.465  13.189  13.671 -0.1532 -0.0525  0.0252
29533W        W45002  16.820  10.696   4.897 -0.0298 -0.3202 -0.1901
29534W        W45003  16.012   0.147  15.049 -0.1720  0.1167 -0.0533
29535W        W45004  15.424   9.894  15.608 -0.0346 -0.0663 -0.1249
29536W        W45005  12.328   4.607   2.462 -0.0472  0.0029 -0.0976
29537W        W45006  16.130   9.530   2.185  0.2269 -0.0402 -0.1175
29538W        W45007  10.384   0.213   2.922  0.2027  0.2582  0.1111
29539W        W45008  14.504  13.154   4.139 -0.0497  0.2519  0.0597
29540W        W45009  11.740  15.734  14.839  0.0216 -0.2354 -0.1006
29541W        W45010  16.015  15.124  13.628  0.2564  0.0711 -0.5478
29542W        W45011  14.977  18.433   3.922  0.3549 -0.0017 -0.3079
29543W        W45012   5.470  13.497   5.694  0.0209 -0.0755  0.0514
29544W        W45013   3.589   1.958  14.150  0.0348  0.1144 -0.0266
29545W        W45014   2.591   0.700  10.978  0.1093 -0.1454  0.4820
29546W        W45015   1.065  13.135  14.452 -0.0037  0.2714  0.1281
29547W        W45016  10.947  15.450   2.029  0.0810 -0.1081  0.1537
29548W        W45017   9.996  17.079  14.446 -0.0088  0.0327  0.0574
29549W        W45018  12.419   4.974   0.774  0.1774  0.0384 -0.3170
29550W        W45019  14.099   7.079  15.041  0.1596 -0.1749 -0.2228
29551W        W45020  16.783   3.058  13.589 -0.0733  0.2918  0.2678
29552W        W45021  11.129   7.590  10.765  0.2070  0.2227  0.4811
29553W        W45022   6.887   0.976  10.314 -0.0588  0.0229  0.0611
29554W        W45023  15.549  17.592   0.302 -0.1106 -0.1487 -0.0407
29555W        W45024   8.575   8.593   2.972 -0.1840  0.0433 -0.1097
29556W        W45025   3.357   4.044   3.351 -0.0100 -0.0355  0.0322
29557W        W45026   5.252   0.487   1.613  0.2869  0.1161  0.2724
29558W        W45027   8.659   7.115   1.249  0.2976  0.2564 -0.0838
29559W        W45028  11.420  14.224   3.217  0.3146  0.0923 -0.0379
29560W        W45029   2.199   9.593   2.095  0.0872 -0.0217 -0.1940
29561W        W45030   6.567   9.286  14.532  0.3550  0.1491  0.0024
29562W        W45031   0.563   3.380   3.692  0.3509 -0.1376 -0.2810
29563W        W45032  16.559   6.485   0.361  0.2646 -0.1761 -0.1333
29564W        W45033   2.337  17.944  10.593 -0.1265  0.2428 -0.2397
29565W        W45034  18.480  10.668   4.200 -0.1304  0.0764 -0.2525
29566W        W45035   8.087   3.366   4.478  0.4256 -0.3551 -0.2475
29567W        W45036  17.347   9.737  12.938  0.2318  0.0963  0.0177
29568W        W45037  11.089  13.579   0.111 -0.2476  0.3564  0.0772
29569W        W45038   8.919   1.266  12.448 -0.2468  0.0607  0.4147
29570W        W45039  17.735   3.704  14.191 -0.0625  0.0340 -0.1500
29571W        W45040  15.087  10.953  15.511  0.2238  0.1155  0.1771
29572W        W45041  14.489  14.427  11.833  0.2397  0.0300 -0.0738
29573W        W45042  12.578  11.447   0.403 -0.4032  0.0285  0.0113
29574W        W45043  14.119  14.778  13.898 -0.4254 -0.3728 -0.0730
29575W        W45044  17.419  11.076   3.503  0.0637 -0.1812 -0.0753
29576W        W45045  13.879   7.982  13.530 -0.1501  0.0372  0.1726
29577W        W45046   7.388   6.093  13.806  0.0166  0.1321 -0.1386
29578W        W45047  12.259   5.912   3.179  0.0146  0.0705 -0.3527
29579W        W45048  13.123   8.377  12.878  0.1275  0.2139 -0.2319
29580W        W45049  10.651   6.643   4.172  0.1275  0.0958 -0.0831
29581W        W45050  11.284  10.925   2.415  0.2070  0.0192 -0.1175
29582W        W45051   5.071   0.137   2.954 -0.0539 -0.0530  0.2679
29583W        W45052   4.955   3.627  14.223 -0.0458 -0.1089  0.0668
29584W        W45053  14.461   4.599   1.098  0.1365  0.0225 -0.0985
29585W        W45054   8.410   6.586  12.058 -0.3657 -0.2052  0.0736
29586W        W45055   9.624  17.169  14.112 -0.0161  0.3444 -0.2422
29587W        W45056  17.376  16.737   0.593 -0.0419 -0.0449  0.0628
29588W        W45057   2.602  18.275   1.291 -0.3308  0.0451  0.1670
29589W        W45058   0.182  17.246   1.282 -0.0796  0.2087  0.3266
29590W        W45059  15.378   7.164   1.687  0.2467  0.0270 -0.0463
29591W        W45060   5.711  12.869  13.008  0.1404 -0.3945 -0.5680
29592W        W45061  11.714  16.791  15.471 -0.2282 -0.0719  0.0380
29593W        W45062   3.471   0.281  14.789 -0.1550  0.1273 -0.1406
29594W        W45063  10.207   9.837  14.074  0.2147 -0.0822 -0.0801
29595W        W45064  14.233  15.051  14.304 -0.1858  0.0183 -0.1467
29596W        W45065   4.031   2.851  13.240 -0.1554 -0.1440  0.2319
29597W        W45066   9.147   3.837   1.508 -0.0595  0.5757 -0.0076
29598W        W45067   1.390   4.756  10.015 -0.0261 -0.1320 -0.0345
29599W        W45068   0.083  10.385  15.625 -0.2315 -0.2500  0.0563
29600W        W45069  11.331  11.169   3.241 -0.0201 -0.0496 -0.0492
29601W        W45070  14.297   6.089   2.160 -0.0973 -0.1287 -0.0936
29602W        W45071  18.460  14.858   3.570  0.1368 -0.0606 -0.0671
29603W        W45072   3.624  13.525  15.364  0.0238  0.2209  0.1428
29604W        W45073  18.593  18.761  15.519 -0.3262 -0.1867 -0.3565
29605W        W45074   1.588   7.212   2.410 -0.0183 -0.3447  0.1326
29606W        W45075  12.107  13.324   3.280 -0.2308 -0.1286  0.2432
29607W        W45076   9.697   2.763  11.402 -0.0724  0.0887  0.0233
29608W        W45077   2.216   8.495   2.692  0.2194 -0.1013  0.0432
29609W        W45078   2.148  15.893  13.636 -0.0416  0.1223 -0.2562
29610W        W45079   0.050   4.991   3.776 -0.0136 -0.0887 -0.6025
29611W        W45080   7.602  15.920   2.413 -0.3965  0.0389  0.0931
29612W        W45081   3.058   4.556  11.623 -0.1419  0.0271  0.0925
29613W        W45082  17.822   6.424  13.205  0.2192  0.1290  0.1706
29614W        W45083  17.611  10.554   1.434 -0.0891  0.1906  0.0407
29615W        W45084  15.921   4.103  14.360 -0.1573 -0.0483 -0.1508
29616W        W45085   6.666  18.591   3.141  0.0769  0.0851  0.0967
29617W        W45086  17.873  14.709   2.477  0.0748 -0.2358 -0.3762
29618W        W45087   7.812   0.217   2.784  0.1368 -0.1503  0.1457
29619W        W45088  11.830  10.293  15.588  0.1671  0.2156 -0.2276
29620W        W45089  10.263  16.251  11.764  0.1472  0.1824 -0.1882
29621W        W45090  14.579  13.447  12.383  0.0669  0.2199  0.1293
29622W        W45091  16.668  13.145   4.529  0.0575  0.0256  0.1048
29623W        W45092  15.825   8.850  11.840 -0.0427 -0.0429  0.2842
29624W        W45093   2.475  14.657  12.154  0.1589  0.0365  0.0248
29625W        W45094  14.138  14.254  15.476 -0.1797  0.1072  0.1890
29626W        W45095  13.323  10.112   4.064 -0.0241  0.1467  0.0472
29627W        W45096   9.262  10.113   3.913  0.1252  0.1576 -0.2156
29628W        W45097   2.113   3.507  13.101  0.1350 -0.2256  0.2467
29629W        W45098   6.145   0.910  14.248  0.0194 -0.0356 -0.3901
29630W        W45099   3.147  10.905   3.204  0.0095  0.1178 -0.0444
29631W        W45100  16.307  14.050  12.554 -0.0277  0.1586 -0.0565
29632W        W45101   3.847  17.201   4.799  0.0434  0.1122  0.1132
29633W        W45102  14.291   6.596  13.666  0.1243  0.1698  0.0304
29634W        W45103  13.899  15.445   1.531  0.0194 -0.1647  0.1748
29635W        W45104   0.468  12.298   4.739 -0.1645  0.1373 -0.1315
29636W        W45105   4.633   3.572   2.408 -0.1151 -0.0826 -0.3730
29637W        W45106  11.081  15.223   4.988 -0.0614 -0.0544  0.2381
29638W        W45107   2.511   0.380  14.485  0.2004  0.0509 -0.1641
29639W        W45108   7.189   4.344   4.554 -0.2975  0.1405 -0.2131
29640W        W45109   9.684   3.541  15.572  0.3580  0.1006 -0.2752
29641W        W45110  15.147   4.953   3.326 -0.0504  0.0333 -0.0953
29642W        W45111  16.213   0.080  13.443 -0.0177 -0.1733  0.1946
29643W        W45112   6.198   2.679  12.756  0.3086  0.0257  0.3613
29644W        W45113   1.235  12.670   3.972  0.1250 -0.1915  0.0005
29645W        W45114  13.112   9.766   3.285 -0.0766  0.0634 -0.0316
29646W        W45115  10.550  10.846  13.948 -0.2144  0.0527 -0.4830
29647W        W45116  10.968  13.430  13.378 -0.0623  0.2793  0.0616
29648W        W45117  14.320   5.762   1.570  0.0360 -0.1142 -0.1907
29649W        W45118  14.049   7.889  11.466  0.1044  0.1191 -0.1953
29650W        W45119  12.604   0.398   2.394  0.0865  0.0577  0.2510
29651W        W45120   9.268   5.157  12.919 -0.1605  0.1417  0.3082
29652W        W45121  10.892  12.956  11.907  0.2454  0.1905 -0.0504
29653W        W45122   7.482   8.865  10.053 -0.1974  0.0616 -0.1918
29654W        W45123  13.781   9.142   6.071 -0.0405 -0.0987 -0.2225
29655W        W45124  13.016   9.696  15.294  0.2733 -0.0111  0.0083
29656W        W45125  15.192  16.862  13.078  0.0753  0.4352 -0.1433
29657W        W45126  17.457   4.812   5.032 -0.0813 -0.0801  0.1624
29658W        W45127   6.882   8.510   1.673  0.3373  0.3079  0.1836
29659W        W45128   4.612   3.216   2.886 -0.0772 -0.0255  0.1301
29660W        W45129   2.272  10.925  11.203 -0.1755 -0.0944 -0.0585
29661W        W45130  16.428  14.496  11.200  0.2843 -0.0949 -0.2691
29662W        W45131   6.773  14.924   0.375 -0.0056  0.0385 -0.1039
29663W        W45132  14.052   5.100  11.167  0.0896  0.1658  0.0832
29664W        W45133  16.763  14.086  11.276  0.0700 -0.1727  0.0275
29665W        W45134   3.423   3.718  11.514 -0.1575 -0.0566 -0.2086
29666W        W45135  13.761   3.418   3.890 -0.1590 -0.2943  0.0742
29667W        W45136  17.809   8.257   0.035 -0.0689  0.0950  0.0225
29668W        W45137   6.943   9.111  14.797  0.0428 -0.2148  0.1905
29669W        W45138   4.618  10.127  14.652  0.2308  0.6798  0.3184
29670W        W45139  14.373   6.454  14.235 -0.1045  0.2035  0.3346
29671W        W45140  16.517   2.168  11.028  0.3089 -0.2264 -0.0224
29672W        W45141  12.564  16.002   1.603  0.0966 -0.2518 -0.2390
29673W        W45142   1.489  15.887   3.318  0.2522 -0.0160  0.0880
29674W        W45143  11.140   5.497   0.161  0.0860 -0.0451  0.1787
29675W        W45144  13.035  13.713   5.376  0.1896  0.1535  0.0209
29676W        W45145   6.509  14.009  14.804 -0.1032 -0.2771  0.1063
29677W        W45146  16.470   9.113  13.451  0.0788  0.1223  0.0454
29678W        W45147  12.340   6.056  14.202  0.0099 -0.0007  0.2917
29679W        W45148   8.474  12.165  15.537 -0.3823 -0.1550 -0.1568
29680W        W45149   1.604  10.076  11.401 -0.1719  0.0875  0.0264
29681W        W45150  17.713   2.561  14.000  0.0848 -0.0987  0.0575
29682W        W45151   6.991  18.553   5.253  0.0799  0.0191  0.0265
29683W        W45152  16.181   7.401  12.484  0.1015 -0.2387  0.1200
29684W        W45153  11.929  11.964   4.900 -0.2708  0.1354 -0.1733
29685W        W45154  11.673   1.143  12.622 -0.1012  0.1368 -0.0228
29686W        W45155   2.121  12.185   4.764 -0.2969  0.0148  0.1056
29687W        W45156   4.894   1.889  11.478 -0.0232  0.1464  0.1714
29688W        W45157   2.469   4.831  11.508  0.2321  0.0756 -0.0796
29689W        W45158  16.614   8.928   0.818  0.0255 -0.2774 -0.2101
29690W        W45159  17.782  13.843  12.551 -0.1540 -0.1128  0.0473
29691W        W45160  12.668  18.536  11.213  0.1380  0.0741  0.1688
29692W        W45161   0.020  17.107   0.763  0.1282  0.1156 -0.4919
29693W        W45162   8.122   7.842   2.345 -0.1571  0.1331 -0.0267
29694W        W45163  16.010  14.530   2.542 -0.0886  0.1783 -0.1672
29695W        W45164  18.280   9.095  15.179 -0.2192 -0.3016  0.2697
29696W        W45165  10.566  13.226  15.151  0.0239  0.0805 -0.1943
29697W        W45166   3.237  14.965   1.211  0.2913 -0.1438 -0.0259
29698W        W45167   1.190  12.557  11.152 -0.1163 -0.1222 -0.1777
29699W        W45168  14.182  16.428  10.747 -0.1996  0.0953 -0.1528
29700W        W45169  12.471  12.055  14.259  0.0537  0.2703  0.0145
29701W        W45170  17.600   2.772   3.335 -0.0555 -0.1073 -0.0913
29702W        W45171  15.130   2.680   3.155  0.0570 -0.0738 -0.0524
29703W        W45172   9.492  17.833   2.436 -0.1781  0.0466  0.1402
29704W        W45173   6.473  17.456   0.416 -0.2148 -0.2428 -0.0507
29705W        W45174  10.989   4.481  14.934  0.0578 -0.0113  0.1685
29706W        W45175  10.057   0.714   2.500  0.1591  0.0288 -0.0711
29707W        W45176   4.852  13.108  11.495 -0.0411  0.2656  0.0069
29708W        W45177  18.182  13.817   2.642  0.2472 -0.1534  0.0510
29709W        W45178  16.821   5.375   2.654  0.0976 -0.0366  0.2053
29710W        W45179  11.007  15.460  15.492  0.3508 -0.1262 -0.1791
29711W        W45180  17.049   7.760   2.911  0.2042  0.2452 -0.2978
29712W        W45181   5.044  14.994   0.249  0.3302  0.0294  0.0715
29713W        W45182   7.672  16.379   5.115 -0.0900 -0.1421 -0.1023
29714W        W45183  12.507  16.761  14.417 -0.0474 -0.1170 -0.0302
29715W        W45184   4.634   1.212  13.187  0.3358 -0.4198 -0.1391
29716W        W45185   7.574  16.247  15.037  0.2315 -0.0877  0.0170
29717W        W45186  16.111   0.012  10.607  0.0757 -0.0506  0.1452
29718W        W45187  13.366  11.154  14.930 -0.2153 -0.0790  0.0890
29719W        W45188   4.114   5.149  13.642  0.1739 -0.1735 -0.1719
29720W        W45189  14.417   4.671  10.064 -0.1003 -0.0269  0.1033
29721W        W45190  17.344  13.547  12.272 -0.2053  0.3106 -0.0609
29722W        W45191   5.931   0.703  15.459  0.2053 -0.2886  0.0005
29723W        W45192   8.006  15.371   3.567 -0.1963  0.1283  0.0259
29724W        W45193  13.627   7.918   5.545  0.1185 -0.1200 -0.1167
29725W        W45194   4.552   8.909  10.886 -0.2326 -0.0918 -0.0007
29726W        W45195   8.085  11.588   3.684 -0.1855 -0.2612  0.3295
29727W        W45196   2.754  14.047   1.340  0.3797 -0.2047  0.0315
29728W        W45197   2.804   6.932   2.663  0.0084  0.1199  0.2833
29729W        W45198  13.926  16.163  12.657 -0.1663 -0.0327 -0.1479
29730W        W45199  18.119   6.440  15.285  0.1770 -0.0100 -0.1676
29731W        W45200  17.884  16.714  13.651 -0.0891 -0.2421  0.4866
29732W        W45201   7.551   0.156   4.371  0.0743  0.0816 -0.1193
29733W        W45202  18.453   1.194   1.331  0.0627  0.0853 -0.2122
29734W        W45203   5.027   1.430   4.564 -0.1222  0.0897 -0.4472
29735W        W45204   5.391   6.604   4.381 -0.1756  0.1395 -0.3579
29736W        W45205   7.648  15.200   3.996 -0.1016 -0.0528 -0.0301
29737W        W45206  12.308   3.890  12.058  0.1471 -0.2972  0.0888
29738W        W45207   7.522   7.104   9.104 -0.1021 -0.2293 -0.3286
29739W        W45208  14.852   5.834   9.622  0.0091  0.0429 -0.0723
29740W        W45209  13.289  16.021   5.579  0.0075  0.0081  0.1825
29741W        W45210   1.122   0.122  14.086  0.0244  0.1585 -0.2012
29742W        W45211  11.139   3.461   4.913 -0.2063  0.3739 -0.3448
29743W        W45212  17.504   1.137  10.472  0.2870 -0.0562  0.0457
29744W        W45213   5.616   2.655   4.400  0.2670  0.2350 -0.0143
29745W        W45214  15.349   3.191   0.920  0.2037 -0.0464  0.0003
29746W        W45215   1.614   7.555  10.898 -0.3722 -0.3840  0.2240
29747W        W45216  17.202   7.646   1.582  0.1416  0.1817 -0.0581
29748W        W45217   2.007   5.837   1.194 -0.0191  0.0460 -0.2962
29749W        W45218   4.285  10.966  10.184  0.0577  0.2728 -0.1121
29750W        W45219   3.609  14.747  11.721  0.1153  0.2813 -0.1343
29751W        W45220   5.073  17.010   3.976 -0.0790 -0.1533 -0.2062
29752W        W45221   0.991   2.348   5.175  0.3853  0.0477  0.1901
29753W        W45222   8.911  16.406   1.836  0.1695  0.0231 -0.1959
29754W        W45223  16.548  18.386   9.369 -0.0534 -0.1063 -0.0202
29755W        W45224   8.169  18.052  10.229  0.3133 -0.3047  0.1409
29756W        W45225  12.675  14.774   2.035  0.3566 -0.1130  0.2827
29757W        W45226   2.228  18.708   1.620  0.1625  0.0455  0.1273
29758W        W45227  14.754  11.118   4.343 -0.2462 -0.0583 -0.1105
29759W        W45228   2.448   2.146  10.741  0.0123  0.0479 -0.1298
29760W        W45229   4.249  10.454   5.090  0.1843  0.3764  0.3754
29761W        W45230   8.117  15.453  15.117 -0.1027 -0.0306  0.0816
29762W        W45231  15.656   9.674  11.825 -0.0946 -0.1061  0.2067
29763W        W45232   2.868  11.826  10.877  0.3040  0.0406  0.1870
29764W        W45233   3.518   7.464   9.781 -0.1755  0.1110  0.0969
29765W        W45234   6.874  17.922  10.617  0.1352 -0.3076 -0.0644
29766W        W45235   4.732  15.303  13.178 -0.0236  0.1235  0.2181
29767W        W45236  10.609   1.945   2.514  0.3230  0.0958  0.1881
29768W        W45237   7.496  11.241  11.112  0.0285  0.1812 -0.3295
29769W        W45238  17.759   2.069   5.809 -0.0464  0.2542  0.1251
29770W        W45239   4.369   6.027  12.327 -0.0328  0.1633  0.1612
29771W        W45240   4.678  18.526  14.850 -0.0138 -0.0723 -0.2661
29772W        W45241  14.266   2.484   2.758 -0.0293 -0.0024  0.1964
29773W        W45242   5.664  12.002  11.287 -0.2329  0.0204 -0.0069
29774W        W45243  10.803   7.020   3.195  0.0720 -0.0446 -0.1629
29775W        W45244  13.905  13.902   1.971 -0.4000 -0.2862 -0.2284
29776W        W45245   7.039  14.279   2.572 -0.2375  0.2125 -0.0079
29777W        W45246  14.329  11.098  13.955  0.1211  0.2180 -0.0720
29778W        W45247  14.648   3.695   0.710  0.0629 -0.2138  0.0971
29779W        W45248  13.749  12.608  13.071 -0.2809 -0.0930 -0.3872
29780W        W45249   5.780  13.987   3.462 -0.0033 -0.1064 -0.1702
29781W        W45250   3.813  10.115  15.176 -0.0888  0.2820 -0.0815
29782W        W45251  13.794  15.361   5.318 -0.1661  0.5203 -0.0982
29783W        W45252   1.369  16.416  15.283  0.1539  0.3202 -0.0341
29784W        W45253  10.674  14.044  11.798  0.0236 -0.4124  0.0711
29785W        W45254   2.185   3.310  12.324  0.0034 -0.3734  0.1070
29786W        W45255  11.940   1.063  12.203 -0.1166 -0.0513  0.1320
29787W        W45256   9.631   3.166   2.668  0.0014  0.2490  0.1405
29788W        W45257  10.291  17.657   0.731 -0.0275 -0.0778 -0.2857
29789W        W45258   9.968  18.580   2.133  0.0030 -0.4701  0.0807
29790W        W45259  17.140   0.727   1.761  0.2773 -0.4679  0.0881
29791W        W45260   6.110   2.753   3.419  0.0352 -0.0219 -0.0199
29792W        W45261   9.479   6.271   2.448  0.1297  0.1370  0.0663
29793W        W45262   2.810   1.640  10.755  0.0179  0.0012  0.3965
29794W        W45263  15.002   4.452   2.157  0.2122  0.1600 -0.0085
29795W        W45264  16.968   9.774   1.512 -0.0118 -0.1555  0.2083
29796W        W45265   7.370  13.433  13.766  0.0991  0.0665  0.1640
29797W        W45266   8.868   4.330  11.489  0.0067 -0.2184 -0.0197
29798W        W45267   2.238   6.019  11.315 -0.2631  0.0343  0.1591
29799W        W45268  18.684  11.664   2.563 -0.0683  0.0647 -0.1468
29800W        W45269  16.109  17.691  14.688 -0.0630  0.2162 -0.0768
29801W        W45270   5.537  18.458   0.170 -0.1052  0.1251 -0.0692
29802W        W45271   4.054  10.399  11.050  0.1967 -0.1449 -0.0185
29803W        W45272  10.378  12.294   0.090  0.3224 -0.0670  0.2646
29804W        W45273   9.433   1.230  12.478  0.1276  0.3290  0.0552
29805W        W45274  13.232  13.331   3.731  0.1861  0.2934 -0.1304
29806W        W45275   5.314   1.490  14.393 -0.1372 -0.0157  0.0821
29807W        W45276   6.052  17.411  11.729  0.1203  0.3550 -0.1152
29808W        W45277  16.325   3.236   1.353 -0.1109  0.2495  0.1058
29809W        W45278   2.123   0.058   2.514  0.1988 -0.0892 -0.1326
29810W        W45279   4.263  10.485  13.349 -0.1683 -0.1764  0.2610
29811W        W45280  15.083  17.869  15.246 -0.3024  0.1453  0.2986
29812W        W45281   3.524   8.153   4.466 -0.0080 -0.1146  0.2611
29813W        W45282   1.589  15.954  13.590 -0.0441 -0.2047 -0.2155
29814W        W45283  13.123  13.427  13.942  0.0377 -0.2007 -0.0609
29815W        W45284  17.925   0.837   0.585 -0.0530  0.3777 -0.1662
29816W        W45285  15.136   4.379   5.510 -0.0391  0.2112  0.3216
29817W        W45286  10.045  11.041  15.387  0.2449  0.0608 -0.1005
29818W        W45287   3.835   5.144  12.982 -0.2043 -0.0349  0.4622
29819W        W45288  13.850   7.024   2.947 -0.2429 -0.1633 -0.0141
29820W        W45289  18.050   8.537   5.356 -0.1987  0.0948 -0.1130
29821W        W45290   4.983   9.441  15.460 -0.2870 -0.2073 -0.1848
29822W        W45291  18.450  13.408   4.019  0.3429 -0.1764  0.0614
29823W        W45292  15.663  13.586  11.908  0.0416 -0.1174  0.1800
29824W        W45293  16.055  11.540   2.443  0.1325  0.2497 -0.0402
29825W        W45294  11.444  15.119   4.579  0.0489 -0.0886 -0.2144
29826W        W45295   8.347  12.877   1.602  0.0445  0.1096 -0.1965
29827W        W45296   3.387   2.196  13.652  0.3436 -0.1504 -0.0040
29828W        W45297  18.412   0.478  11.838  0.0545  0.2833  0.1804
29829W        W45298  18.146   0.846   1.072 -0.0110  0.1484 -0.1044
29830W        W45299  10.494  17.033   4.805 -0.0737  0.1600 -0.0159
29831W        W45300   2.370  10.803   2.772  0.0581  0.0000  0.1772
29832W        W45301  17.904   2.161  11.606 -0.0985  0.0525  0.0010
29833W        W45302  10.573   2.155  14.239 -0.1316  0.0707  0.2085
29834W        W45303  11.878   1.214  14.610  0.1399 -0.3191  0.1485
29835W        W45304  16.065   2.043  11.610  0.2763 -0.0093  0.2139
29836W        W45305   9.289  17.616  12.871  0.3100 -0.2637 -0.1567
29837W        W45306   7.825  11.223   2.500  0.0621 -0.2796 -0.0288
29838W        W45307   1.191   5.056   2.848  0.0005 -0.0540  0.1150
29839W        W45308   6.990  18.407   2.799  0.0531 -0.0235  0.3006
29840W        W45309   3.894  15.889   0.531 -0.1825 -0.0283 -0.2128
29841W        W45310  16.452   9.799  15.348  0.1479 -0.0286  0.1340
29842W        W45311  17.974   7.791   2.640  0.1727  0.2982 -0.0241
29843W        W45312  17.055  15.331   3.073  0.3823  0.2995 -0.0368
29844W        W45313  14.384   2.450  12.068 -0.0889 -0.0496  0.0914
29845W        W45314  17.240   6.569   1.672 -0.0714  0.1545  0.1783
29846W        W45315   0.333  15.550  12.242  0.3144 -0.0440 -0.0809
29847W        W45316   1.428  11.133  13.452  0.1485 -0.0109 -0.1155
29848W        W45317  17.098  18.555   2.804 -0.0003  0.2594  0.0513
29849W        W45318  13.461   7.927  12.591 -0.1080 -0.0401 -0.2707
29850W        W45319  15.667   6.533   4.859  0.0806  0.3252 -0.1152
29851W        W45320  15.745   9.817   1.470 -0.0568  0.0627 -0.3013
29852W        W45321   2.137   4.840   1.046  0.0154 -0.0560 -0.0536
29853W        W45322   8.679   1.950  14.813  0.3343 -0.1120  0.2302
29854W        W45323   3.387  10.964   0.597 -0.0504  0.0210 -0.1887
29855W        W45324  12.486   1.910   1.640 -0.1799 -0.2753 -0.0459
29856W        W45325  16.230   2.349   0.326 -0.5759  0.0581 -0.1726
29857W        W45326  10.901   8.286   1.560 -0.1240  0.0230 -0.0118
29858W        W45327   4.880  10.712   0.657 -0.3251  0.1322  0.2197
29859W        W45328  12.274  15.851   2.030 -0.0056  0.1284  0.2687
29860W        W45329  17.145   1.504   3.383 -0.1218 -0.0481  0.3446
29861W        W45330  15.823   7.046   0.991  0.0848  0.0313 -0.1277
29862W        W45331   1.947   8.325  14.335  0.2052  0.2683 -0.3266
29863W        W45332  16.874   5.541   3.221  0.0320 -0.1297  0.4016
29864W        W45333  12.397   2.381  11.081  0.3023  0.0858 -0.1980
29865W        W45334   0.548  10.311  15.204 -0.0102 -0.0773 -0.2655
29866W        W45335  18.615  18.658   2.920  0.0636  0.0429 -0.0823
29867W        W45336  11.612  15.184  15.208  0.0930  0.0499 -0.0192
29868W        W45337   0.698  14.382  15.372  0.0787 -0.1112 -0.0909
29869W        W45338  18.132   3.988  15.131 -0.0373 -0.2265 -0.0675
29870W        W45339   5.137   9.314  14.527  0.2351 -0.0251  0.1154
29871W        W45340  14.496   5.099   2.767 -0.1300 -0.0640 -0.1866
29872W        W45341   8.219  13.382  15.607 -0.2820 -0.0798 -0.2638
29873W        W45342   5.409  11.849  14.567  0.1113  0.3332 -0.3169
29874W        W45343  11.245  18.589  14.104 -0.1599  0.4572 -0.3327
29875W        W45344   9.869   9.344  13.934 -0.1201  0.1900 -0.0685
29876W        W45345   9.937   7.853  13.301 -0.0158  0.1659  0.2309
29877W        W45346   0.506   7.670   0.351  0.1980  0.2604 -0.0893
29878W        W45347  16.701   2.882  12.619 -0.2131  0.2662 -0.0078
29879W        W45348   8.323  18.417  13.905 -0.0454 -0.0339  0.1166
29880W        W45349  18.150   0.061   3.291 -0.2252 -0.0129 -0.1003
29881W        W45350   2.435   0.691  12.790  0.0439 -0.0205 -0.0217
29882W        W45351  16.946   6.729  13.147 -0.3182  0.0458 -0.2437
29883W        W45352   0.922  11.044   0.065  0.2669  0.1745  0.2662
29884W        W45353  10.138  17.020   4.316 -0.1344 -0.0776  0.2395
29885W        W45354   8.548  15.821   1.964  0.2230  0.1619  0.3996
29886W        W45355   1.830   8.256  13.812  0.0527  0.1630 -0.1926
29887W        W45356   4.659   2.202  15.129 -0.0688  0.0482  0.4061
29888W        W45357  15.180   1.061  14.266  0.1176 -0.1437 -0.3170
29889W        W45358  12.214  12.548  15.213 -0.1856  0.2037 -0.0379
29890W        W45359  16.406   7.632  14.192 -0.0713 -0.0380 -0.1281
29891W        W45360  18.650   6.683   4.973  0.2081  0.0003 -0.1711
29892W        W45361   9.702   4.617   3.641  0.0194 -0.2119 -0.0532
29893W        W45362   8.048   9.804  15.436 -0.1779  0.3191 -0.0409
29894W        W45363  11.343   4.907   4.078  0.3388  0.0655  0.2216
29895W        W45364  18.195   9.887  10.620 -0.0819 -0.1710  0.1065
29896W        W45365  14.436  14.634   9.864 -0.2152  0.0193  0.0696
29897W        W45366   2.142   0.698   0.953 -0.1188  0.1848 -0.1213
29898W        W45367  13.970   7.501  13.637 -0.2093 -0.1441 -0.0636
29899W        W45368   1.374   7.593  11.745  0.1629 -0.1685 -0.0572
29900W        W45369  17.906  16.622  11.191  0.2218  0.2818  0.1320
29901W        W45370   3.817  12.917  12.713  0.0285  0.1044 -0.0646
29902W        W45371   0.790  13.608  13.165 -0.2257  0.1037 -0.1501
29903W        W45372  18.029   7.463  14.663 -0.0596  0.0541 -0.0126
29904W        W45373  10.495  16.301   4.956 -0.2288 -0.0220 -0.3609
29905W        W45374  17.669   2.884   1.244  0.0226 -0.4588 -0.4438
29906W        W45375   6.369  15.957   3.382  0.0578 -0.0045 -0.0264
29907W        W45376   1.234  12.009   0.417  0.3221 -0.1606 -0.0351
29908W        W45377   1.822   9.228   4.026  0.0486  0.2064  0.0095
29909W        W45378   9.946  17.427   3.844 -0.0807 -0.1648 -0.4145
29910W        W45379   2.168  11.867   4.335 -0.2956 -0.3880 -0.2747
29911W        W45380   1.601  12.710   2.780 -0.0911 -0.0004 -0.0036
29912W        W45381   3.139   0.486   4.851 -0.0082 -0.0168  0.2636
29913W        W45382   0.643   4.866   5.592  0.2419 -0.1799 -0.3457
29914W        W45383  10.078  15.731  11.640 -0.1945 -0.0331 -0.2189
29915W        W45384  15.300   9.863   1.804  0.0042 -0.0669 -0.0822
29916W        W45385  12.621  18.379   4.116  0.0638 -0.1322 -0.0289
29917W        W45386   5.800   8.991   1.347 -0.0749  0.2259  0.2280
29918W        W45387  17.931   2.036   4.404 -0.1030 -0.1062 -0.0064
29919W        W45388   3.626  14.596  12.679  0.0683 -0.1078 -0.1356
29920W        W45389  13.327  17.782   2.892 -0.1771 -0.0037  0.3694
29921W        W45390  17.295   4.356   0.180 -0.1999  0.2296  0.2321
29922W        W45391  16.419   5.658  12.473  0.0713 -0.3656 -0.3074
29923W        W45392   0.854  17.266  10.457  0.0871 -0.0213 -0.0913
29924W        W45393   6.420  14.011  11.115  0.0198  0.0263 -0.1031
29925W        W45394   7.759   0.028  12.137 -0.0940  0.2522 -0.1644
29926W        W45395  14.850   8.394  12.402  0.0768  0.1063 -0.3800
29927W        W45396  12.807   7.115  11.223 -0.0561  0.0068  0.3429
29928W        W45397  15.709   8.801   4.859  0.1139  0.5448  0.1482
29929W        W45398   2.998  18.633   3.617  0.5144 -0.1055  0.0470
29930W        W45399   8.530   8.613  14.834  0.0017  0.1189 -0.2441
29931W        W45400   1.464   9.485  11.264 -0.1157 -0.0657  0.1748
29932W        W45401   9.992  13.523   3.896  0.0180 -0.1131 -0.1528
29933W        W45402   4.034   5.256  10.089 -0.0568 -0.3075 -0.1131
29934W        W45403  11.055   9.793  15.349 -0.1307  0.0103 -0.0677
29935W        W45404  18.428   1.967   0.141 -0.1257  0.0949  0.1110
29936W        W45405  16.142   8.484  10.609  0.3294 -0.1785  0.0860
29937W        W45406  17.089   3.571   4.816 -0.0361  0.2895  0.0323
29938W        W45407   8.553  18.229  10.466 -0.2905 -0.1438 -0.1316
29939W        W45408  11.392  12.298   5.653 -0.0066  0.3443 -0.0137
29940W        W45409  18.514  11.728   0.195  0.0412 -0.0408 -0.0228
29941W        W45410   8.778   3.721  14.647 -0.0950 -0.1562 -0.0039
29942W        W45411  15.296  14.188  14.167 -0.5013  0.1076 -0.2836
29943W        W45412   5.980   5.146  15.127 -0.1584  0.0705 -0.2680
29944W        W45413   6.861  12.652   3.816  0.1601 -0.4718 -0.2019
29945W        W45414  18.781   8.252  11.237  0.2549  0.3065  0.2286
29946W        W45415   2.229   2.664  14.677  0.1227  0.4543 -0.1906
29947W        W45416  12.579   3.044   0.860 -0.1265 -0.2085  0.1546
29948W        W45417  18.262   8.625   0.346 -0.0689  0.0899  0.0087
29949W        W45418   5.193  18.676  13.944 -0.0792  0.0728 -0.1320
29950W        W45419  17.747  14.284  15.185  0.0865 -0.1730 -0.0750
29951W        W45420  11.157  18.687  10.901  0.2410 -0.0685  0.0596
29952W        W45421  10.008   6.153  13.166  0.1623  0.2868 -0.5321
29953W        W45422  13.164   6.733   5.622  0.3345 -0.4330 -0.1142
29954W        W45423  14.189   6.275   0.438  0.2238 -0.0765  0.0037
29955W        W45424   7.274   2.252   1.446 -0.4056 -0.2565 -0.1045
29956W        W45425  12.371  13.801   0.864  0.1365  0.1063  0.1548
29957W        W45426  18.508  11.236   3.682  0.2218 -0.1668  0.1341
29958W        W45427  13.893  12.155   3.169 -0.2732  0.0921  0.0933
29959W        W45428   1.620  14.924  12.121  0.3693 -0.0178 -0.2487
29960W        W45429  17.535  13.635   4.449 -0.3101  0.1495 -0.0594
29961W        W45430   3.235   7.230  10.901 -0.0065  0.0223 -0.0605
29962W        W45431  15.726   5.546  12.061 -0.1095 -0.1811  0.0800
29963W        W45432  18.154  15.267  12.383  0.0204 -0.1698  0.1911
29964W        W45433   7.400   4.480  12.341 -0.5073 -0.1058 -0.1046
29965W        W45434  14.427   2.000   2.381  0.0353 -0.0175 -0.1144
29966W        W45435   1.898   6.126  11.706 -0.0109 -0.1968 -0.0327
29967W        W45436  14.255  10.059  12.414  0.0477 -0.0278 -0.3020
29968W        W45437  13.472   2.146  15.508 -0.0296  0.0937 -0.0244
29969W        W45438  18.330  18.377  14.500  0.2457  0.1595  0.1443
29970W        W45439  14.587   4.020   4.968  0.1052 -0.2412  0.0583
29971W        W45440  12.052  16.703   3.847 -0.1516  0.2113  0.4678
29972W        W45441   0.952   5.950   1.738  0.0118  0.1334  0.3616
29973W        W45442  14.666   2.099   4.129 -0.1714  0.0659  0.1163
29974W        W45443  15.713   1.102  15.232  0.4332 -0.0559 -0.2797
29975W        W45444   9.815   0.686   3.847 -0.1728 -0.0411 -0.0515
29976W        W45445  15.948   8.400   4.154  0.0394 -0.0559 -0.1039
29977W        W45446   9.920   8.347   4.911  0.2584  0.4598  0.2629
29978W        W45447   6.142   9.356  14.290 -0.2397  0.3048 -0.1130
29979W        W45448   9.196   5.525   2.918  0.1173 -0.3094  0.0085
29980W        W45449   0.111  11.705  11.030 -0.0199 -0.1131  0.0234
29981W        W45450  12.096   1.453   4.212 -0.1643 -0.0115 -0.0669
29982W        W45451   4.472  12.352  14.564 -0.0653 -0.3054  0.1000
29983W        W45452   3.015   1.387   1.762  0.0015  0.0827 -0.3084
29984W        W45453   5.480  13.196   5.197  0.1238  0.2380 -0.1558
29985W        W45454   5.010   5.645  13.326 -0.1147  0.1193  0.2073
29986W        W45455  13.503  12.309  14.063  0.2155  0.0604  0.1418
29987W        W45456   5.830   8.877   3.024  0.2479 -0.3162  0.0840
29988W        W45457   7.298  10.426  15.029  0.0878 -0.0758  0.2776
29989W        W45458  16.147  13.233   2.113  0.1404 -0.1635 -0.2096
29990W        W45459  15.094   5.548  10.798 -0.2319  0.0469 -0.0503
29991W        W45460   1.128  17.908   5.280 -0.0323  0.0968 -0.2065
29992W        W45461  13.238  16.971   2.615  0.1273 -0.1058 -0.2214
29993W        W45462  13.364   3.401  12.614  0.0521  0.0224  0.0601
29994W        W45463  15.140   6.291  13.494 -0.3605  0.2058  0.2422
29995W        W45464   7.626   9.749   1.179  0.1531  0.1267  0.1301
29996W        W45465   3.228   7.957  15.633  0.5485  0.0576  0.0053
29997W        W45466   2.362   1.391   3.387  0.0406  0.1576  0.0379
29998W        W45467   8.780  12.574  11.136  0.2948  0.3236 -0.1018
29999W        W45468   9.013  15.640  12.295 -0.0623 -0.0227  0.2814
30000W        W45469   0.821  14.817   3.089  0.0866  0.2304 -0.3359
30001W        W45470  13.240   7.099  14.154 -0.0568 -0.2180 -0.0389
30002W        W45471  17.612   1.887   4.078  0.0769  0.0653  0.2570
30003W        W45472  16.805   2.064  15.563 -0.0708 -0.2402 -0.0785
30004W        W45473   2.568   6.975   1.107  0.2566 -0.2344  0.3331
30005W        W45474   7.988  13.426   2.545  0.0267  0.0809 -0.4316
30006W        W45475   3.441  15.658  14.143  0.0422 -0.1547  0.0192
30007W        W45476  18.467  16.598  13.135  0.2201  0.1811  0.2304
30008W        W45477  13.644  15.648   4.710 -0.0258  0.0011  0.0577
30009W        W45478   0.276   8.037   1.994  0.2874 -0.1091 -0.2937
30010W        W45479   1.260  14.040  13.255 -0.0977 -0.2348  0.1356
30011W        W45480   4.196  11.936   2.630  0.3362 -0.3333  0.1986
30012W        W45481   9.942   6.514  12.786  0.2650 -0.4721  0.5414
30013W        W45482  12.368  16.072   0.133  0.0991 -0.0937  0.1691
30014W        W45483   3.964   0.546   5.133 -0.3155  0.0135 -0.2138
30015W        W45484  14.076  18.189  11.590 -0.0662 -0.0036 -0.0394
30016W        W45485  10.867   8.082  13.116  0.1173  0.1141  0.0929
30017W        W45486   8.088  16.828   4.816 -0.0912  0.1388  0.1243
30018W        W45487  13.409   0.682  14.392 -0.2285 -0.4188  0.1887
30019W        W45488   3.611   0.764   5.383  0.0828  0.2278 -0.0661
30020W        W45489   5.669  12.390  13.112 -0.1067 -0.0165 -0.0562
30021W        W45490   5.574   9.205  14.216 -0.1343  0.0753  0.2676
30022W        W45491   7.196   7.666  10.953  0.2521  0.1541 -0.1609
30023W        W45492   7.033  17.414   3.637 -0.1389 -0.0408 -0.1365
30024W        W45493   4.912   0.275   0.544  0.2072  0.0678  0.0227
30025W        W45494   8.636   2.935  11.289  0.0156 -0.0668  0.4441
30026W        W45495   1.364   7.876   2.976  0.2943  0.0671  0.0237
30027W        W45496   4.498  13.051   4.916 -0.2161  0.0333  0.0193
30028W        W45497  13.022   6.467   2.933 -0.2220 -0.0099  0.0263
30029W        W45498   2.795  11.163  14.017 -0.1739 -0.0042  0.0969
30030W        W45499  15.276   8.391   0.586 -0.0902 -0.1097  0.1922
30031W        W45500  11.036   9.618   1.491  0.3048 -0.1608 -0.3575
30032W        W45501  17.888   9.426   2.976  0.0338 -0.1296  0.0396
30033W        W45502   9.512   7.923   1.021 -0.0137 -0.3924  0.0408
30034W        W45503  13.030   7.534  11.498  0.1372  0.0215  0.1543
30035W        W45504  10.178   4.502   2.917  0.1140 -0.1469 -0.1538
30036W        W45505  16.070   2.852  12.711 -0.0838 -0.0310  0.1659
30037W        W45506   6.442  17.415  13.506 -0.0829 -0.4504 -0.1908
30038W        W45507   1.863  17.264   1.321 -0.2522  0.2661 -0.0377
30039W        W45508  14.318  17.549  14.393 -0.2636  0.2515  0.0457
30040W        W45509  17.339   1.375  14.055 -0.0052 -0.0875 -0.1110
30041W        W45510   1.285  14.052   4.487 -0.2455  0.2961  0.1010
30042W        W45511  13.075   3.380  10.754 -0.0539  0.1564  0.1190
30043W        W45512  10.537   2.285   9.931 -0.2514  0.1372  0.4300
30044W        W45513  11.032   3.048   3.529  0.0890  0.1749  0.2232
30045W        W45514  13.939   6.161   2.610  0.2032 -0.0596  0.0184
30046W        W45515   4.973   1.765  15.089 -0.0595 -0.1124 -0.0170
30047W        W45516   5.776   4.428  11.069 -0.1123  0.1187 -0.2603
30048W        W45517  11.513   9.934   1.318 -0.1805 -0.1459 -0.0050
30049W        W45518   5.193  18.728  11.367 -0.0543  0.1487  0.1369
30050W        W45519   5.189  11.430  13.923 -0.2406  0.1418  0.2327
30051W        W45520  17.549   9.205   4.043  0.0083  0.0577 -0.0506
30052W        W45521  10.978   2.747  11.523  0.3284  0.0874  0.1243
30053W        W45522   5.483  11.005   5.212  0.3900 -0.1696  0.2151
30054W        W45523   8.051  18.668  14.896 -0.1899 -0.1319 -0.0378
30055W        W45524   0.410   2.834   3.483 -0.1025  0.2501 -0.1508
30056W        W45525  10.526  12.278  12.938  0.0409  0.0133 -0.1151
30057W        W45526  10.370  12.255   2.913  0.4307 -0.2054  0.2329
30058W        W45527   2.288   3.196  14.655  0.2765 -0.0621  0.2908
30059W        W45528   1.630   7.066  12.222 -0.0502 -0.0006 -0.0037
30060W        W45529  18.395   1.397  10.394 -0.0377 -0.1051  0.2070
30061W        W45530   5.823   1.713  14.366 -0.2895 -0.4041 -0.1839
30062W        W45531   2.259   9.783   5.163  0.0397 -0.3384 -0.2777
30063W        W45532  11.260  14.197  10.348  0.0152 -0.0026  0.1766
30064W        W45533  12.812   6.794  14.381 -0.1543  0.3728  0.0162
30065W        W45534   7.618   2.018   1.113 -0.0320 -0.0442  0.0084
30066W        W45535   2.165  15.561   1.464  0.1147 -0.1910  0.0200
30067W        W45536   9.044  11.848   2.432  0.0412  0.0914 -0.0663
30068W        W45537   0.680  15.946  15.181  0.1811 -0.0749 -0.0540
30069W        W45538   7.692   1.869  12.495 -0.0226 -0.0461  0.1375
30070W        W45539   1.087   6.961  12.263 -0.0583  0.0265 -0.3061
30071W        W45540   1.605  16.302   1.770 -0.3299  0.1918 -0.1003
30072W        W45541   5.306   3.864  14.006  0.0290  0.2837 -0.1428
30073W        W45542   8.600   1.009   3.463 -0.2824  0.1821 -0.0805
30074W        W45543   7.135  13.295  14.470  0.1209  0.0782 -0.0420
30075W        W45544  12.092   7.355   0.442  0.2290  0.1392 -0.1717
30076W        W45545   2.659   2.637  15.456 -0.1007  0.1149  0.3637
30077W        W45546  13.844  12.519   3.996 -0.2377 -0.0305 -0.1193
30078W        W45547   1.026  13.291   4.756  0.1533  0.2005  0.1293
30079W        W45548   1.306  18.230   0.255  0.1192 -0.0900  0.2658
30080W        W45549  12.835  17.587  12.973  0.3686  0.2893 -0.0101
30081W        W45550  17.850   6.452   0.057  0.1277 -0.2877 -0.0687
30082W        W45551  17.452   6.956  12.164 -0.0747 -0.0359 -0.0974
30083W        W45552  15.380   5.218   2.889  0.0715  0.0588 -0.0759
30084W        W45553   9.039  18.607   1.088 -0.1686 -0.2694  0.3087
30085W        W45554   6.055  11.534   2.688  0.0563  0.2856  0.0640
30086W        W45555  15.942   0.838   0.536  0.0234 -0.2424 -0.1337
30087W        W45556  13.273  18.635   1.908 -0.1728  0.0352  0.1232
30088W        W45557  17.849   2.021   4.909  0.1285  0.1598  0.0457
30089W        W45558   4.501  14.666  11.985  0.1514  0.1482  0.1177
30090W        W45559   7.447  14.127  15.339  0.1562  0.3297  0.0341
30091W        W45560   7.845  14.495   1.990  0.3306  0.0547  0.1352
30092W        W45561  18.625   8.798   2.443 -0.0222  0.2368  0.1972
30093W        W45562   1.240   6.888   0.719  0.3560 -0.0599 -0.1500
30094W        W45563   3.734  18.696  11.838 -0.0200 -0.3638 -0.2436
30095W        W45564   7.000   1.148  15.660  0.0239  0.1984 -0.0595
30096W        W45565   1.041  12.879   3.569  0.1146  0.0054 -0.0417
30097W        W45566  15.356  15.773   4.442 -0.1240  0.2066 -0.2052
30098W        W45567  11.062   2.216  15.606  0.1396  0.2579 -0.2109
30099W        W45568   1.961  13.346   2.057  0.0758 -0.4814  0.0285
30100W        W45569   7.411   5.733  11.060  0.0055 -0.0580  0.1284
30101W        W45570   9.155   0.528  11.145  0.2492  0.1573 -0.2202
30102W        W45571   5.214   2.606   2.363  0.2605 -0.1171  0.0019
30103W        W45572  12.107   4.625  11.418 -0.1126 -0.2636  0.1971
30104W        W45573  10.466   8.386   4.700  0.0015 -0.2225  0.5229
30105W        W45574   8.282  15.217   4.406 -0.0405  0.0869  0.0475
30106W        W45575  10.118  14.198   4.865  0.1028  0.3674  0.0009
30107W        W45576  12.476  16.815   5.399 -0.0391 -0.0123  0.3777
30108W        W45577  14.339  11.355   2.722 -0.2793  0.1778 -0.1166
30109W        W45578   4.911   3.028   5.105 -0.0744 -0.0476 -0.1279
30110W        W45579   1.857  10.639   5.175 -0.1454  0.3234  0.0028
30111W        W45580  15.072   1.078   0.977  0.1616  0.3371 -0.1357
30112W        W45581   0.455  10.905  10.913 -0.0464 -0.1513  0.1237
30113W        W45582   4.682   3.439  15.257  0.0212  0.1364 -0.1878
30114W        W45583  12.967  15.644  12.220  0.1626  0.3851  0.0084
30115W        W45584  10.143   8.525  11.006  0.1190  0.2100 -0.3271
30116W        W45585   5.433  18.506  13.557 -0.3027 -0.1166 -0.1681
30117W        W45586   4.425  11.330  12.875  0.0011 -0.0737  0.2654
30118W        W45587  11.957   9.857  10.996 -0.1860  0.0062 -0.3214
30119W        W45588   5.929  18.205  15.642 -0.0447  0.0160 -0.0972
30120W        W45589  18.535   4.589   1.817  0.2231  0.3826 -0.1930
30121W        W45590   3.701   4.088  12.859  0.2348 -0.0470  0.0832
30122W        W45591  11.834   0.563   2.030  0.0901 -0.3753  0.1149
30123W        W45592   6.569  18.314  11.722  0.3458  0.0319 -0.1821
30124W        W45593  15.049   9.630   5.468  0.1783 -0.0727 -0.1088
30125W        W45594   2.397   7.704  12.542 -0.1682 -0.0924 -0.0967
30126W        W45595   5.871   0.417  12.635  0.0154  0.0282  0.3783
30127W        W45596  16.225   0.584  11.109 -0.1249  0.2069  0.0071
30128W        W45597  12.933  18.081  13.141 -0.1450 -0.0584 -0.1162
30129W        W45598  10.266  17.774  11.158  0.4770  0.4296  0.2803
30130W        W45599   8.236   9.862   2.773  0.1137  0.0155 -0.1778
30131W        W45600   2.611  12.507  11.941  0.1416 -0.1098  0.2904
30132W        W45601   6.338   7.735   1.938 -0.0989  0.1429 -0.0264
30133W        W45602  17.434   4.821   0.931 -0.1720 -0.2311  0.0780
30134W        W45603   3.762   8.958   4.554  0.0102 -0.0378  0.0714
30135W        W45604   0.697   7.940   1.758  0.0156 -0.0231  0.1086
30136W        W45605   4.280   5.475   0.063  0.0289  0.0406  0.1573
30137W        W45606  17.393  13.156   4.752  0.0486  0.1104  0.2965
30138W        W45607  13.658  17.488  10.963 -0.0053 -0.1012  0.0600
30139W        W45608   5.435   9.040   5.141 -0.0510  0.1487 -0.0539
30140W        W45609  13.980  11.687   3.449  0.2296 -0.0181 -0.1664
30141W        W45610  16.975  13.477   4.866  0.1551  0.2097  0.0728
30142W        W45611   6.739  15.390  15.033 -0.1530  0.1996 -0.0383
30143W        W45612   9.883   3.054  15.077  0.0873  0.3788 -0.0653
30144W        W45613   2.967   8.702   4.753  0.3763  0.1650 -0.0469
30145W        W45614   4.298   1.137   5.823 -0.3434 -0.0789  0.2459
30146W        W45615  17.537   6.140   4.662 -0.0392 -0.4050  0.0255
30147W        W45616   8.811  17.735  10.155 -0.1004  0.0303  0.0026
30148W        W45617  11.950   9.600   6.372 -0.0433  0.2519 -0.2967
30149W        W45618  16.712   2.512   3.919  0.1547  0.2569 -0.0595
30150W        W45619   4.692   7.924   4.383 -0.0156 -0.6019 -0.1016
30151W        W45620   2.228   7.970   2.481  0.0476 -0.1795 -0.0996
30152W        W45621   5.100  15.550  15.605  0.2266  0.0050 -0.3047
30153W        W45622  12.534   7.334   0.937 -0.0614 -0.1331 -0.0157
30154W        W45623  10.163   9.979  13.520 -0.2603  0.1186  0.0445
30155W        W45624   3.905   0.783   0.824 -0.0795 -0.0510  0.1270
30156W        W45625  13.312  18.700   2.441  0.3313  0.1955  0.2550
30157W        W45626   5.311  17.596   1.055  0.3418 -0.0933 -0.0986
30158W        W45627   8.047   2.107   3.912  0.3339 -0.1097  0.3312
30159W        W45628  14.958   0.074   1.904 -0.0981  0.1963 -0.0409
30160W        W45629   6.557   2.583  13.619 -0.2503 -0.0101 -0.1101
30161W        W45630   4.888   3.446   5.368  0.2979  0.0625  0.1814
30162W        W45631  10.816  13.671   4.218  0.1637 -0.3914  0.1459
30163W        W45632  10.135   5.721   3.000 -0.2049 -0.2477  0.2992
30164W        W45633  12.345   3.281  11.517 -0.3441 -0.1769 -0.0837
30165W        W45634   6.084   0.464   0.298  0.2165 -0.0426 -0.1486
30166W        W45635   9.488   2.286   0.914 -0.1458 -0.0461  0.2217
30167W        W45636   0.694  17.074  15.410  0.0425  0.1236  0.2601
30168W        W45637   2.109   0.380  12.104  0.0017  0.2271 -0.1000
30169W        W45638  14.280  13.832  12.609  0.3446  0.0127 -0.1152
30170W        W45639   4.643   7.615   0.081 -0.0398 -0.0108  0.1416
30171W        W45640   0.751   9.251   1.608 -0.0125 -0.2488  0.0818
30172W        W45641  18.005  13.933   1.520 -0.2706  0.1351  0.1556
30173W        W45642   5.757   5.587   5.256 -0.0918 -0.0226 -0.0670
30174W        W45643  14.997  12.745  12.624  0.0491 -0.1628 -0.2322
30175W        W45644   9.321  17.213  15.149  0.1098  0.1282  0.0284
30176W        W45645   3.248   6.034  15.507 -0.2219 -0.4868 -0.2172
30177W        W45646   6.131   4.686  13.578  0.1919  0.4010 -0.0677
30178W        W45647   4.847  16.796   2.262  0.0292 -0.1077 -0.1288
30179W        W45648   2.287   3.323   3.609 -0.0730  0.1269  0.1008
30180W        W45649  15.380  15.747   1.622  0.1480 -0.1721  0.0475
30181W        W45650  15.395   3.068  10.428 -0.0731 -0.2822 -0.0066
30182W        W45651  15.144  13.152   0.040 -0.0449  0.4497  0.0804
30183W        W45652   1.914  18.478  14.311  0.1250 -0.4632  0.3640
30184W        W45653   5.246   5.322   2.525  0.1606  0.3688 -0.0359
30185W        W45654   2.317  14.001   4.480  0.1095  0.0259  0.4195
30186W        W45655   9.617   0.470   4.628  0.0558 -0.1886 -0.2598
30187W        W45656   0.553   5.991   4.903 -0.0895 -0.0874 -0.3432
30188W        W45657   7.207   4.828   1.690  0.3538  0.0008  0.0163
30189W        W45658  13.036  16.925   3.940  0.2477  0.0293  0.3287
30190W        W45659   4.439   2.767   3.322  0.1562 -0.3788  0.1668
30191W        W45660   2.369  10.984  12.123  0.3304  0.2971  0.2663
30192W        W45661   7.573  14.549  15.634  0.1973  0.0500  0.1126
30193W        W45662   6.948  13.055  11.309 -0.1387  0.2196  0.1367
30194W        W45663   4.419  14.919   2.274  0.3139  0.0036  0.0168
30195W        W45664   5.445  14.750   1.056  0.4642 -0.0791 -0.1425
30196W        W45665   5.724  16.067  10.222 -0.3205  0.1246 -0.2596
30197W        W45666   4.184   8.120  12.302  0.0946  0.4324 -0.0050
30198W        W45667  14.151   6.235   5.902 -0.3806  0.0217  0.0870
30199W        W45668  17.774  12.242   0.491 -0.3377 -0.3186 -0.1288
30200W        W45669   4.642  10.587  14.904  0.2621 -0.0825  0.2007
30201W        W45670  15.428  17.939   0.998  0.2986  0.1832 -0.0958
30202W        W45671   6.327  15.889   5.244 -0.2842  0.0532 -0.0655
30203W        W45672   6.745   7.597   0.730 -0.0030 -0.0061 -0.0418
30204W        W45673   3.496   2.694  14.819 -0.0866  0.0871 -0.2662
30205W        W45674  13.461  10.266   1.621 -0.0120 -0.1285 -0.1865
30206W        W45675   3.366   6.298  14.201  0.1136  0.1572  0.2029
30207W        W45676   3.301  17.508   1.823 -0.0126  0.1353 -0.2805
30208W        W45677  17.128   9.923  10.538 -0.1710 -0.1092  0.2032
30209W        W45678  11.676  12.117  13.278 -0.0343 -0.1047 -0.4565
30210W        W45679  12.849  16.398  14.322  0.2601  0.0932  0.2552
30211W        W45680  12.402  13.790   1.705  0.0501 -0.1831 -0.0847
30212W        W45681   4.468  16.190  10.773  0.0352 -0.1526  0.0475
30213W        W45682   2.734  10.013   1.588 -0.2812 -0.2937 -0.0140
30214W        W45683  11.319  17.378  12.737  0.1017 -0.0285 -0.2910
30215W        W45684   4.057   7.596  10.871  0.0824 -0.2756 -0.1722
30216W        W45685   2.374  16.770  13.511  0.0382 -0.0330  0.1789
30217W        W45686  14.008  10.484   1.836 -0.0592  0.1279 -0.0691
30218W        W45687   5.441  13.305  11.067 -0.0726 -0.0769 -0.0241
30219W        W45688  11.798  17.502  14.186  0.3055  0.3147 -0.2152
30220W        W45689   3.740   5.409  11.952 -0.0725 -0.0696 -0.0855
30221W        W45690   4.304   5.792  10.983  0.0513 -0.3164  0.1325
30222W        W45691  12.328  12.190  15.609  0.0973 -0.0065  0.2466
30223W        W45692  17.044   1.784  14.220  0.0967  0.1593  0.2655
30224W        W45693   3.436   5.876   3.340  0.1165  0.0173  0.0793
30225W        W45694   1.528   6.034   1.293 -0.0136 -0.2181  0.0389
30226W        W45695  12.682  16.037   3.624  0.2309 -0.0377  0.1502
30227W        W45696   6.327   1.625  12.366 -0.0076  0.2992  0.0480
30228W        W45697  16.019  14.213   0.663 -0.1107 -0.0857  0.1383
30229W        W45698   2.452   5.591  11.542  0.0930 -0.1173  0.3308
30230W        W45699   9.780  15.072   3.978 -0.0767 -0.3217  0.0019
30231W        W45700   8.731   7.556   3.656 -0.0115  0.0640 -0.1990
30232W        W45701  17.663   0.621   6.057 -0.1045  0.0096 -0.0114
30233W        W45702  10.337  18.157  10.019 -0.2481  0.2525  0.2913
30234W        W45703  11.434   8.948   1.025 -0.0450  0.1783  0.1267
30235W        W45704   2.558   9.826  13.664 -0.3511  0.1365  0.0642
30236W        W45705  12.881   9.633   1.174  0.1982 -0.2954  0.0621
30237W        W45706   0.858   1.011  11.781 -0.1434  0.0131  0.1334
30238W        W45707  11.516   6.525   3.120 -0.1742 -0.1821  0.1503
30239W        W45708  12.777   6.612   0.564 -0.2185  0.2487 -0.0258
30240W        W45709  11.233  10.051   1.702 -0.0232  0.0145 -0.0445
30241W        W45710  13.855   2.371  11.357  0.1890 -0.1758  0.1941
30242W        W45711  16.110   8.516   4.595 -0.2009 -0.3565 -0.0579
30243W        W45712  18.179   3.971  11.641  0.1389  0.1123 -0.4980
30244W        W45713   9.760   2.626   2.440  0.2522 -0.2151  0.0021
30245W        W45714   8.784  10.353  11.675  0.2172  0.0211 -0.1564
30246W        W45715   6.063   2.373  11.879 -0.1504 -0.0064 -0.0646
30247W        W45716   0.779   2.621  11.678  0.2828  0.1707 -0.0836
30248W        W45717  13.959  11.823  11.938  0.0728 -0.1657  0.2397
30249W        W45718  11.879   0.073   0.267  0.1147 -0.2957 -0.2213
30250W        W45719  12.726  15.273  13.080  0.1557 -0.1606  0.0956
30251W        W45720  16.234   7.106  13.816 -0.3176 -0.2640 -0.1172
30252W        W45721  11.274   5.009  14.830  0.1506  0.2754  0.1457
30253W        W45722  13.589   9.392   4.451 -0.2714 -0.1158  0.0189
30254W        W45723  10.724   5.864  13.177 -0.2293 -0.1825  0.1075
30255W        W45724   7.132   5.933   0.611 -0.1017 -0.0849  0.1831
30256W        W45725   7.968  13.460   1.805  0.0522 -0.1080  0.3112
30257W        W45726   3.569  12.654   0.098  0.1086  0.2757 -0.1454
30258W        W45727  14.895   1.869  14.507  0.1660  0.0409  0.1429
30259W        W45728  15.293  11.117  13.492  0.3709  0.0338  0.1620
30260W        W45729   1.756   3.117  11.558  0.1691 -0.0960 -0.0694
30261W        W45730   2.452  16.636   5.725  0.1567 -0.2891  0.5538
30262W        W45731   0.853   1.649  10.695  0.1450  0.1028 -0.1875
30263W        W45732  15.712   2.922   1.978  0.0149  0.0620 -0.1449
30264W        W45733  17.550   7.867   3.025  0.0762 -0.0644  0.6669
30265W        W45734   8.520   9.512   3.032  0.0754 -0.0045 -0.2219
30266W        W45735   2.566  10.417   1.333  0.0854  0.2463  0.3650
30267W        W45736   4.484   5.017  15.607 -0.0095  0.3634  0.0013
30268W        W45737  14.642   9.816   4.468  0.1987 -0.0485  0.0279
30269W        W45738  11.443  16.994   3.302  0.3411  0.2648 -0.0134
30270W        W45739   4.844  12.167  10.993 -0.1168  0.1745 -0.0146
30271W        W45740  15.806  12.331   3.075 -0.4472 -0.1016 -0.2387
30272W        W45741  11.608  17.363  13.721 -0.1817 -0.0939 -0.1530
30273W        W45742  15.264   9.391  15.601 -0.0300 -0.2172 -0.1025
30274W        W45743   0.861  10.573   1.388 -0.0036 -0.0551 -0.1616
30275W        W45744  13.156  15.822  14.610  0.2709  0.1678 -0.0057
30276W        W45745   4.391   5.843  13.150 -0.0361 -0.0721  0.0883
30277W        W45746  11.201  12.782   2.432  0.3506  0.1429  0.1246
30278W        W45747  18.206  14.144  15.376 -0.3101  0.0110  0.0810
30279W        W45748  15.416   9.803   5.169 -0.0265  0.3069  0.0321
30280W        W45749   8.845  14.657  10.428  0.0412  0.0531 -0.0998
30281W        W45750   0.077   1.094  15.167 -0.0912  0.0274  0.1327
30282W        W45751  11.134  10.742   3.459  0.0212  0.0304  0.3439
30283W        W45752  18.271   2.425  11.767  0.1988 -0.1603  0.0211
30284W        W45753   7.699  14.519  14.325  0.3752  0.1492 -0.0414
30285W        W45754   6.525   2.712   4.748  0.1678 -0.1194 -0.1120
30286W        W45755  13.961  16.706   1.889 -0.3014 -0.2681  0.0017
30287W        W45756  14.763   9.378  14.699  0.2735  0.0942  0.0841
30288W        W45757  17.361  18.474  14.623  0.1669 -0.0763 -0.1227
30289W        W45758  17.507  13.676   4.989  0.1861  0.1482  0.1109
30290W        W45759   3.995   6.781  11.020 -0.1555  0.4131  0.0625
30291W        W45760  17.787  10.641  11.639  0.2873  0.0922 -0.0118
30292W        W45761   3.250   9.658  15.440 -0.1090  0.0712 -0.2484
30293W        W45762   4.399   3.213  12.997  0.1548 -0.0629  0.0875
30294W        W45763   0.871  15.248   3.379  0.0092 -0.0491 -0.0875
30295W        W45764  11.066   2.901   1.645  0.3102  0.0341  0.0193
30296W        W45765   3.597   6.067   9.618  0.1956 -0.1542  0.0923
30297W        W45766   2.056  15.418  12.693  0.2289 -0.3185 -0.0859
30298W        W45767  10.241  15.187   1.095  0.0554 -0.1561  0.0373
30299W        W45768   8.485  16.972  10.740 -0.0497 -0.0841  0.0197
30300W        W45769   6.337   1.351   3.282  0.1394 -0.2440  0.3436
30301W        W45770  17.728  12.886  15.330  0.4142 -0.0753  0.3111
30302W        W45771  14.608  10.716  15.054  0.0430 -0.3457  0.1557
30303W        W45772  13.270  14.968  12.178 -0.0026  0.0466 -0.1356
30304W        W45773   6.721   8.294  13.843 -0.1577 -0.4155 -0.2505
30305W        W45774   8.898   1.955   5.059  0.0996  0.2843 -0.0557
30306W        W45775   8.788   0.773   3.027 -0.2532  0.0712  0.0090
30307W        W45776  15.804  12.346  13.594 -0.3151  0.1838 -0.1422
30308W        W45777   3.955  14.074   3.525 -0.0948 -0.2235 -0.0611
30309W        W45778   0.275   2.395   5.356  0.0842  0.2377 -0.0837
30310W        W45779  14.929  18.729  14.151 -0.1844  0.0443  0.0931
30311W        W45780   0.408  10.490  12.221 -0.1376  0.0867  0.2446
30312W        W45781  14.770   2.763  12.097 -0.1009 -0.1260 -0.1089
30313W        W45782  14.240  10.459  12.136 -0.4407 -0.3178  0.3014
30314W        W45783  18.154  16.951   2.710 -0.0532 -0.0230  0.0045
30315W        W45784   0.077   8.998   4.600 -0.3148  0.0130  0.0448
30316W        W45785   2.680   4.346  11.448  0.1174 -0.0594  0.1480
30317W        W45786  16.771   2.741  14.547 -0.0063  0.2133 -0.2681
30318W        W45787  10.953  14.155   5.303 -0.1095  0.1728 -0.1441
30319W        W45788  16.953   1.424   5.294  0.0576 -0.0018  0.2638
30320W        W45789   5.857  15.489   5.136  0.4765  0.0864  0.0725
30321W        W45790   0.838   3.146  12.892  0.2217  0.1723 -0.1312
30322W        W45791   1.896  14.674   1.214 -0.0673  0.0364  0.0134
30323W        W45792  12.791   8.978   3.280  0.0479 -0.3587 -0.0192
30324W        W45793  16.977  18.344   3.221 -0.1064  0.2918  0.1381
30325W        W45794   8.884   2.973  15.212  0.0203 -0.0082  0.3100
30326W        W45795  13.579  18.223  12.328  0.1082  0.0106  0.4726
30327W        W45796  14.801  10.982  11.091 -0.0077 -0.3123  0.0269
30328W        W45797   4.182   0.920   5.366 -0.0693 -0.0298  0.5495
30329W        W45798   4.422  18.447  12.381 -0.2337 -0.0750 -0.0226
30330W        W45799   3.645   2.586  11.569  0.0271 -0.0510  0.4469
30331W        W45800  13.315  11.949  13.762  0.1957 -0.2072  0.4698
30332W        W45801  15.400  17.345  10.303  0.0665 -0.1820  0.1221
30333W        W45802  17.766   6.228  14.214  0.0217 -0.1684 -0.1129
30334W        W45803   6.467  15.467  13.143  0.1516 -0.3438 -0.0836
30335W        W45804  16.462  10.712   6.245 -0.2965  0.1095  0.1122
30336W        W45805   9.532  11.685  13.225  0.0121  0.1927 -0.4327
30337W        W45806  16.490  16.644  12.039  0.1029  0.0051 -0.3754
30338W        W45807  10.962   6.997  13.479 -0.0678 -0.2362 -0.0312
30339W        W45808  11.735   4.823  11.718 -0.0955  0.1420 -0.3637
30340W        W45809  17.349   4.005   4.257  0.0742 -0.0895  0.1676
30341W        W45810  11.247  13.686   5.409  0.0475 -0.2691  0.4525
30342W        W45811   2.405   2.598   2.646 -0.0257 -0.3280 -0.1655
30343W        W45812  14.332  14.988   4.782  0.1754  0.0366 -0.2850
30344W        W45813   4.408  10.215   1.797 -0.2099 -0.2719 -0.0164
30345W        W45814  13.307   0.673  11.026  0.1158 -0.1471  0.0227
30346W        W45815   2.871   7.667  12.158  0.1454  0.0306 -0.2017
30347W        W45816   2.446  10.966   1.360  0.0666  0.3226  0.3026
30348W        W45817  12.921   1.205   2.741 -0.0423  0.4027 -0.0953
30349W        W45818  12.172  11.466   0.798 -0.0701 -0.0223  0.0099
30350W        W45819  13.947  10.051   1.579 -0.1395  0.1297  0.2883
30351W        W45820   6.986  13.549   0.823  0.1523 -0.0370  0.4158
30352W        W45821   5.470  17.362  11.244 -0.2361 -0.1652  0.1676
30353W        W45822  15.274  16.512   1.279  0.1133  0.1354  0.0555
30354W        W45823  14.409  14.772   1.130  0.0514 -0.0593  0.1162
30355W        W45824  15.519   5.946  12.880 -0.0080 -0.3533  0.0516
30356W        W45825   5.611  14.562  11.118  0.3612  0.0223  0.1671
30357W        W45826  11.893  14.491  14.675 -0.0551  0.2222 -0.0748
30358W        W45827   2.481   9.431  14.317 -0.1814 -0.2211 -0.1610
30359W        W45828   9.698   7.422   5.305  0.0179  0.4025 -0.0978
30360W        W45829   3.631  12.415  12.838 -0.1942 -0.0412  0.0094
30361W        W45830   1.175   1.395  12.143 -0.2171  0.5907  0.2095
30362W        W45831  11.062   5.566  10.804 -0.3195  0.0172  0.2810
30363W        W45832   3.558  16.660   2.840 -0.1547  0.2219 -0.2177
30364W        W45833   2.456  13.109   2.691  0.2235  0.1132 -0.2946
30365W        W45834  12.959   7.335  13.162  0.1065 -0.0803  0.1470
30366W        W45835  10.837  14.463  14.516 -0.3715 -0.1917  0.0753
30367W        W45836  17.362   3.037  11.780 -0.2014 -0.3387  0.1664
30368W        W45837   1.870  13.815   1.972  0.0302  0.0279  0.0961
30369W        W45838  15.135  15.311   1.041  0.0603 -0.0409  0.0519
30370W        W45839   3.366  10.196   0.152  0.1251  0.1517  0.4124
30371W        W45840  16.290  11.834  12.253 -0.0912  0.0116 -0.2134
30372W        W45841  10.308  10.869   1.372 -0.0270  0.0655 -0.0106
30373W        W45842   9.717   7.495   3.394 -0.1236  0.0703  0.1288
30374W        W45843   6.502  18.620   0.136  0.3395  0.0177  0.0294
30375W        W45844   2.361  11.026  14.701 -0.0586  0.2642 -0.1455
30376W        W45845   1.084  10.546  13.944  0.1496  0.0550  0.0618
30377W        W45846   0.162  11.620  14.024  0.1735 -0.0557 -0.1909
30378W        W45847   2.475   3.985  13.951  0.0151  0.0303  0.0634
30379W        W45848   9.844  12.339  13.666 -0.1386  0.2855  0.0827
30380W        W45849   0.474   0.480   1.644 -0.1626 -0.0710 -0.3084
30381W        W45850  10.671   2.135   3.408  0.2220 -0.1458 -0.1900
30382W        W45851   9.972  14.439  11.988 -0.2894  0.0771 -0.1629
30383W        W45852  18.734   5.566   2.219 -0.0767 -0.0893 -0.1186
30384W        W45853  17.714  11.413   5.640 -0.1548  0.1154  0.4411
30385W        W45854  10.131   3.546  14.336  0.0251 -0.1882 -0.4432
30386W        W45855   3.450  16.574   4.083 -0.0662  0.2085  0.2579
30387W        W45856   9.377  12.303  15.483  0.0604 -0.2110  0.1164
30388W        W45857   7.109  11.372   0.189  0.2024 -0.1810 -0.1053
30389W        W45858  14.689  11.016  11.643  0.1637  0.1923  0.0859
30390W        W45859   1.408  12.580   2.106  0.1135  0.2260  0.4754
30391W        W45860  17.965   3.220   0.856  0.1547  0.2064  0.0353
30392W        W45861   7.318  10.477  11.025  0.1207 -0.0724 -0.0820
30393W        W45862  13.718  10.900   4.024 -0.0462  0.3198  0.1024
30394W        W45863   4.213   6.162   2.924  0.1361  0.0793 -0.4732
30395W        W45864   4.877   4.378  11.030  0.2450  0.1988 -0.3980
30396W        W45865   6.557   2.656  12.158 -0.0656  0.1007  0.2434
30397W        W45866   7.146  11.802   2.259 -0.0127  0.0143  0.0811
30398W        W45867  11.106   8.741   0.676 -0.1697 -0.2679 -0.2703
30399W        W45868   1.444   1.561   1.621  0.0349  0.4533 -0.1940
30400W        W45869  14.169   8.914  12.483  0.0956 -0.4464 -0.1344
30401W        W45870  15.206  11.298   2.851  0.0440  0.2345 -0.0210
30402W        W45871   5.858  16.096   3.971  0.0105 -0.2280 -0.0686
30403W        W45872  16.722   5.713   1.911 -0.1027  0.0539  0.0637
30404W        W45873  18.470  18.046   0.753  0.2348  0.1104 -0.2511
30405W        W45874   1.772   7.818   9.628  0.0708 -0.0351 -0.1196
30406W        W45875   2.704  11.118   3.147  0.1034  0.1696  0.0333
30407W        W45876  16.080   9.164  12.332 -0.1327  0.2387  0.0343
30408W        W45877  13.500   6.191   1.514  0.2547  0.1277 -0.1945
30409W        W45878  15.950  16.312   0.451 -0.1052  0.0862 -0.0116
30410W        W45879  11.199   4.161  13.638 -0.0317  0.3997 -0.0143
30411W        W45880   7.255   7.855   2.394 -0.0092 -0.2717 -0.0554
30412W        W45881  12.540   7.673  13.184 -0.0750 -0.1730  0.1429
30413W        W45882   9.217  11.248  11.466  0.5552  0.3303  0.0642
30414W        W45883  14.991   6.595  12.676  0.0211  0.0971 -0.0734
30415W        W45884   2.342   0.972  13.700 -0.0070  0.4170 -0.2828
30416W        W45885   6.316  10.359  12.815  0.0179 -0.1047  0.0433
30417W        W45886  12.661  15.639  11.866  0.2776  0.1341  0.1379
30418W        W45887  10.411  14.020  14.568  0.0604 -0.1632 -0.0169
30419W        W45888  14.632  16.616  10.584 -0.0148  0.1583  0.4978
30420W        W45889  15.107   7.958   0.379 -0.0229 -0.0389  0.1409
30421W        W45890   3.124  10.403  13.454  0.0821 -0.2667  0.1219
30422W        W45891   5.224  13.507   4.902  0.0052 -0.1465 -0.2222
30423W        W45892   5.212  10.478   0.277 -0.1476 -0.2019 -0.0748
30424W        W45893   1.292   1.857   2.946  0.0200  0.0159 -0.0522
30425W        W45894   3.459   3.072  10.577 -0.2488  0.3607  0.0576
30426W        W45895  14.404   2.183  13.043 -0.1406 -0.0717 -0.0443
30427W        W45896  13.337   4.369   0.822 -0.0979 -0.1189 -0.1747
30428W        W45897   8.305   4.639   1.648 -0.1389 -0.3043 -0.0602
30429W        W45898  14.587  13.061  13.520 -0.0766 -0.1296 -0.4265
30430W        W45899  14.281   0.688  11.480  0.3177  0.0586 -0.0670
30431W        W45900   7.174  12.651  13.508 -0.0789 -0.2662 -0.3458
30432W        W45901   5.667  18.756   0.934  0.1252 -0.2874 -0.0429
30433W        W45902   5.312  16.762  12.946  0.1823 -0.0236  0.0276
30434W        W45903   1.762  15.688   2.456 -0.0550  0.2474 -0.2862
30435W        W45904   5.777  16.605   5.362 -0.1253  0.3637 -0.0925
30436W        W45905   5.872  10.646  12.826  0.1479  0.0346  0.0270
30437W        W45906  15.642   8.380   4.578 -0.0398  0.1487  0.0964
30438W        W45907   0.802  12.252   5.498 -0.2149 -0.1019  0.2557
30439W        W45908   4.839   2.961  13.767  0.0039  0.0846 -0.3689
30440W        W45909  10.224   8.117  11.535 -0.0128  0.0616  0.4593
30441W        W45910   8.885   5.294   1.714  0.2768 -0.0176  0.1533
30442W        W45911   4.196   5.222  12.491 -0.2431  0.0020 -0.1441
30443W        W45912  11.024   9.183   1.132 -0.1840 -0.0409 -0.0772
30444W        W45913   2.636   2.392  11.195 -0.0569  0.0115 -0.1690
30445W        W45914  14.191   2.467   5.148  0.0536  0.1580 -0.2755
30446W        W45915   6.228   9.200   4.768 -0.3508  0.0229  0.1266
30447W        W45916  17.299   2.028  13.192  0.1844  0.2145  0.0349
30448W        W45917  17.921  10.911   4.353  0.2221  0.3872 -0.0552
30449W        W45918   3.803  16.761  14.718 -0.2018  0.0528  0.1788
30450W        W45919  17.513   5.566   1.335 -0.1591  0.1724 -0.2090
30451W        W45920  16.406   8.636  11.686 -0.1022  0.2149  0.0339
30452W        W45921   6.980   6.791  12.042  0.1077  0.0456 -0.2743
30453W        W45922  13.272  15.093   2.618 -0.1477  0.1091  0.1484
30454W        W45923   2.693  11.200   4.009 -0.1730 -0.0900  0.1339
30455W        W45924   1.264  15.230   0.052 -0.3466  0.0487  0.1074
30456W        W45925   1.685  15.684   0.081 -0.1653 -0.0479 -0.2347
30457W        W45926   8.569  11.569   1.324  0.1082  0.0588  0.1411
30458W        W45927  10.418  18.316  14.276  0.0249 -0.2936 -0.1182
30459W        W45928  11.847  18.193   1.976 -0.1061 -0.1611  0.0087
30460W        W45929  11.344  12.746  14.070 -0.2206  0.2187 -0.0172
30461W        W45930   6.705   1.629  15.616 -0.1035  0.1427 -0.1807
30462W        W45931   9.092   6.955  12.669 -0.1867  0.1149 -0.0381
30463W        W45932   1.357   4.816  12.633 -0.0991 -0.1164  0.0293
30464W        W45933  15.730   7.314   5.871  0.0195  0.0123  0.5934
30465W        W45934  12.415   5.694  10.835  0.0125 -0.1438 -0.1622
30466W        W45935  18.676   2.209  12.601  0.1319 -0.1509 -0.3942
30467W        W45936  18.134  14.279   2.425  0.0975  0.1067 -0.0631
30468W        W45937   7.016   5.964  11.572  0.5610  0.3835 -0.0720
30469W        W45938   9.225  11.428  10.617 -0.3057 -0.0164  0.2157
30470W        W45939   5.225   4.345  12.846  0.1157  0.1969  0.0860
30471W        W45940   7.428   0.010   4.878  0.0031  0.2135  0.2090
30472W        W45941   7.822   1.220   4.518 -0.0587  0.4539  0.0298
30473W        W45942  14.907   4.668   0.862  0.0255 -0.2349  0.1846
30474W        W45943   0.972   7.072  13.929 -0.2100 -0.0832  0.3409
30475W        W45944  13.258   1.160  13.166 -0.4036  0.3365  0.2748
30476W        W45945  15.209  13.801  13.644  0.1961  0.0806 -0.1216
30477W        W45946   1.750  14.322  13.445  0.3538  0.3152 -0.0799
30478W        W45947  15.479   0.177  15.025 -0.3306 -0.0994 -0.1804
30479W        W45948   1.618   3.465  12.910  0.1612 -0.1605 -0.0404
30480W        W45949   5.217  16.378  13.845  0.0407 -0.0265 -0.0442
30481W        W45950   2.107  13.586  13.946 -0.5071  0.0441 -0.2143
30482W        W45951   7.054   8.003  11.855  0.1685 -0.1112 -0.1891
30483W        W45952   2.033   5.379  13.255 -0.1600 -0.2356 -0.1271
30484W        W45953   0.997   2.022   5.534  0.0554  0.1962 -0.6450
30485W        W45954  17.134  16.137  12.809 -0.1839  0.0454 -0.0593
30486W        W45955  13.542  13.184  13.159 -0.0975  0.0892  0.0327
30487W        W45956   8.395   5.717   3.566  0.2043  0.1060 -0.3457
30488W        W45957   3.565   2.103  11.494  0.0178  0.2269 -0.0111
30489W        W45958  15.901   7.250   0.185  0.1641 -0.3511 -0.0388
30490W        W45959   4.158   3.990  12.785 -0.0802  0.2321  0.1353
30491W        W45960   4.034  16.329  14.365 -0.1322  0.1838  0.3079
30492W        W45961  13.500   8.450   2.409  0.1301 -0.2382 -0.2718
30493W        W45962   7.821   8.315  13.226 -0.2675  0.0696 -0.1769
30494W        W45963   3.645  10.226  10.692  0.1920  0.3121 -0.0935
30495W        W45964   0.531   3.429   2.901  0.2440 -0.0591  0.0871
30496W        W45965  10.459  15.149  15.470 -0.2980 -0.2178  0.0173
30497W        W45966  18.356  10.858  12.508 -0.2499  0.2471 -0.0517
30498W        W45967   7.250  16.825   0.120  0.0812  0.1616 -0.4213
30499W        W45968  15.494   9.552   4.709  0.0652  0.2277 -0.1963
30500W        W45969   7.387   9.567   2.472  0.1534 -0.0083  0.0594
30501W        W45970   2.335  18.310  10.245  0.3938 -0.1019  0.0964
30502W        W45971  17.087   3.512  13.485 -0.0505 -0.4586  0.2553
30503W        W45972  11.194  11.574  14.848  0.0428 -0.0137  0.0626
30504W        W45973   0.354   9.966   1.580  0.0623  0.3559 -0.1846
30505W        W45974   7.593   7.128   2.433 -0.2803  0.2005  0.0661
30506W        W45975  10.910  11.228  13.727 -0.0683  0.1007  0.2232
30507W        W45976   7.675  13.612   0.925  0.2599 -0.2258  0.0102
30508W        W45977   5.411   6.316   3.517 -0.0606 -0.0310  0.1872
30509W        W45978   0.033  14.731   2.771  0.2430  0.1708  0.4271
30510W        W45979   2.941   1.406   2.503 -0.0470 -0.2136 -0.2626
30511W        W45980  10.422   1.043   0.404 -0.0566  0.1198  0.0870
30512W        W45981  15.579   4.641  15.345  0.0887  0.1205 -0.1173
30513W        W45982  15.434   0.505  15.579  0.1345 -0.3158  0.2429
30514W        W45983  17.517  16.973   5.381  0.5175  0.0752 -0.3286
30515W        W45984   6.883   1.595  13.426 -0.0531 -0.0371 -0.1420
30516W        W45985   0.389  14.426  10.924  0.4903 -0.2515  0.1875
30517W        W45986  13.215  11.691  14.748  0.1253 -0.1343  0.2775
30518W        W45987  18.196  10.430   1.307  0.2382  0.3368 -0.0908
30519W        W45988  12.307   7.932  12.788  0.1585  0.2284  0.1706
30520W        W45989  18.086   4.715   5.599 -0.0149  0.1135  0.1821
30521W        W45990   5.285   3.315   4.882  0.0786 -0.0244  0.0225
30522W        W45991  11.952  10.158   0.446 -0.1822  0.0503  0.1639
30523W        W45992   6.362   2.170   1.490  0.2575  0.0345 -0.2889
30524W        W45993  11.085  10.785  13.917  0.2663  0.3836  0.0717
30525W        W45994   7.622   4.440  14.811  0.1207  0.0922 -0.0109
30526W        W45995   6.995   9.595  13.530  0.2073  0.4246  0.5024
30527W        W45996   1.558   1.095   4.492 -0.4159 -0.0476 -0.1914
30528W        W45997  12.404  10.944   2.678  0.1938 -0.0912  0.2324
30529W        W45998  14.157  11.418  10.970 -0.2410  0.1427  0.0585
30530W        W45999  15.178  18.660   4.319  0.0229  0.0289 -0.0015
30531W        W46000  11.168  10.710  15.655 -0.0076 -0.0599  0.2355
30532W        W46001  16.216   1.491  15.310  0.3244 -0.2334 -0.0265
30533W        W46002  10.697  10.940  15.417 -0.0705 -0.1312 -0.1843
30534W        W46003  15.932  12.851   1.889 -0.3826 -0.1317  0.0956
30535W        W46004  11.299   3.815  12.918  0.0370  0.3014  0.1322
30536W        W46005   7.876  12.226  13.599 -0.0120 -0.0485  0.0150
30537W        W46006  15.168  17.222   1.015 -0.0189  0.0509 -0.3353
30538W        W46007   2.789   3.620  14.700 -0.0293  0.1536  0.2453
30539W        W46008   4.790   3.160  14.790  0.0061  0.4588  0.2386
30540W        W46009  17.737  15.574  13.694  0.1218 -0.0998 -0.2172
30541W        W46010   0.007   5.775   4.135 -0.0054  0.0698 -0.0043
30542W        W46011   0.994   6.291   0.734  0.1645 -0.1145 -0.0275
30543W        W46012   5.656  13.698  10.833 -0.1109  0.3283  0.1032
30544W        W46013   5.333  12.338  11.461  0.2701 -0.0256  0.1023
30545W        W46014   1.559   1.573   4.120 -0.1308 -0.0255 -0.1051
30546W        W46015   8.175   0.682   1.736 -0.0878  0.3141 -0.2183
30547W        W46016   6.492   3.729   0.278 -0.1421 -0.0174 -0.0670
30548W        W46017  12.601   2.116   2.920  0.1616  0.0554 -0.1870
30549W        W46018   0.188  11.397   5.185  0.0669 -0.1378 -0.2932
30550W        W46019   8.784  10.980  12.278  0.0096  0.6108  0.3331
30551W        W46020   6.025   8.104   1.049 -0.1372  0.1097  0.1199
30552W        W46021   8.657  17.774  14.673  0.0880 -0.3275  0.0741
30553W        W46022  16.574  18.519   2.203  0.0858  0.3137 -0.2970
30554W        W46023  13.052   1.955   2.831  0.0897 -0.1620  0.6057
30555W        W46024   9.034   4.416   0.895  0.1025  0.2410  0.0795
30556W        W46025   9.521   2.460  12.702  0.0707 -0.1191 -0.0661
30557W        W46026   4.750   2.178  13.118 -0.0441  0.1671  0.0866
30558W        W46027   9.464  10.705  13.056 -0.1297 -0.0360  0.3969
30559W        W46028   3.114   8.443   4.299  0.1847 -0.2220  0.4649
30560W        W46029   7.347  13.034   9.659  0.1469 -0.2415 -0.0573
30561W        W46030  18.033  15.642   1.778  0.2727 -0.0974  0.0270
30562W        W46031  14.647   0.063   4.210  0.0978  0.2050  0.1954
30563W        W46032   8.687   1.898  13.330  0.1352  0.0261  0.1079
30564W        W46033   1.713   3.906   4.788 -0.0766 -0.1026  0.0911
30565W        W46034   6.710   2.823  14.608 -0.1702  0.0123 -0.0297
30566W        W46035  17.067   3.109  15.455  0.0652  0.2226  0.2305
30567W        W46036  15.045  15.720   0.527 -0.1534  0.2275  0.1474
30568W        W46037  15.174   7.642  13.082 -0.1581  0.1025 -0.1237
30569W        W46038   8.599   2.370   0.917 -0.0819  0.0014 -0.2585
30570W        W46039  14.604  14.079   4.860 -0.2552  0.2125 -0.0049
30571W        W46040   8.748   6.919  15.133 -0.3143 -0.1862  0.0329
30572W        W46041   0.614   8.777  12.611  0.2060 -0.2256 -0.1093
30573W        W46042  10.357  12.780   2.123 -0.0822 -0.0953 -0.1677
30574W        W46043  18.487  18.707  15.057  0.0995 -0.4121 -0.1697
30575W        W46044   2.277   8.372   3.825 -0.0166  0.0193 -0.1359
30576W        W46045  15.604   2.399  13.935  0.0643  0.2781 -0.0029
30577W        W46046  10.062  13.444  10.643 -0.2133  0.1375  0.0757
30578W        W46047  18.619  16.195   0.843 -0.0144  0.2320 -0.0658
30579W        W46048   4.877  16.415  11.245  0.2461 -0.1008  0.0621
30580W        W46049  11.374  10.955  11.329  0.0581 -0.0927 -0.1654
30581W        W46050  15.985  15.981  13.381  0.0140 -0.2816 -0.2347
30582W        W46051  11.731   3.342  15.638 -0.1571  0.1902 -0.0169
30583W        W46052  17.001   5.019   0.754  0.0816 -0.1132 -0.1875
30584W        W46053  16.575  10.826   0.907  0.1897 -0.0778  0.3509
30585W        W46054   4.031  11.765   3.042  0.0017 -0.0304 -0.0418
30586W        W46055   8.263   9.488  14.576  0.2364  0.1718 -0.1065
30587W        W46056   4.396   8.441  11.594 -0.0903  0.2152 -0.2297
30588W        W46057  17.604  12.706   5.305  0.1676 -0.1143 -0.1805
30589W        W46058   7.776   9.774  11.545  0.0302 -0.0249  0.0322
30590W        W46059  18.233  15.110   5.332  0.3804 -0.2240  0.3019
30591W        W46060  14.984   0.930   4.435  0.1337  0.0526 -0.0257
30592W        W46061  13.552   7.043   5.833  0.1017 -0.1630  0.2725
30593W        W46062  16.224   1.809   4.009  0.3938  0.1291  0.4166
30594W        W46063  14.508   3.619   0.001 -0.0948 -0.1471  0.0943
30595W        W46064  14.493  17.698   0.171 -0.0070  0.2548 -0.1600
30596W        W46065   8.463   1.543  14.381  0.2817  0.0974  0.0637
30597W        W46066  18.784  11.896  13.267 -0.2864 -0.2263 -0.0438
30598W        W46067  16.433  10.535  11.561 -0.0074  0.1225  0.4435
30599W        W46068   3.542  17.186   1.041  0.2763 -0.2543 -0.1215
30600W        W46069  15.912   5.466   4.269 -0.1563  0.0700 -0.1144
30601W        W46070   7.705   0.843  15.627  0.0008  0.0881 -0.0264
30602W        W46071  15.232   4.917   4.360  0.0004  0.3475 -0.0726
30603W        W46072  16.616   5.874  14.806 -0.1837 -0.0387  0.0032
30604W        W46073  10.666  15.960   5.394 -0.2305  0.0081  0.1635
30605W        W46074   4.986  15.890   5.125  0.7324  0.0364  0.2839
30606W        W46075  11.079  14.049  10.796  0.0789 -0.0021  0.0521
30607W        W46076  17.432  14.123  12.339 -0.1192  0.0095  0.2399
30608W        W46077  12.659   2.564   3.113  0.0415 -0.2467  0.1260
30609W        W46078  18.162   8.445   4.881  0.0337  0.0131  0.0124
30610W        W46079   7.973   2.376   3.494  0.2969  0.1894  0.0830
30611W        W46080   3.437   5.568   1.605 -0.0314 -0.3207  0.3085
30612W        W46081  10.103   3.801   0.383  0.0427 -0.0892 -0.2956
30613W        W46082  17.416  17.440  15.598  0.3132  0.3112 -0.0213
30614W        W46083  12.110   7.069   0.964  0.1207  0.1227  0.2011
30615W        W46084  15.096   4.192  11.615 -0.1259  0.2350  0.1026
30616W        W46085   5.868   3.169   0.951  0.2448 -0.3145  0.1274
30617W        W46086  18.709  10.866  11.542  0.3163 -0.3784  0.0002
30618W        W46087   6.198   1.709   4.153 -0.1943  0.2111  0.1245
30619W        W46088   0.976  15.696  11.114 -0.1909  0.1890  0.1359
30620W        W46089   7.882  13.332   3.078 -0.2028  0.1633  0.1139
30621W        W46090  13.261  12.219  11.661 -0.1695  0.0172 -0.2632
30622W        W46091  12.619   8.304   5.675  0.1709  0.0567 -0.1731
30623W        W46092  13.132   1.835  11.516  0.0265  0.0933 -0.2206
30624W        W46093   8.961  17.194   3.902 -0.1063 -0.0520  0.0415
30625W        W46094  15.773   1.190   4.992 -0.2832 -0.2853  0.0687
30626W        W46095  15.562   4.623   4.727  0.1780  0.2515 -0.2030
30627W        W46096   0.589  12.259  14.523 -0.1293  0.0586 -0.1345
30628W        W46097  18.127  14.326  13.364  0.1943 -0.2605 -0.1140
30629W        W46098   6.338   8.755  14.394  0.2433  0.3595 -0.0719
30630W        W46099   7.463  10.354   2.273  0.1865 -0.1110  0.0674
30631W        W46100  16.912   9.245   1.164  0.0169  0.0790  0.1439
30632W        W46101  11.389  17.336   1.008  0.0284 -0.3006 -0.2186
30633W        W46102   0.557   7.342  11.607  0.0887 -0.1389  0.1317
30634W        W46103  15.742   9.158   0.939 -0.0775  0.0135 -0.1042
30635W        W46104   9.876  11.363  14.892 -0.0544  0.0194 -0.3959
30636W        W46105  18.206   5.947   1.581  0.1640 -0.1059 -0.2746
30637W        W46106  13.193  14.510  12.041  0.0638 -0.2128 -0.1733
30638W        W46107  18.783  16.517   0.430  0.1933 -0.1021 -0.1494
30639W        W46108   8.265   0.806   4.544  0.3894 -0.0708 -0.1787
30640W        W46109  10.240   2.522  12.596 -0.2834 -0.1388 -0.0301
30641W        W46110   4.059  18.324   2.360 -0.0493 -0.2639 -0.2416
30642W        W46111  12.616   7.911   5.177  0.2523 -0.0740 -0.1483
30643W        W46112   7.578  12.533  13.246 -0.0399  0.1474  0.0888
30644W        W46113  13.412  13.653  12.552  0.0680 -0.1489  0.2915
30645W        W46114   1.959   3.634   4.379  0.0568  0.0955  0.1073
30646W        W46115   1.429   5.914   1.795 -0.0164  0.0442  0.2804
30647W        W46116   0.389   8.003  15.520  0.2064 -0.1004  0.2549
30648W        W46117   6.961   3.423  12.617 -0.3100 -0.0192 -0.3895
30649W        W46118  10.687  15.496   4.655 -0.0671 -0.1994  0.5230
30650W        W46119   9.335  12.708  12.834 -0.2074  0.1111 -0.0116
30651W        W46120   7.692   4.387  13.327 -0.1314 -0.0769  0.2016
30652W        W46121   0.330  12.175   3.490  0.3704  0.0491 -0.0740
30653W        W46122  13.905  15.162   1.145  0.3429  0.1242  0.1716
30654W        W46123  13.524  11.645   4.558 -0.0308 -0.0129 -0.0672
30655W        W46124  14.167  18.605   4.024 -0.0405  0.0043  0.1434
30656W        W46125  12.577   3.694  13.164  0.1673  0.4242  0.0872
30657W        W46126  12.449  11.364  14.965  0.0652 -0.1201  0.1199
30658W        W46127  15.713   5.699   5.217 -0.0209 -0.0803 -0.5129
30659W        W46128  16.112   4.938   3.552 -0.1707 -0.1273 -0.1256
30660W        W46129  18.723  18.637  14.158 -0.0625  0.0000  0.0782
30661W        W46130   6.491   0.881   4.841  0.3474  0.0041  0.0918
30662W        W46131   6.955   2.490   4.535  0.1961  0.0843  0.1493
30663W        W46132   5.080  18.538   3.240  0.2076  0.0827 -0.1328
30664W        W46133   2.222   5.263   1.379  0.4661  0.1085 -0.2058
30665W        W46134  15.306   8.227   3.604  0.1651 -0.0529  0.0704
30666W        W46135   2.129  15.208   4.914  0.0644  0.0015 -0.0093
30667W        W46136  13.897   3.474   4.775  0.3631 -0.0379  0.3885
30668W        W46137  14.808  15.113  13.239 -0.2640  0.1146  0.3097
30669W        W46138  11.300   5.967   0.895 -0.0812 -0.0655  0.3829
30670W        W46139   2.854  12.819  10.010 -0.1709  0.1423  0.0238
30671W        W46140   2.771   7.346  13.501  0.0040  0.1556  0.3655
30672W        W46141   9.904  15.854  12.092  0.1755 -0.0214 -0.0372
30673W        W46142   6.009  16.593  12.168  0.1102 -0.0897  0.0206
30674W        W46143  11.770  10.617   4.953  0.2024 -0.3682 -0.1089
30675W        W46144   5.034  14.880  11.940  0.0801  0.1010 -0.1252
30676W        W46145   6.121  15.313  12.777  0.2400 -0.0070  0.1067
30677W        W46146  10.222  16.710  14.585 -0.0808  0.2741 -0.0927
30678W        W46147   7.849  10.162   1.468 -0.2385 -0.0172 -0.1010
30679W        W46148  11.310  15.090   5.449 -0.0294  0.1961 -0.2499
30680W        W46149  13.836   1.546  14.962  0.2665  0.1160 -0.1020
30681W        W46150  11.831   7.373   2.492  0.2381  0.4799 -0.1589
30682W        W46151   2.633  10.496  15.657 -0.3312 -0.0307 -0.1490
30683W        W46152   4.835   4.688  12.378  0.3990 -0.0498  0.3593
30684W        W46153   5.613   2.591   0.965  0.0429  0.0997 -0.2420
30685W        W46154  14.596   7.446  11.025 -0.2170  0.0951  0.0950
30686W        W46155   0.031  13.135   0.659 -0.0560 -0.3161 -0.1988
30687W        W46156  14.888  12.392   1.506 -0.2157 -0.2156  0.0261
30688W        W46157   5.041   9.353  13.603  0.2381  0.0616  0.3653
30689W        W46158   2.882   8.053   0.311 -0.0112  0.0176 -0.2645
30690W        W46159  16.162  13.137   4.339  0.3558 -0.2318 -0.0569
30691W        W46160  13.086  17.232   4.667 -0.0520 -0.1847  0.0471
30692W        W46161   4.707  18.602   5.349  0.1708  0.0411  0.0184
30693W        W46162   1.812   4.715   0.559  0.1525 -0.1282  0.0278
30694W        W46163   4.681   0.911   3.915  0.1670  0.1611 -0.3329
30695W        W46164  10.129  12.185  14.557 -0.1467  0.2913  0.0810
30696W        W46165  18.087  14.600   3.246 -0.1870 -0.2766 -0.0917
30697W        W46166  11.378  13.212  14.383  0.3114 -0.0849 -0.0484
30698W        W46167  15.274   0.432   4.987 -0.3005 -0.2083  0.1116
30699W        W46168  17.238   8.526   1.837  0.0442  0.2217 -0.0280
30700W        W46169  17.146   1.770  13.693 -0.0189  0.1275  0.0235
30701W        W46170   1.734   5.733  13.012  0.1937  0.1939  0.1382
30702W        W46171  13.740  14.767   4.015  0.2061 -0.1697 -0.1541
30703W        W46172   8.166  11.505  14.156 -0.2234  0.2931  0.0132
30704W        W46173  13.072  14.047   1.543 -0.1872  0.4077 -0.1439
30705W        W46174   9.034  15.575  15.100 -0.0784 -0.1704 -0.2164
30706W        W46175   4.495  15.649  11.334  0.0994  0.0758  0.0084
30707W        W46176   5.223   9.504  11.504  0.2703 -0.0208  0.0367
30708W        W46177   5.849  17.967   1.503  0.1298 -0.0640 -0.1407
30709W        W46178   8.566  13.425  12.609  0.2728  0.1238 -0.2039
30710W        W46179   8.288   4.340   3.267 -0.0624  0.0425 -0.0373
30711W        W46180   0.658   4.713   1.200 -0.0656  0.3325  0.0578
30712W        W46181  14.376   0.919  12.720  0.0545 -0.1156 -0.1529
30713W        W46182  16.792  14.795   5.122 -0.1810 -0.0675 -0.0606
30714W        W46183  18.594  14.858   5.621 -0.0883  0.1711 -0.0589
30715W        W46184   0.100   2.759   5.001 -0.0362 -0.0698  0.3671
30716W        W46185   2.644   8.343   2.419  0.2145  0.2125  0.0980
30717W        W46186   8.799   3.244   0.261 -0.3874 -0.2589 -0.1430
30718W        W46187  15.716  16.756   5.417  0.0460  0.0666 -0.1729
30719W        W46188  16.096   5.774   2.895  0.0605 -0.0690 -0.3199
30720W        W46189  11.568  12.742   3.281  0.1609  0.2564  0.2286
30721W        W46190  13.896  16.247   2.771 -0.0192  0.0412 -0.1310
30722W        W46191  14.857  10.545  11.395 -0.0224 -0.0103 -0.1037
30723W        W46192  14.430   1.111  11.267  0.1180  0.1636  0.1396
30724W        W46193   5.206   3.612  15.128 -0.1023  0.3104  0.0290
30725W        W46194   0.380  17.474   0.884  0.1180 -0.3649 -0.1048
30726W        W46195  11.558  10.446   2.592 -0.0898  0.1627  0.2460
30727W        W46196  14.506   0.325   4.793  0.0674  0.0054 -0.0683
30728W        W46197  13.755   4.944  13.017  0.1036 -0.1601 -0.4660
30729W        W46198   7.914   2.411   5.573 -0.0600 -0.0749  0.1662
30730W        W46199   3.293  13.656   0.139  0.1141  0.1602  0.0233
30731W        W46200   3.939   2.397  12.531 -0.0715  0.1111 -0.2773
30732W        W46201   7.382  12.580   2.465 -0.2662 -0.4120 -0.2367
30733W        W46202  14.648   4.655   4.073 -0.0754  0.1432 -0.3016
30734W        W46203   4.476   0.150   1.419 -0.0021 -0.2079  0.3012
30735W        W46204  12.627   9.246   0.993  0.0534 -0.0876  0.1212
30736W        W46205   7.691   8.313  12.291  0.0929  0.4558 -0.0057
30737W        W46206   8.689  12.398  15.022 -0.1481  0.1385 -0.0909
30738W        W46207   1.322   0.926  12.203 -0.2025 -0.2768 -0.1039
30739W        W46208   4.542   2.693   0.719 -0.1376 -0.0211 -0.0782
30740W        W46209   0.369   2.783   1.392  0.0953 -0.1954 -0.1987
30741W        W46210   6.867   8.892  11.582  0.1433 -0.2251  0.1922
30742W        W46211  12.225   5.367   4.411 -0.1454  0.0266 -0.2897
30743W        W46212   7.156  12.216   3.155 -0.3312  0.5423 -0.2305
30744W        W46213  12.929   9.089  14.117 -0.1934  0.4045  0.3420
30745W        W46214   8.772   5.082   3.059  0.0893  0.1449 -0.1546
30746W        W46215  16.134  13.759   4.161 -0.0685  0.1257  0.1418
30747W        W46216   0.299  15.710   2.824  0.2329  0.0886  0.1706
30748W        W46217   8.362  16.386  15.048 -0.1579  0.1079  0.0378
30749W        W46218   4.753   2.437  12.039  0.0190  0.2188  0.1151
30750W        W46219  14.325  17.768   4.612 -0.1778  0.1415 -0.0151
30751W        W46220   1.551   6.467  11.563 -0.0942  0.3065  0.5588
30752W        W46221  18.591  14.637   1.056  0.1955 -0.1222  0.1514
30753W        W46222  16.912  10.888   2.923 -0.0538  0.2028 -0.0985
30754W        W46223  14.165   3.901   4.717  0.0989 -0.1354 -0.0150
30755W        W46224  17.566   3.319  12.666 -0.2725  0.0507 -0.1048
30756W        W46225  10.287   9.441  13.634 -0.2792  0.2489 -0.1838
30757W        W46226  18.042   6.365   0.502  0.1459  0.0027 -0.3224
30758W        W46227  10.237  11.747  13.061 -0.0302 -0.2187  0.0406
30759W        W46228  15.959   7.035  13.442  0.0760 -0.1225  0.1906
30760W        W46229  16.637  15.030   3.048 -0.1244  0.0776 -0.0997
30761W        W46230   5.340   5.258  11.815  0.1680  0.0284 -0.0720
30762W        W46231   7.933   4.410   1.913  0.0343 -0.0947  0.1999
30763W        W46232   8.371  13.467  12.156  0.0448  0.2706  0.1314
30764W        W46233   7.639   0.654   4.452 -0.0949 -0.0785 -0.0308
30765W        W46234  10.426   0.602  15.285 -0.0306 -0.0527  0.0160
30766W        W46235   6.707   0.413  14.928  0.1557  0.2021 -0.0294
30767W        W46236  11.882  10.354  10.930 -0.1519 -0.0328 -0.1318
30768W        W46237   1.217  17.099  11.717 -0.1243 -0.1628 -0.2974
30769W        W46238   3.892  15.350   5.860  0.0233  0.0358 -0.2299
30770W        W46239   1.699   8.058  11.012 -0.0217 -0.1241  0.5157
30771W        W46240   9.992  16.204   4.992 -0.0317 -0.0820 -0.2378
30772W        W46241   4.374   4.048   3.464  0.0966 -0.1343  0.2091
30773W        W46242   1.672  13.017  14.711 -0.4195  0.1063  0.0131
30774W        W46243   6.236  15.383   1.163  0.1905  0.0128 -0.1199
30775W        W46244  14.384   4.233   0.772 -0.1519 -0.2556  0.0855
30776W        W46245   7.421   0.103  14.848 -0.0291 -0.0333 -0.0425
30777W        W46246   7.075   9.959   3.449 -0.0436 -0.3094 -0.2236
30778W        W46247  18.070  12.319  14.386  0.1078  0.1288 -0.0489
30779W        W46248  16.800  16.808  12.394  0.1228  0.0345 -0.3955
30780W        W46249   2.682   3.188  14.907 -0.0252 -0.0450 -0.0672
30781W        W46250  17.283   3.514   4.370 -0.0776  0.1950  0.2302
30782W        W46251   3.440   4.970   1.592  0.0644  0.4625  0.0256
30783W        W46252  16.638   9.298  12.236 -0.1657  0.0855  0.4732
30784W        W46253   8.261  11.935  14.339 -0.1408 -0.2268 -0.4999
30785W        W46254  12.121   3.641   4.474  0.2363  0.0160  0.0693
30786W        W46255   2.781   1.349   3.104  0.0912 -0.0656 -0.4014
30787W        W46256   8.674   2.680   1.637  0.0862 -0.0200 -0.0585
30788W        W46257   2.791  10.690   4.921  0.0396  0.0494  0.1629
30789W        W46258   6.719  14.532  13.112  0.0571 -0.1284 -0.1363
30790W        W46259   0.734  16.543   1.042 -0.2003 -0.0581  0.0145
30791W        W46260  10.637  12.016   3.801 -0.2392 -0.2025 -0.0601
30792W        W46261  18.657  12.120  13.775  0.0215  0.0701 -0.1776
30793W        W46262   5.781   5.381  11.152 -0.1986  0.1760  0.3689
30794W        W46263  15.180   5.760   2.853  0.1216  0.1928 -0.0674
30795W        W46264  11.993  11.358  15.455  0.3320  0.0948 -0.5471
30796W        W46265   9.954   7.918   1.783  0.0113 -0.3882 -0.0341
30797W        W46266   9.983  12.197  13.151  0.1977  0.2142 -0.1533
30798W        W46267  17.219  11.620   0.007  0.1445  0.2538  0.2193
30799W        W46268   5.386  14.165   3.723 -0.1760 -0.1094  0.3028
30800W        W46269   5.576   0.697   3.460  0.3040  0.2557  0.1801
30801W        W46270   7.287   5.312   1.503  0.1694  0.2921 -0.0677
30802W        W46271   1.586   0.264   3.837 -0.0442  0.0315 -0.0930
30803W        W46272  12.651  12.998   4.799  0.1279 -0.0085 -0.0499
30804W        W46273  14.019   9.154  11.982  0.4189  0.0765 -0.4344
30805W        W46274   4.368  16.608   3.057 -0.4292 -0.2339 -0.1162
30806W        W46275  10.317  12.886  13.855  0.0201  0.0392  0.3322
30807W        W46276  12.559   9.090  11.891 -0.1703 -0.0340  0.0138
30808W        W46277   6.213   6.898   4.257 -0.4137 -0.2313 -0.0363
30809W        W46278  13.525  14.219  13.741  0.2984 -0.1096  0.2914
30810W        W46279  12.757  15.975   2.808  0.1197 -0.0173 -0.0573
30811W        W46280  12.165  11.297  11.855 -0.0550 -0.1279 -0.2101
30812W        W46281   4.516  14.908   5.245  0.3011 -0.0022  0.2334
30813W        W46282   3.700   8.411  10.653 -0.2681  0.0102  0.2116
30814W        W46283   6.939  18.690  14.928  0.0170 -0.2193 -0.2165
30815W        W46284  13.461   1.781   1.485  0.1852  0.1844 -0.1673
30816W        W46285  15.477   7.324   0.522  0.2410 -0.3518 -0.0040
30817W        W46286   8.097   9.480  13.261  0.0589 -0.0839 -0.1377
30818W        W46287   5.567   7.970  15.528 -0.1587 -0.0248  0.3093
30819W        W46288   2.670  17.308   0.568  0.1775 -0.0606  0.0049
30820W        W46289   2.256  18.550   3.933 -0.0491  0.0144  0.3283
30821W        W46290   7.983   5.812   2.592  0.0579  0.2173 -0.1397
30822W        W46291   8.169  16.316   3.373 -0.0680  0.1887  0.2258
30823W        W46292   4.224   6.583   0.687 -0.0930  0.0123 -0.1055
30824W        W46293  14.345   7.772  12.326 -0.1245  0.0430 -0.0236
30825W        W46294   3.541   5.410  14.822 -0.4011 -0.3502 -0.2303
30826W        W46295  18.647   7.718   9.519 -0.0862  0.0126  0.1074
30827W        W46296   6.949  10.292   0.196  0.4063  0.2884  0.0212
30828W        W46297  16.186   0.603  14.875 -0.1298 -0.2460 -0.1341
30829W        W46298  11.969   9.357   3.473 -0.2911 -0.1906 -0.3698
30830W        W46299  12.593   7.509   0.346  0.2787 -0.0736  0.1740
30831W        W46300   4.711   7.996  11.684  0.2726 -0.1865  0.1561
30832W        W46301  13.434  11.103   2.660 -0.0396 -0.0069 -0.2269
30833W        W46302   8.746  13.789   1.443 -0.1939 -0.1522 -0.0567
30834W        W46303  17.180  13.051   2.944  0.0786 -0.1046  0.0268
30835W        W46304   9.694  14.531  15.031 -0.1708 -0.0562  0.1214
30836W        W46305   4.145  18.530   4.391  0.1753 -0.0617 -0.2207
30837W        W46306  17.944   1.713  12.452  0.0144 -0.1218  0.0993
30838W        W46307  14.173   7.724   2.437  0.0916 -0.2948 -0.3931
30839W        W46308  17.084  16.540  13.235 -0.1444  0.1765  0.0219
30840W        W46309  15.046   9.276  11.845  0.0383  0.3815  0.1136
30841W        W46310   2.698   2.546  11.748  0.0842  0.1869 -0.2443
30842W        W46311   6.002   0.973   3.306 -0.2680  0.2393 -0.3066
30843W        W46312  18.429  11.317  11.758  0.0268  0.0257 -0.0528
30844W        W46313  14.218  17.098   2.116 -0.1560 -0.0869 -0.2477
30845W        W46314   7.246   5.259  11.857  0.0423  0.0516  0.1060
30846W        W46315  10.285   1.486  13.484  0.2094  0.1862  0.0576
30847W        W46316   1.027   4.564   2.777 -0.1589  0.0405 -0.1065
30848W        W46317   4.028   5.822   3.304 -0.1057 -0.4243 -0.0252
30849W        W46318  16.902   9.724   3.344  0.1163 -0.0187  0.0822
30850W        W46319   2.704   7.055   1.573 -0.0521 -0.0104 -0.0090
30851W        W46320  17.709  14.656   1.569 -0.0596  0.2958 -0.2791
30852W        W46321  12.087   4.353  13.209 -0.4798  0.0692 -0.1137
30853W        W46322   7.345   7.427   4.589  0.1384 -0.2262 -0.0762
30854W        W46323   2.310   4.970  14.493 -0.0134  0.1255 -0.1439
30855W        W46324   4.012   9.889   3.156 -0.2525  0.1107  0.0808
30856W        W46325   2.251  11.410   5.195 -0.0279 -0.0396 -0.0102
30857W        W46326   6.518  12.831   9.247  0.0298 -0.0795 -0.0422
30858W        W46327   1.591  16.902  14.336  0.1579 -0.0153  0.3233
30859W        W46328   4.758  17.414  10.330  0.3775 -0.0960  0.2779
30860W        W46329   2.461   3.636  14.296  0.0687  0.2316  0.1258
30861W        W46330  17.276  15.379   4.895 -0.1312 -0.1319 -0.1598
30862W        W46331  12.000   8.766  12.479 -0.0941 -0.3120 -0.1184
30863W        W46332  14.421  14.071  14.630  0.1048  0.2335 -0.2775
30864W        W46333  11.252   4.741   0.661  0.1701  0.0358 -0.0438
30865W        W46334  11.954  13.904   5.997 -0.1870 -0.3665 -0.2962
30866W        W46335  15.924  13.341   5.057  0.0703  0.0593 -0.4053
30867W        W46336  15.931   5.847  13.356 -0.0153 -0.1919  0.0953
30868W        W46337   7.636   9.238  13.142  0.0354 -0.0170  0.1843
30869W        W46338  16.754   8.505   1.529 -0.0069 -0.0415  0.1538
30870W        W46339   8.919   7.308  10.318 -0.1201  0.0982 -0.3208
30871W        W46340  15.649   0.203  14.551 -0.0704 -0.3254  0.1341
30872W        W46341   0.867   9.401  14.271 -0.2901 -0.2574 -0.0491
30873W        W46342   1.151  18.276  12.719 -0.2060 -0.1338 -0.0500
30874W        W46343  18.338   5.571  13.346 -0.2489  0.3381 -0.1214
30875W        W46344  13.866   8.739  13.813  0.1233 -0.3572 -0.2061
30876W        W46345  13.788  17.047   4.895 -0.2597 -0.0983 -0.2794
30877W        W46346  17.776   4.089   2.575  0.2915 -0.0876 -0.0107
30878W        W46347  17.226   8.362  11.536 -0.1403  0.1064 -0.1458
30879W        W46348  11.561  11.255   3.757  0.0329  0.2723 -0.0787
30880W        W46349  14.499  13.584   5.179  0.0727  0.1690 -0.5517
30881W        W46350   4.585  14.057   1.765  0.1605 -0.1098 -0.1026
30882W        W46351  11.072   4.853   0.123 -0.0913 -0.1518 -0.0330
30883W        W46352   0.132   8.677  14.739 -0.2401 -0.3061  0.2413
30884W        W46353  16.624   1.655  12.828 -0.0042 -0.0352  0.3854
30885W        W46354  18.579  18.075   1.249  0.0341 -0.1688  0.1570
30886W        W46355  13.699   8.956   3.182  0.0973  0.3335 -0.0599
30887W        W46356   1.514  15.882   5.031 -0.4998  0.1353  0.0736
30888W        W46357   6.419  16.518  11.890  0.0037 -0.0010 -0.2893
30889W        W46358  13.116  10.412  12.917  0.1228  0.0752  0.2653
30890W        W46359  17.073  16.621   4.394  0.0546 -0.0240  0.1087
30891W        W46360   5.870  15.161   3.450  0.0715 -0.0924  0.0956
30892W        W46361  17.522   6.872   3.432  0.2989  0.0642  0.0863
30893W        W46362   1.667   0.969   6.024 -0.2866  0.0636 -0.0272
30894W        W46363  18.344   6.887  13.205 -0.4508  0.2733 -0.0394
30895W        W46364  17.126  11.451  14.565 -0.1013 -0.0892  0.3993
30896W        W46365  16.024   6.829   2.067 -0.1366  0.0952 -0.1250
30897W        W46366   4.961  15.135   4.311  0.0491 -0.0063 -0.1594
30898W        W46367   3.178   4.205  12.258  0.2637 -0.3043 -0.2707
30899W        W46368  13.592   1.795  10.537 -0.0066 -0.0075 -0.1229
30900W        W46369  16.378  11.623   4.792 -0.2347 -0.1885 -0.0308
30901W        W46370   1.674   5.743  11.971 -0.0952 -0.1038  0.0167
30902W        W46371   4.733   2.456  12.626  0.0101  0.1363 -0.3181
30903W        W46372  16.180   2.841   0.605  0.4727  0.1375  0.1808
30904W        W46373  17.572   2.089  13.626  0.1278  0.0020 -0.2971
30905W        W46374  13.685   4.452  12.917  0.0291  0.3768  0.0104
30906W        W46375   3.104   1.327  12.743  0.0801 -0.0142 -0.2645
30907W        W46376  15.452  17.112  14.592 -0.0588 -0.1360 -0.0569
30908W        W46377  18.137  15.124   3.877  0.0220 -0.2603  0.0651
30909W        W46378  14.120   4.170  14.439  0.0226  0.4475 -0.1588
30910W        W46379   7.438   2.316  11.822 -0.2829 -0.0069  0.1697
30911W        W46380  12.062  17.467  13.634 -0.1225  0.2346 -0.1068
30912W        W46381   3.174   4.638   1.303 -0.0465  0.0090  0.1341
30913W        W46382  13.279  11.722  12.576 -0.0180 -0.1509  0.4574
30914W        W46383   1.298   1.272   6.098  0.1013  0.1190 -0.0209
30915W        W46384  16.114  18.393   4.516  0.1342  0.0491  0.0305
30916W        W46385   3.471   2.473  12.700  0.0595 -0.0519 -0.2449
30917W        W46386   5.176   8.734   5.662 -0.0967 -0.0277 -0.1221
30918W        W46387   9.117   5.429   5.454 -0.1287  0.4589 -0.1494
30919W        W46388   7.564   6.791   3.803  0.0248  0.0454 -0.0527
30920W        W46389  12.685   5.761   4.805  0.0370  0.0412  0.3278
30921W        W46390   5.769   6.817  13.337 -0.1561 -0.3010 -0.3322
30922W        W46391  11.836   0.995  10.845 -0.3697  0.1002 -0.0799
30923W        W46392  11.053   4.365   3.883 -0.2954  0.3152  0.0913
30924W        W46393  18.169  13.592  15.671  0.0228  0.1895 -0.1148
30925W        W46394   8.332   3.673  14.281 -0.0032  0.2702  0.0946
30926W        W46395   0.457  16.291  11.544  0.1850  0.3648  0.0382
30927W        W46396   8.487  12.164   2.607 -0.3216 -0.0478  0.1402
30928W        W46397  13.508   3.186   1.147 -0.1675  0.1920 -0.2045
30929W        W46398   7.079   8.726  10.354  0.3121  0.0619 -0.2971
30930W        W46399  16.181   6.643  13.589  0.1614  0.0814  0.0174
30931W        W46400  13.252   5.359   5.049  0.1357  0.0344  0.3235
30932W        W46401   7.530   1.134  14.933 -0.0832 -0.0838  0.0130
30933W        W46402   9.506   2.534  11.764  0.0464  0.1304 -0.1375
30934W        W46403  18.711   4.446   3.752 -0.2248  0.1311 -0.0458
30935W        W46404   4.499  10.403   3.407  0.2362 -0.0281  0.0848
30936W        W46405  12.808   5.450  13.517  0.1310 -0.2428 -0.1203
30937W        W46406  12.812  13.712   3.954  0.2641 -0.0964 -0.0487
30938W        W46407   8.149   7.350  11.366 -0.0734  0.1875 -0.1352
30939W        W46408   8.859  17.838   3.129  0.1199  0.0234  0.1007
30940W        W46409  11.390  18.217  12.602  0.1234 -0.2885  0.0484
30941W        W46410  18.239   9.448  15.511  0.2887  0.2151  0.1994
30942W        W46411  12.015  15.495  12.315 -0.0388 -0.0062 -0.4895
30943W        W46412  10.252  13.939   1.628  0.1750 -0.1666  0.0161
30944W        W46413   8.046   7.983  14.873  0.3732 -0.2705 -0.0168
30945W        W46414   6.895  12.340   2.363 -0.2981  0.0235 -0.0856
30946W        W46415   2.925   9.697   9.911 -0.0081 -0.1086  0.0317
30947W        W46416  18.770  13.252  11.322 -0.2740 -0.4921 -0.3820
30948W        W46417  13.923   7.982   1.573  0.3050  0.1399  0.2358
30949W        W46418  15.948  15.406  13.169  0.0561  0.2206 -0.0518
30950W        W46419   9.462   5.945  15.261 -0.0628  0.3174 -0.1020
30951W        W46420  18.064   5.390  13.794 -0.0257 -0.1964  0.0591
30952W        W46421  11.100  17.877  11.807 -0.1478 -0.2226 -0.3363
30953W        W46422   5.448   5.326   1.552  0.5532 -0.0888  0.1646
30954W        W46423   1.526  11.081   0.310  0.0524 -0.1610 -0.3262
30955W        W46424  16.766  17.503   0.323 -0.1912 -0.3010  0.0384
30956W        W46425   2.158   8.995   2.820  0.1795 -0.2329 -0.2431
30957W        W46426   7.460   6.975  14.517  0.0260  0.1093 -0.0675
30958W        W46427   7.499   6.672  10.522 -0.1002  0.1150 -0.0211
30959W        W46428   2.823   4.442   6.006  0.2097 -0.1198  0.3915
30960W        W46429   9.758   1.347   1.190 -0.2703  0.0669 -0.2312
30961W        W46430  16.113   5.053  11.286 -0.1094 -0.0705  0.0108
30962W        W46431   4.212   8.615   5.765  0.1347  0.1237 -0.1629
30963W        W46432   7.762   6.456   1.826  0.1665 -0.1756  0.1923
30964W        W46433   0.403  16.254   0.587 -0.1138  0.1820  0.0238
30965W        W46434   4.835   0.174  13.036  0.1861  0.1971 -0.3837
30966W        W46435  15.921  18.077  14.933 -0.0522 -0.1857  0.0211
30967W        W46436  15.023   1.703   0.222 -0.2013 -0.2986 -0.0598
30968W        W46437   1.366   3.571  10.192  0.0049  0.0698 -0.0614
30969W        W46438   9.186   7.133   4.941 -0.0597 -0.0736 -0.1108
30970W        W46439   4.028   4.476  12.047  0.0670  0.0042  0.0654
30971W        W46440  17.650  16.693  12.346  0.0918 -0.1401 -0.0536
30972W        W46441  11.636   3.855  11.207 -0.1113 -0.2422 -0.1111
30973W        W46442   6.712   1.232   3.773 -0.2847 -0.0989  0.0339
30974W        W46443   0.483   3.220   5.196  0.0893  0.3030 -0.2704
30975W        W46444   9.311   1.558   3.025 -0.3136 -0.0198 -0.0655
30976W        W46445  11.060  15.416  13.664  0.2270 -0.2682  0.3067
30977W        W46446   9.359   8.859   9.846  0.1218 -0.0167  0.0668
30978W        W46447   4.344  14.400  14.544  0.2358 -0.2178  0.1497
30979W        W46448   5.819   1.286  14.105 -0.0460 -0.1196  0.2015
30980W        W46449   1.931   5.887   0.691  0.0169  0.2612 -0.1345
30981W        W46450  15.612   4.992   1.879  0.1029  0.1907 -0.0996
30982W        W46451  16.238   0.672   2.177  0.1841  0.0196 -0.2532
30983W        W46452   6.870   3.219  13.665  0.1380  0.0626  0.1186
30984W        W46453   7.873  13.187   1.039 -0.1356 -0.0287 -0.1312
30985W        W46454   7.338  15.775   1.260  0.0575 -0.1933 -0.2854
30986W        W46455  16.015   3.457  12.620 -0.0777  0.0773 -0.0051
30987W        W46456   1.898   2.366   3.315  0.0998 -0.2103 -0.0654
30988W        W46457   2.822  13.194   4.879  0.0201 -0.0358 -0.1226
30989W        W46458   9.949   5.970  15.023 -0.0663 -0.1661 -0.0610
30990W        W46459   8.985   5.808   5.221  0.0108 -0.2364 -0.1058
30991W        W46460   2.835  17.491  15.287  0.0036 -0.0313 -0.2565
30992W        W46461  18.562  10.080   1.812  0.0106 -0.0862  0.2458
30993W        W46462  13.812   9.791  12.290 -0.2790  0.1606  0.3429
30994W        W46463   3.819  15.915   3.107  0.1727  0.2453 -0.3419
30995W        W46464   5.587  17.544  14.974 -0.0341  0.0459  0.0243
30996W        W46465  13.908   5.145  12.242  0.0878 -0.2735  0.0159
30997W        W46466   1.824   9.856   4.746 -0.0776  0.3472 -0.3597
30998W        W46467   3.649   0.155  12.308  0.0102  0.1370  0.0461
30999W        W46468  17.963   5.642   3.466 -0.0162  0.1841  0.1521
31000W        W46469   1.514  12.997   3.649 -0.1926  0.0576  0.0534
31001W        W46470  12.173   7.294   1.480 -0.0508  0.0278 -0.1688
31002W        W46471   7.171   2.383  15.372 -0.3908 -0.1040 -0.2024
31003W        W46472  10.454   3.217  11.332  0.2192  0.0573  0.1379
31004W        W46473  10.578   4.251  14.209 -0.2011  0.2332  0.2468
31005W        W46474   6.719  10.206  12.004  0.0899 -0.1630  0.1243
31006W        W46475   2.057   7.034   0.999  0.2111 -0.0398  0.1232
31007W        W46476  16.059  18.176  12.010  0.2275  0.0914  0.0081
31008W        W46477   3.216   5.783   3.773 -0.1350  0.0639  0.1520
31009W        W46478  14.936   8.730  14.071  0.0657 -0.2811  0.1400
31010W        W46479  14.024   1.752   2.551 -0.3775  0.2393  0.0059
31011W        W46480  10.565   5.338   3.708 -0.1131  0.0627  0.2147
31012W        W46481  17.022   4.719  14.710 -0.1632 -0.0101  0.1101
31013W        W46482   7.743  10.946   3.171  0.1700  0.0944 -0.2377
31014W        W46483   4.698   5.786   3.644 -0.2792  0.1030  0.0088
31015W        W46484  18.130  12.305  10.780  0.1322 -0.0821  0.0117
31016W        W46485  16.227   5.895   4.268 -0.0795  0.0839  0.1386
31017W        W46486  15.896   1.921   4.537 -0.5563 -0.0577  0.0358
31018W        W46487   1.814   4.797  14.357  0.0136  0.3719  0.0191
31019W        W46488  13.621  15.978   1.514 -0.1822  0.1255 -0.2210
31020W        W46489   0.960   1.634  13.859  0.2711  0.2382 -0.1712
31021W        W46490  16.931   2.098   4.793  0.0354  0.0708 -0.2781
31022W        W46491   7.637  12.761  13.669 -0.2898 -0.0448  0.0378
31023W        W46492   6.443   6.887   2.116 -0.0955 -0.2901 -0.2458
31024W        W46493   3.701   6.818   1.398 -0.6509 -0.0276  0.2561
31025W        W46494   3.498   2.475  14.349  0.0262  0.1858 -0.0557
31026W        W46495  12.445  15.932   3.214 -0.1272  0.0547  0.0279
31027W        W46496   0.891   3.722  11.418 -0.2506 -0.4037 -0.0513
31028W        W46497  17.935  17.251   5.208 -0.1018  0.1584  0.5034
31029W        W46498   5.742   3.722   1.709  0.2260  0.2104 -0.4856
31030W        W46499   8.265   2.262   1.268  0.3611 -0.0824  0.1044
31031W        W46500   5.180   6.126   4.533 -0.0300 -0.2510  0.3160
31032W        W46501  15.892   9.207   1.472  0.3242  0.1068  0.1255
31033W        W46502   1.654   7.619  13.169  0.3703 -0.0294 -0.0588
31034W        W46503   7.365  11.843  15.547 -0.0762  0.2168  0.0534
31035W        W46504  11.000  11.186   2.815 -0.2719  0.1513  0.1746
31036W        W46505   3.852  13.452  14.917 -0.0780  0.1611 -0.1588
31037W        W46506   5.516   8.333   4.626  0.1363  0.3017  0.0009
31038W        W46507  15.466  10.449   2.646  0.2299 -0.2575  0.0900
31039W        W46508   6.441  14.686   0.694 -0.0546  0.2001 -0.3025
31040W        W46509  11.009   1.478  12.090  0.1367 -0.0468 -0.3774
31041W        W46510  16.426  10.047  12.492  0.0445  0.0349 -0.1109
31042W        W46511   1.108  18.191  13.629 -0.1417  0.1006 -0.0439
31043W        W46512  15.774  17.404   4.764  0.1581  0.0906 -0.0110
31044W        W46513  11.197  10.793   4.502 -0.2814 -0.0525  0.0146
31045W        W46514  13.858   7.947  14.742 -0.0401  0.0548  0.0324
31046W        W46515   3.162  16.402   4.576 -0.0176  0.1254 -0.0764
31047W        W46516   2.219   7.335   9.327 -0.1005 -0.2887  0.3393
31048W        W46517  10.738  18.709  12.897  0.0958  0.1126  0.2200
31049W        W46518   7.743  16.854   0.312 -0.0748  0.2232 -0.2448
31050W        W46519  13.465  10.511  15.506  0.4681  0.0755 -0.0536
31051W        W46520   6.428  16.128   0.431  0.0156 -0.0318 -0.0189
31052W        W46521   0.553  11.940   3.895 -0.1404 -0.1652  0.1175
31053W        W46522   9.694  16.355  12.839 -0.2001  0.1176  0.1541
31054W        W46523   1.250   9.963  12.522 -0.1237 -0.0321  0.0630
31055W        W46524   4.899  13.713   1.356 -0.3576 -0.0135  0.0706
31056W        W46525  16.427  16.807  13.812 -0.0889  0.0597  0.1465
31057W        W46526  17.237   7.689  15.328  0.0423 -0.2923  0.0769
31058W        W46527   1.832   6.302  15.668  0.1280  0.2649 -0.0352
31059W        W46528  11.955   5.163   4.720  0.1515  0.0439  0.1462
31060W        W46529  13.892   2.143  12.710 -0.1539 -0.4144 -0.0636
31061W        W46530  10.018   2.299   5.019 -0.2365  0.0894  0.1536
31062W        W46531   1.474   1.793  13.946  0.0263 -0.0157 -0.0582
31063W        W46532  13.172  12.830   3.843  0.0107 -0.1514  0.0069
31064W        W46533   5.862  14.634   3.137 -0.1333  0.2849  0.1427
31065W        W46534   2.048   3.862  14.370  0.2507 -0.0895 -0.3715
31066W        W46535  12.136   3.461  12.280 -0.0546 -0.3631  0.1215
31067W        W46536  13.431   1.919   1.013 -0.0479 -0.0783 -0.0424
31068W        W46537   5.007   1.365   5.092 -0.1295  0.3458 -0.2371
31069W        W46538   6.824   0.685   5.510  0.0354  0.2284 -0.4314
31070W        W46539   5.237  15.545  10.714  0.0369  0.1682  0.1087
31071W        W46540   1.803  14.828   5.468 -0.3556  0.0873  0.2883
31072W        W46541   8.422  18.295  13.349  0.0938 -0.2034  0.0055
31073W        W46542  18.042   8.646  11.258  0.1100  0.1986  0.0510
31074W        W46543   8.960   2.537   2.492 -0.0354 -0.2562 -0.2887
31075W        W46544  17.933   4.453  14.581  0.2600  0.1202 -0.2359
31076W        W46545   8.072   8.374  14.552  0.4153 -0.0761  0.0828
31077W        W46546   4.986   6.927   1.784 -0.3174 -0.0002 -0.1805
31078W        W46547  13.235  18.009  15.455 -0.1248 -0.1380  0.0472
31079W        W46548  18.145   6.534  12.447 -0.3868 -0.1008 -0.4196
31080W        W46549   8.930  15.823  14.337 -0.1464 -0.3542 -0.3065
31081W        W46550  12.568  10.932  11.053 -0.0404 -0.1667  0.2145
31082W        W46551  14.181   7.239   0.471 -0.1806  0.2445 -0.0355
31083W        W46552  16.300  16.152   1.850 -0.1268  0.2645  0.0995
31084W        W46553   5.436  16.354   4.044 -0.0691  0.1152  0.1184
31085W        W46554   7.176   4.851   3.166  0.0176 -0.1937 -0.0137
31086W        W46555  18.579   6.193   3.876  0.0905  0.0766  0.1904
31087W        W46556   3.114   0.303   1.573  0.1167 -0.1255 -0.0809
31088W        W46557   7.437   1.427   3.304  0.1846 -0.0434 -0.0006
31089W        W46558   9.216   0.607  14.903 -0.1689  0.0026 -0.0255
31090W        W46559   7.457  10.413  14.037  0.5256  0.1545 -0.0845
31091W        W46560   0.849   4.209  12.095  0.0699 -0.0075  0.0263
31092W        W46561   8.952  18.647   2.547  0.0513  0.0749 -0.1854
31093W        W46562  17.409   2.833   5.336 -0.1266 -0.1947 -0.0681
31094W        W46563  14.449  18.520  10.006  0.4005 -0.2112 -0.2178
31095W        W46564   0.777  10.480  12.753 -0.2531 -0.1022  0.3978
31096W        W46565   7.737  14.131   3.657 -0.3545  0.0461 -0.2447
31097W        W46566   7.197  16.335   0.303 -0.0416  0.0163 -0.2821
31098W        W46567  16.777  10.660   9.890 -0.0688  0.2481  0.2548
31099W        W46568  14.796  12.331   0.026  0.2625 -0.2463 -0.1867
31100W        W46569  13.473   8.477  12.524 -0.1348 -0.0868  0.2562
31101W        W46570  14.102   7.071  11.820 -0.3425 -0.1353  0.0890
31102W        W46571   4.606  14.177  13.616 -0.1998  0.0985 -0.2331
31103W        W46572   8.782   4.893   3.993 -0.0303 -0.3356 -0.1381
31104W        W46573   5.146   6.039   0.547  0.0406 -0.1635  0.0975
31105W        W46574   8.614   6.711   3.826 -0.2448 -0.3570 -0.1180
31106W        W46575   0.970  12.877   2.000  0.0906  0.2498 -0.0669
31107W        W46576  12.490   1.174  13.755 -0.0247  0.0655 -0.0314
31108W        W46577   3.126   8.535  12.697  0.1668  0.1627 -0.1055
31109W        W46578  15.636  15.353   4.522  0.0437  0.0171 -0.1579
31110W        W46579   2.955   0.208   6.198  0.0090  0.1091  0.0413
31111W        W46580   5.487   3.594  14.716 -0.2567  0.1023 -0.0521
31112W        W46581  11.277   5.016   1.147  0.0906 -0.1736 -0.3347
31113W        W46582   0.829  18.229   4.435  0.1837  0.0436 -0.1879
31114W        W46583   6.541   3.437  14.614 -0.0479 -0.2083  0.0623
31115W        W46584  14.625   8.245  13.940  0.1114 -0.1907 -0.1952
31116W        W46585   4.697  15.406   5.204 -0.0769  0.3276  0.0469
31117W        W46586   6.822  13.350  11.933  0.0481 -0.2359  0.1463
31118W        W46587   1.386  11.899   2.813  0.0161  0.2369  0.1375
31119W        W46588  10.313   3.887  12.089 -0.1029 -0.2918 -0.4016
31120W        W46589  15.977  15.031   4.398 -0.0431 -0.3342  0.1235
31121W        W46590   5.731  18.230   5.989 -0.1177 -0.0217  0.1843
31122W        W46591   8.898  12.164   5.349  0.2931  0.1091 -0.3591
31123W        W46592   1.461   7.955  12.390 -0.0328 -0.1283  0.0483
31124W        W46593  11.458  13.969  13.835  0.0399  0.1136  0.0422
31125W        W46594   0.154   9.766   3.030 -0.2336  0.0909 -0.1924
31126W        W46595   3.896  13.015   0.439  0.0261  0.1123  0.1054
31127W        W46596   1.999  13.401  12.819  0.0233 -0.4732 -0.0311
31128W        W46597   8.621   0.954  12.743  0.3560  0.0417 -0.0490
31129W        W46598   5.161   1.310  15.159  0.3239  0.2135 -0.0083
31130W        W46599   8.864   9.590  15.054 -0.0362  0.1771  0.1213
31131W        W46600  14.617   3.763   1.738  0.1911  0.1169  0.0648
31132W        W46601  14.725   5.289  12.701 -0.0860  0.0954 -0.1468
31133W        W46602   8.872  13.362   1.195 -0.1071 -0.0618  0.0459
31134W        W46603   7.617   4.570   4.299  0.4211 -0.5556  0.0032
31135W        W46604  13.970   8.528  14.368  0.2540 -0.1922 -0.2650
31136W        W46605  18.405   7.711  11.744 -0.0805 -0.0638 -0.3572
31137W        W46606   3.136  13.118   2.167  0.0341  0.2332  0.1838
31138W        W46607  13.310  16.307  14.167  0.1802 -0.1780  0.0292
31139W        W46608   6.806   4.618   4.308  0.0879 -0.1781 -0.0155
31140W        W46609   3.450  12.936   2.513 -0.0316  0.0405 -0.0006
31141W        W46610   0.017   1.265  10.822 -0.1542 -0.0200  0.0073
31142W        W46611   0.624   9.247  12.733  0.2709  0.0867 -0.0861
31143W        W46612   8.238  16.677  12.007  0.1675  0.0417  0.0009
31144W        W46613   6.125   4.280  12.375  0.2023 -0.0150  0.0303
31145W        W46614   3.570   3.932  10.850 -0.1800  0.2680  0.2279
31146W        W46615   8.300  17.433   0.311 -0.1317  0.2026  0.0517
31147W        W46616  14.189  15.580   0.814 -0.0845  0.1319 -0.1385
31148W        W46617   7.200   4.453   2.359  0.0435  0.1654 -0.2172
31149W        W46618   8.432   9.617   0.148  0.4507 -0.2827  0.1877
31150W        W46619   4.381   1.756  15.266  0.0527 -0.0490  0.0779
31151W        W46620  11.776   0.325  15.120  0.2315  0.1428 -0.0478
31152W        W46621  11.271  18.587  14.685  0.1628 -0.4315 -0.1957
31153W        W46622   3.835   6.636  11.459 -0.1166  0.1695  0.1807
31154W        W46623  12.278   0.694  15.336 -0.2219 -0.0547  0.1301
31155W        W46624  11.530  16.831  12.837 -0.0764  0.0510 -0.2571
31156W        W46625   2.631  16.091   2.491 -0.2370  0.0600  0.0422
31157W        W46626   9.646   4.235  10.238  0.2818  0.0871  0.3581
31158W        W46627   3.182   2.693   5.901  0.2459 -0.2876  0.0311
31159W        W46628  10.322   8.641   1.499  0.0532  0.2650 -0.0304
31160W        W46629   5.854   3.936   2.210 -0.2646  0.0179  0.0011
31161W        W46630  15.820   6.948  12.183 -0.2093 -0.1468 -0.2335
31162W        W46631   1.570   2.320   2.874  0.1078 -0.0674  0.0553
31163W        W46632   3.087   8.228   4.954 -0.0019 -0.1199  0.0424
31164W        W46633   7.388   6.742   1.528 -0.2361 -0.3792 -0.0145
31165W        W46634  14.014   0.683   0.793 -0.2879 -0.1269  0.1685
31166W        W46635   1.922   8.043  12.314 -0.1250  0.1016 -0.2806
31167W        W46636   1.921  10.276   2.365 -0.2156 -0.0435  0.0141
31168W        W46637   3.735  18.388  12.283  0.1213 -0.2758  0.0600
31169W        W46638  12.038  11.605  14.331 -0.0932 -0.2643  0.1130
31170W        W46639  17.527  16.763   4.862  0.1178  0.1179  0.1758
31171W        W46640  16.263   1.279   1.984  0.0902  0.1602  0.0740
31172W        W46641  17.949  10.543  11.161  0.1465 -0.2618 -0.1188
31173W        W46642  14.017   5.732  11.650  0.1430  0.1276 -0.0857
31174W        W46643  12.920  11.040   4.022  0.1002  0.1537 -0.2357
31175W        W46644   0.937   4.822   0.729  0.1360  0.1532 -0.2520
31176W        W46645   3.426  12.944   5.745  0.1315 -0.1779  0.0756
31177W        W46646  15.983   8.354   2.328 -0.0404  0.1852 -0.1762
31178W        W46647   3.159  12.249  12.719  0.1733 -0.1889 -0.1482
31179W        W46648   6.711   3.287   0.756  0.2055  0.1827 -0.0608
31180W        W46649   8.087   9.513   0.520  0.0551  0.0316  0.2859
31181W        W46650  13.832   1.118   4.685 -0.1086  0.0744  0.1719
31182W        W46651  11.965  14.219  13.777 -0.2671  0.3040  0.0633
31183W        W46652  13.539  18.657   4.915 -0.3366  0.1743  0.0754
31184W        W46653  18.313   8.458   3.866 -0.0874  0.2876  0.1293
31185W        W46654  16.195   1.956  13.650 -0.0141 -0.2172 -0.1530
31186W        W46655   0.672   6.456   4.548  0.2322  0.1010  0.1257
31187W        W46656   6.529  16.184  12.887  0.0999  0.2441 -0.0285
31188W        W46657  13.764  15.519  12.668  0.1577 -0.0709 -0.0959
31189W        W46658  11.792   3.568  12.648  0.0532 -0.5751 -0.1198
31190W        W46659  17.794  18.151   2.790  0.3696  0.2397  0.1446
31191W        W46660  17.665   9.793  14.681  0.2585 -0.2353  0.1211
31192W        W46661   0.036   1.277   0.449 -0.1724 -0.0378  0.1305
31193W        W46662   3.158   5.091  11.238  0.3102 -0.1088 -0.2620
31194W        W46663   5.557   3.590  12.458 -0.4153 -0.1519 -0.0895
31195W        W46664  15.596  13.962   4.626 -0.4198 -0.2576 -0.1389
31196W        W46665   4.668   9.060  13.694  0.1472 -0.0116  0.1061
31197W        W46666  10.624  16.965   3.555  0.2121 -0.0921  0.0976
31198W        W46667  10.381  18.289   3.530  0.2573 -0.0425  0.0210
31199W        W46668  16.265  12.212  10.313  0.0380 -0.1387  0.0831
31200W        W46669  16.469   8.918   3.409 -0.0568 -0.3230 -0.1331
31201W        W46670   9.350   6.669  11.170  0.2699  0.0285 -0.0552
31202W        W46671  11.952  18.204  12.792 -0.1107  0.2243  0.1475
31203W        W46672   8.853   3.636   0.681  0.2001 -0.0693 -0.0716
31204W        W46673   8.840  18.117   0.888  0.2633 -0.3085 -0.1307
31205W        W46674   6.763   6.054  12.808 -0.1567 -0.1983  0.0637
31206W        W46675   6.079   6.917   2.495  0.0173 -0.1438 -0.0645
31207W        W46676   7.569  13.654   4.440  0.2765  0.1305 -0.0910
31208W        W46677  18.040  11.033  15.360 -0.2351  0.3959  0.0832
31209W        W46678   4.065  12.861  11.674 -0.1101  0.1715  0.0343
31210W        W46679   0.848  10.602   3.813  0.3185  0.1767 -0.0548
31211W        W46680   4.485   1.029   1.077  0.1968 -0.2640  0.2110
31212W        W46681  11.606  10.725  14.470  0.1505 -0.2545 -0.2022
31213W        W46682   1.786  13.874   4.533 -0.3757 -0.2077  0.2058
31214W        W46683  14.906   1.493   5.185  0.0140  0.1442  0.0575
31215W        W46684   2.500   6.454  14.492 -0.0002  0.0169 -0.2379
31216W        W46685   7.417  13.047   1.944 -0.0555 -0.0873 -0.3488
31217W        W46686   3.365   2.453   5.375  0.0557 -0.0028 -0.3054
31218W        W46687   9.079  15.951   1.033  0.1299  0.0296 -0.1211
31219W        W46688  11.652   6.539  11.738  0.0430  0.1932  0.0308
31220W        W46689  18.165   6.725  11.715 -0.2080  0.2016 -0.1965
31221W        W46690   2.454  10.391  14.265  0.4785  0.1726 -0.0065
31222W        W46691   7.616   2.863   4.502 -0.2237 -0.0552 -0.1016
31223W        W46692   0.840   7.813  12.456  0.1031  0.1227  0.1924
31224W        W46693  18.578  18.684   1.815 -0.2504  0.0256  0.2830
31225W        W46694   8.600   2.042   4.105  0.1409  0.0759  0.2021
31226W        W46695   0.682   0.016   3.783  0.1409  0.2841  0.0467
31227W        W46696  11.543  13.824   5.045  0.2242  0.1245 -0.3155
31228W        W46697  18.175   4.957   1.169  0.0664  0.2862  0.1771
31229W        W46698   5.113   4.536  13.298  0.0962 -0.0956 -0.1083
31230W        W46699  10.148  17.180   9.545  0.1564 -0.2092  0.1236
31231W        W46700   7.503  10.822  10.262 -0.2533  0.0989  0.3757
31232W        W46701   2.935   0.104   1.974 -0.0195 -0.2308 -0.2027
31233W        W46702   4.944  13.929  11.839 -0.4647  0.0593 -0.1731
31234W        W46703  10.451   2.573   3.723  0.4783 -0.3671  0.4119
31235W        W46704  18.338  13.919   1.125  0.1422 -0.1914 -0.0263
31236W        W46705   6.626  17.389  10.884 -0.2515  0.1744 -0.2659
31237W        W46706  15.156   5.040   0.724 -0.0409 -0.0613 -0.1202
31238W        W46707   2.824  18.711  12.152  0.0637 -0.2241 -0.0225
31239W        W46708  10.946   9.244   1.790 -0.0686  0.3055  0.1652
31240W        W46709   8.694   8.223  13.223 -0.0426 -0.2745 -0.0285
31241W        W46710  10.211   8.693  14.396  0.2321  0.4119  0.2276
31242W        W46711  15.732   8.018  13.489  0.0978  0.2095  0.2945
31243W        W46712   3.481   9.159  13.064  0.0048  0.2069 -0.1152
31244W        W46713   8.529  13.522   5.062  0.0662 -0.0792 -0.0452
31245W        W46714  17.694   9.902  13.828  0.3340 -0.2136 -0.0074
31246W        W46715   3.139  16.799   1.220 -0.2690 -0.0785  0.2674
31247W        W46716  11.691   2.075   3.512  0.0400  0.0808  0.1224
31248W        W46717   5.670   3.125  14.972 -0.0415  0.2324  0.0623
31249W        W46718   2.518  14.528   4.501  0.4237  0.1407 -0.0769
31250W        W46719  13.392   7.904   2.639  0.0062  0.3138  0.2104
31251W        W46720  11.459  18.059  13.236  0.1680 -0.2610 -0.1163
31252W        W46721  17.724   2.185   2.357 -0.0310  0.3286 -0.2265
31253W        W46722  10.326   3.075  14.466  0.1943 -0.1790  0.2647
31254W        W46723   7.458   6.777  15.479 -0.0697 -0.0064 -0.1545
31255W        W46724   9.650   0.247  10.395  0.0941 -0.1852 -0.0748
31256W        W46725  15.793  14.651   0.860 -0.2961  0.0097  0.0251
31257W        W46726   1.942   6.048  14.689 -0.0749 -0.0945 -0.0397
31258W        W46727  16.205   4.995   4.051  0.3620  0.1708 -0.0723
31259W        W46728  14.436  11.586   3.680  0.0014  0.2385 -0.0657
31260W        W46729   8.293   3.855  14.731  0.4013  0.0673  0.1745
31261W        W46730  18.746  10.420   3.384  0.0060 -0.2775 -0.1480
31262W        W46731   7.172  18.427  13.695 -0.0195 -0.2390 -0.3099
31263W        W46732   5.003   9.716  10.584  0.0576 -0.3301  0.1179
31264W        W46733  17.531  14.919  11.474 -0.4394 -0.0894  0.2889
31265W        W46734   1.123   9.140   4.646  0.0404 -0.1695 -0.0394
31266W        W46735  12.202  15.857  11.753 -0.0352  0.0393  0.0075
31267W        W46736   0.660   9.972   2.107  0.0307  0.7521  0.0868
31268W        W46737  16.816   6.479   1.340  0.0095  0.6432 -0.0681
31269W        W46738   0.411  13.354   1.021  0.2647 -0.0741 -0.0053
31270W        W46739   8.405  14.165   4.090  0.2448 -0.2134  0.0948
31271W        W46740   9.213  13.444  10.948 -0.0536 -0.0053  0.1707
31272W        W46741  13.256   5.317  13.730  0.0997 -0.1076 -0.0607
31273W        W46742   7.967  14.163  15.450 -0.1088  0.1205  0.2007
31274W        W46743  13.283   6.395   0.239  0.0187 -0.0867  0.2995
31275W        W46744  17.488  12.818  12.415  0.0799  0.0893  0.1736
31276W        W46745  17.372   1.915  14.878  0.0710  0.1780 -0.0169
31277W        W46746  14.321  15.269  11.438  0.0470 -0.0135  0.0110
31278W        W46747  16.661  10.372   3.286  0.1234 -0.1278  0.0724
31279W        W46748   0.311   8.751  11.082 -0.1256  0.0595  0.0106
31280W        W46749   4.631  15.297   2.628 -0.0484 -0.0357 -0.2533
31281W        W46750  12.436   9.233  11.368 -0.3540 -0.1862 -0.0948
31282W        W46751  10.829   1.945   1.558  0.0596  0.0084 -0.1606
31283W        W46752   4.946  15.716  14.745  0.1077  0.0280 -0.0409
31284W        W46753   2.607  15.606  13.658  0.1910 -0.0786  0.2362
31285W        W46754   0.199  15.394   4.891  0.2002 -0.0676  0.0762
31286W        W46755  16.214   5.935   0.061 -0.2398 -0.0660  0.1282
31287W        W46756  15.985  12.439  14.840 -0.0853  0.1634 -0.2601
31288W        W46757  11.891   0.407   2.592  0.0341 -0.2796 -0.1854
31289W        W46758  11.858   9.215   5.326  0.3525 -0.0883  0.0741
31290W        W46759  13.694  14.029   1.504  0.0265  0.1430  0.2234
31291W        W46760  13.983  17.648   4.295 -0.2007 -0.3040  0.1552
31292W        W46761   7.391   8.359   0.801  0.2982  0.0313  0.0406
31293W        W46762   1.738  11.483  15.223 -0.0486  0.2676 -0.5219
31294W        W46763   7.471   2.511   1.871  0.1172 -0.1036  0.2314
31295W        W46764   7.486  18.010   0.920  0.0107  0.1498 -0.2957
31296W        W46765   2.715   7.587   1.728 -0.0023 -0.0780 -0.3065
31297W        W46766   8.491   0.156   3.324 -0.1421 -0.2209  0.2112
31298W        W46767   2.875  15.661  15.278  0.2402  0.0858  0.0239
31299W        W46768   6.593   1.572   2.876  0.2029 -0.1281 -0.0946
31300W        W46769   0.885   5.570  12.873 -0.2082 -0.2757 -0.1260
31301W        W46770  11.842  12.914  14.372 -0.3216  0.0759 -0.1198
31302W        W46771  17.484   5.431  13.548  0.2596 -0.0865 -0.0300
31303W        W46772  10.957  15.554  11.181 -0.1587 -0.2148  0.2953
31304W        W46773  12.257   1.323  13.268  0.3561 -0.0604  0.0673
31305W        W46774  15.702   3.602   0.881  0.0411 -0.0388 -0.1625
31306W        W46775   4.816   9.287  14.915 -0.2146 -0.2121 -0.1420
31307W        W46776  15.882   1.643   5.545 -0.1199 -0.0149 -0.2144
31308W        W46777  10.568  10.687  14.382 -0.0060 -0.0395 -0.2054
31309W        W46778  10.864   2.306   3.853 -0.2833 -0.1046  0.2061
31310W        W46779  12.629  12.839   1.524  0.0317  0.0711  0.3611
31311W        W46780  12.117   7.863  12.129 -0.0675 -0.1485  0.0989
31312W        W46781  15.174  15.200   0.513  0.0226 -0.0254 -0.2112
31313W        W46782  13.372   2.009  12.616 -0.0610  0.0046 -0.1349
31314W        W46783   2.628   0.854   3.153  0.1464 -0.1897  0.0788
31315W        W46784  17.379   0.510   2.103 -0.0079 -0.0344 -0.0247
31316W        W46785   9.451   7.837   2.019  0.2997  0.0580 -0.1258
31317W        W46786   2.248   5.294   4.407  0.2008 -0.3645 -0.0175
31318W        W46787   6.742   4.574  15.520 -0.1273 -0.3614  0.0169
31319W        W46788  12.390  17.295   2.470  0.1242  0.0094  0.1688
31320W        W46789   7.589   0.967   3.949  0.2601 -0.3270  0.3144
31321W        W46790   0.548  16.498   4.058  0.0134 -0.2189 -0.1083
31322W        W46791  17.735   1.304  12.087  0.2117  0.2441 -0.1381
31323W        W46792  12.702  15.024   5.346  0.0364  0.1366 -0.1522
31324W        W46793   7.524   4.021  12.199  0.1129 -0.0305  0.1688
31325W        W46794   6.586   8.547  15.380 -0.0767  0.1533  0.0267
31326W        W46795   8.904  16.566   2.993  0.0918  0.3730 -0.0996
31327W        W46796   4.403  14.290   0.977  0.1561  0.1211  0.2751
31328W        W46797  10.106  15.222  11.451  0.2917  0.4498 -0.1630
31329W        W46798   9.392   4.487   2.358 -0.1694  0.2370 -0.0967
31330W        W46799   7.992  18.147   0.483  0.1400 -0.2324  0.0259
31331W        W46800   2.223   3.894   1.335 -0.4283 -0.0794  0.0654
31332W        W46801  15.062  10.821   1.977 -0.2355 -0.0525  0.1381
31333W        W46802  13.863   8.986   4.624 -0.0394 -0.3399 -0.4304
31334W        W46803   2.638   8.859  15.490  0.1249  0.0087 -0.0037
31335W        W46804  16.286  15.463   4.232  0.1691 -0.1275  0.0103
31336W        W46805   4.740   8.994   3.676  0.2031  0.2978  0.2206
31337W        W46806   9.867  14.127  15.334 -0.2404  0.1822 -0.2406
31338W        W46807   3.765   6.137  11.459 -0.0261  0.0069 -0.0408
31339W        W46808  16.980  10.490  14.690 -0.1376  0.3307 -0.0635
31340W        W46809   2.045  14.596  15.552  0.0369 -0.0947  0.3146
31341W        W46810   8.753  16.848  11.572  0.0732 -0.1791  0.0561
31342W        W46811   4.999  10.404  15.477  0.2967  0.2510 -0.0321
31343W        W46812   9.677  13.052   1.400 -0.4503  0.1665 -0.2844
31344W        W46813   3.606  12.123  14.947 -0.4154  0.1520 -0.0256
31345W        W46814  18.306   6.015   3.402 -0.3418  0.0584 -0.0954
31346W        W46815   2.705   4.707  15.321  0.0438 -0.2008  0.0628
31347W        W46816  12.133  11.797  12.070 -0.1905  0.1902  0.0898
31348W        W46817  15.187   3.361  11.434 -0.1879  0.0002  0.1025
31349W        W46818   1.204  13.629   1.062  0.0455  0.0830 -0.1249
31350W        W46819   9.528   4.209   4.944  0.1100  0.3775  0.3350
31351W        W46820   0.907  12.648  14.316 -0.0800  0.2391  0.2209
31352W        W46821  16.410  18.319   0.018  0.0981  0.1076  0.1437
31353W        W46822   0.173  18.463  11.236  0.0416 -0.1846 -0.0544
31354W        W46823  16.244  16.489   1.522 -0.0125  0.0780  0.1264
31355W        W46824   4.991   3.800  10.848  0.2343 -0.0038 -0.0475
31356W        W46825   1.791   5.341   3.656  0.1324 -0.0419 -0.1811
31357W        W46826   3.259  17.406  14.988 -0.0649  0.1818 -0.2625
31358W        W46827  13.492  14.026  11.256 -0.2504  0.2261 -0.1585
31359W        W46828   9.542   6.069  12.874 -0.4272  0.2747  0.1259
31360W        W46829  14.089  13.449   0.230  0.2461 -0.0994 -0.1234
31361W        W46830  15.901  15.900   5.151  0.4008 -0.0981 -0.0175
31362W        W46831   7.165   6.724   3.351 -0.0595 -0.0712 -0.0550
31363W        W46832  16.646   3.774   5.721 -0.1169  0.2081  0.2576
31364W        W46833  13.831  16.696   3.399  0.1513  0.2689  0.3104
31365W        W46834  11.853   6.645   1.017  0.1812  0.0494  0.1098
31366W        W46835  16.463   5.951  15.281 -0.0686  0.0286  0.3914
31367W        W46836   0.719  11.366   4.969  0.0321  0.0769 -0.2462
31368W        W46837   3.377  10.679  12.333  0.0418 -0.0183  0.2494
31369W        W46838  18.309   7.433  12.587  0.0985 -0.1525  0.0926
31370W        W46839   6.587  13.996  12.908  0.1052  0.2466 -0.0269
31371W        W46840   4.151   7.173   4.253  0.1167  0.1042  0.0399
31372W        W46841   3.360   6.587   0.282 -0.2896  0.0332  0.2342
31373W        W46842   1.778  18.742  15.669 -0.0289  0.1993  0.0077
31374W        W46843  18.089   0.946  14.887 -0.1098  0.3146 -0.0679
31375W        W46844  15.129  10.754  11.782  0.0783 -0.1534  0.1261
31376W        W46845   3.972  14.894  13.633 -0.3158 -0.0895 -0.0013
31377W        W46846   6.795   4.635  11.278 -0.2466 -0.2602  0.1032
31378W        W46847   3.549  10.951   5.490  0.2082  0.3079 -0.0833
31379W        W46848   2.420   9.965  14.555 -0.2984 -0.1791  0.0184
31380W        W46849  17.521   3.265  13.238 -0.1557 -0.2430  0.1631
31381W        W46850  13.873  12.593   4.524  0.0869  0.1462 -0.0744
31382W        W46851  13.679   4.828   3.064  0.0773 -0.0935 -0.3323
31383W        W46852   3.573  12.673   4.494 -0.1632  0.1226  0.1104
31384W        W46853   9.495  18.036  14.621 -0.0007  0.0343 -0.2477
31385W        W46854   7.021  10.590  13.247  0.1528 -0.1226  0.0536
31386W        W46855  17.359   8.667   3.157 -0.4430  0.0132  0.0720
31387W        W46856   6.965   3.952  10.484 -0.1832 -0.1010 -0.1672
31388W        W46857  11.562  11.589   5.896  0.0987 -0.0591  0.0944
31389W        W46858   6.378   2.293  14.562  0.0387  0.0260  0.2494
31390W        W46859  14.400   6.234   2.835  0.1380  0.0530  0.3270
31391W        W46860   4.154   9.032  15.612 -0.0548 -0.0751  0.0521
31392W        W46861  18.194   5.873   3.896  0.4319  0.4299  0.1376
31393W        W46862   9.769   4.710   4.278 -0.1357 -0.2487  0.3443
31394W        W46863   1.184  14.841  14.870  0.3759 -0.0260  0.1057
31395W        W46864   0.723  12.445  15.002  0.2419  0.1362 -0.0515
31396W        W46865   1.290   2.037   2.452  0.1262  0.0427  0.1691
31397W        W46866  10.202  13.752  12.482 -0.3914 -0.1671 -0.1431
31398W        W46867   7.888  12.976   2.735 -0.0754  0.2265 -0.1387
31399W        W46868   5.184  10.261  14.871  0.1118  0.1040 -0.1722
31400W        W46869   5.874   9.663   1.923 -0.3358 -0.1541 -0.0533
31401W        W46870  17.977   0.629   4.578  0.1618  0.3776 -0.1642
31402W        W46871  11.083  12.002   4.667 -0.3384 -0.4228  0.1922
31403W        W46872   6.365  13.439  11.739 -0.1370  0.3931  0.0341
31404W        W46873  11.467  16.515   2.700 -0.0294 -0.1056 -0.0767
31405W        W46874   9.103   9.480  10.517 -0.0073 -0.4269  0.0114
31406W        W46875  18.318   2.216  12.972  0.1630 -0.2258 -0.0070
31407W        W46876   5.041  12.358   4.123 -0.3710 -0.1610  0.3689
31408W        W46877   7.160   8.890   1.059 -0.1710  0.0953  0.0469
31409W        W46878  14.032   5.180  14.808  0.1016 -0.4054  0.4460
31410W        W46879  18.272   1.958   3.526  0.2001  0.4920  0.0206
31411W        W46880   7.471  16.326  12.119 -0.0109 -0.0348 -0.2862
31412W        W46881   7.879   6.956  14.190  0.2037 -0.0881 -0.3673
31413W        W46882   2.901  13.273  14.399  0.0259  0.2962  0.1119
31414W        W46883   2.655  12.939   3.169  0.0670  0.2479 -0.2133
31415W        W46884  17.250  11.341  13.191  0.1093  0.1000 -0.1951
31416W        W46885   6.490   3.187   0.311 -0.0528  0.0702  0.1121
31417W        W46886   9.464  10.716   4.673 -0.3195 -0.0338 -0.0868
31418W        W46887  16.606  13.574  14.082  0.0581 -0.1006 -0.4021
31419W        W46888   8.827  11.978  11.111  0.0240 -0.2335 -0.0452
31420W        W46889  10.941  17.326   2.478 -0.0579 -0.2346 -0.0963
31421W        W46890   1.744   6.636  11.960 -0.3960 -0.0201  0.1131
31422W        W46891  11.082   7.436  12.425 -0.1043  0.0465  0.1362
31423W        W46892   7.580   7.744  13.898 -0.2398 -0.1998 -0.0176
31424W        W46893   2.760  16.607  12.125 -0.1862  0.0880  0.1295
31425W        W46894   5.062  11.480  15.668 -0.1308 -0.0894 -0.2634
31426W        W46895  18.357   9.092   1.144  0.1826 -0.0307 -0.1214
31427W        W46896   3.667  10.242  14.502  0.1425  0.2912  0.2475
31428W        W46897   2.699   0.979   2.644 -0.1614  0.5340 -0.0360
31429W        W46898   9.756  10.335   0.503  0.2435 -0.1939  0.1005
31430W        W46899  14.613  18.741   2.206 -0.3022  0.1563 -0.1316
31431W        W46900  10.247  17.310  15.617  0.1619  0.3639 -0.2202
31432W        W46901  14.587  15.972   4.673  0.1340 -0.0056 -0.0666
31433W        W46902   7.069   8.384   9.427 -0.1743  0.3363 -0.1795
31434W        W46903   4.414   3.768  13.136  0.1076  0.2181 -0.1543
31435W        W46904   1.968   5.961   1.729  0.0063  0.0999 -0.4109
31436W        W46905   7.661   4.583   1.524 -0.0207 -0.1664  0.0047
31437W        W46906  13.096  11.007  13.637 -0.3602  0.1028 -0.1623
31438W        W46907  11.051  13.066  11.292 -0.0237 -0.0272  0.1552
31439W        W46908   9.631   9.913  10.820 -0.0345  0.1747  0.0210
31440W        W46909   2.544  16.851  13.069 -0.1668 -0.2447  0.3757
31441W        W46910   7.921  10.464  13.217 -0.0149 -0.1313 -0.1634
31442W        W46911   8.201   7.544   3.839  0.3049 -0.1742 -0.0033
31443W        W46912   8.353   0.195   2.872 -0.0050 -0.1765 -0.0119
31444W        W46913   6.239  11.183  14.773 -0.0932 -0.0702 -0.0598
31445W        W46914   9.187  14.533   3.353  0.4979 -0.0827  0.1486
31446W        W46915  14.475   5.445  11.813  0.1107  0.3147 -0.3382
31447W        W46916  13.360   3.663  10.492 -0.3225 -0.0318  0.1062
31448W        W46917   0.418   1.448  11.579 -0.0473  0.1149  0.0248
31449W        W46918   1.963   9.849   3.364 -0.0708 -0.1149 -0.0535
31450W        W46919  10.162  17.725   0.243  0.4163  0.2491  0.2222
31451W        W46920   9.557   0.253  15.324  0.0917  0.0248 -0.3446
31452W        W46921  13.753   2.494   3.930 -0.1658  0.0560 -0.1060
31453W        W46922  17.766   8.749  11.698 -0.0219  0.2212  0.3401
31454W        W46923  11.064   1.705   5.119  0.0732  0.1392  0.1055
31455W        W46924   5.502  16.538   0.390 -0.1615  0.0084  0.0246
31456W        W46925  13.588  10.971   3.482  0.1335 -0.0369 -0.1040
31457W        W46926  14.134   3.671   1.933 -0.0615 -0.2264  0.2971
31458W        W46927  17.185   0.795  12.449 -0.0126 -0.2567  0.1927
31459W        W46928   3.366  16.255  12.798  0.0863  0.2414  0.0631
31460W        W46929  15.370   6.039   3.259  0.0823  0.0434  0.0219
31461W        W46930  13.056  18.159   4.218 -0.3301  0.0962 -0.0110
31462W        W46931  11.984  14.412  15.193  0.2967  0.0391 -0.1204
31463W        W46932  10.679   2.898   2.569  0.0716 -0.2244 -0.2336
31464W        W46933  10.544   3.654  15.163 -0.1579  0.3244  0.2193
31465W        W46934  12.606   4.213  11.885 -0.0029  0.0856  0.1080
31466W        W46935  10.321   8.831  15.302 -0.0819  0.1750  0.3325
31467W        W46936  15.021   5.096  14.274  0.1839 -0.0312  0.0360
31468W        W46937  18.180   2.920  13.731  0.1370  0.0674 -0.0987
31469W        W46938   1.799   0.643  13.943 -0.0808  0.1477  0.1287
31470W        W46939   4.318   2.369  13.786  0.5749 -0.2726 -0.0673
31471W        W46940  13.584   7.044   2.527  0.1949  0.0227 -0.0065
31472W        W46941   3.927   1.082   1.214 -0.2934  0.1440 -0.1298
31473W        W46942   0.879  15.531  15.560  0.1066 -0.3808  0.1971
31474W        W46943  13.169   7.231   4.125  0.3358  0.0154 -0.0074
31475W        W46944  16.788  17.586   2.035  0.0417 -0.1647 -0.2234
31476W        W46945  16.045  10.488   3.978  0.1357  0.0705 -0.0626
31477W        W46946   7.253  12.884   1.402 -0.0487 -0.2337  0.2576
31478W        W46947   2.152   7.380  10.740  0.0768 -0.0309 -0.2334
31479W        W46948   8.192   2.885  11.021 -0.1379  0.1658  0.1649
31480W        W46949  14.669  17.411   3.833 -0.1119 -0.3101  0.1840
31481W        W46950   1.230   1.549  13.120 -0.1035 -0.0863  0.0175
31482W        W46951   2.686   1.170   5.415 -0.0330  0.1060  0.1284
31483W        W46952  13.580   0.678   4.898 -0.3014  0.1058  0.0545
31484W        W46953  13.199   1.640   4.974 -0.1520  0.2601  0.1981
31485W        W46954  18.098   3.721  13.276 -0.2573  0.0260  0.2993
31486W        W46955  13.832  16.710   3.957  0.0673 -0.0519  0.1194
31487W        W46956  16.965   7.923  14.248  0.1040  0.4161 -0.1669
31488W        W46957   7.989   7.879  11.432 -0.2027 -0.1643  0.1262
31489W        W46958   6.213  14.282   3.449 -0.4064 -0.1233  0.1846
31490W        W46959   2.168   3.656   0.240  0.1932  0.2308 -0.0890
31491W        W46960  10.446  14.701  12.975  0.3704  0.1768 -0.2037
31492W        W46961  14.576   6.218   0.068  0.2461 -0.3123 -0.3021
31493W        W46962  12.678  15.530   3.546  0.1103 -0.1805  0.1399
31494W        W46963  14.530   9.161   1.757 -0.3408  0.2414 -0.6153
31495W        W46964   0.865  13.857  13.645  0.2385 -0.1033 -0.1337
31496W        W46965   1.272  15.164   4.841  0.4354  0.2170 -0.1980
31497W        W46966  10.999   3.955   0.135  0.0085 -0.1661  0.0808
31498W        W46967  13.740  12.202  11.423  0.1355  0.0633 -0.1024
31499W        W46968   7.279  10.653   4.451  0.0779 -0.0487  0.2357
31500W        W46969   2.398  14.055   3.629  0.1426 -0.3592 -0.0602
31501W        W46970  12.303  11.933   0.498  0.1574 -0.0397 -0.0323
31502W        W46971   1.230   7.403  10.647 -0.2139 -0.1178  0.2278
31503W        W46972   0.634  15.627   0.414 -0.0302  0.2123  0.4124
31504W        W46973   5.226   5.777   4.169 -0.2290  0.0494 -0.2988
31505W        W46974   7.282   9.546   1.913 -0.0784 -0.1350 -0.1274
31506W        W46975   3.984  13.041   2.173 -0.1830 -0.0075 -0.4381
31507W        W46976  11.565   7.340  14.595  0.2301 -0.1612  0.1499
31508W        W46977  12.775  17.257   0.972  0.0048 -0.2077 -0.0307
31509W        W46978  12.008  16.603  12.719  0.0171 -0.1532 -0.3313
31510W        W46979   8.612  16.937   2.731  0.3376 -0.0765  0.0632
31511W        W46980  10.504   2.729   3.077  0.0712  0.3309  0.2823
31512W        W46981   3.265  13.311   1.236 -0.1229  0.2202 -0.0835
31513W        W46982   4.443   2.024  13.501  0.1524  0.1467  0.0464
31514W        W46983  16.777   1.612  12.276  0.0221  0.1241  0.0157
31515W        W46984  18.637   2.508   1.266  0.1353  0.3172  0.0202
31516W        W46985   8.020   9.601  13.723 -0.2208 -0.0685 -0.3692
31517W        W46986   6.697   9.089   4.748  0.0679 -0.1724 -0.1655
31518W        W46987  15.751   8.937   3.383  0.1335 -0.0557  0.4090
31519W        W46988   3.076  10.168   3.955  0.2332 -0.1639 -0.0184
31520W        W46989  15.975   7.158   2.931 -0.1360  0.2438  0.1249
31521W        W46990   2.236   9.232  11.545 -0.3175  0.2179  0.1955
31522W        W46991   9.479   5.478  11.894  0.3489 -0.0938 -0.0011
31523W        W46992  16.711   2.319  12.289 -0.1025 -0.3609  0.0967
31524W        W46993  12.888   4.524   4.812  0.0069 -0.0417  0.3858
31525W        W46994  15.605   5.158   2.418 -0.3390 -0.0443 -0.1272
31526W        W46995  13.257  13.545   1.451 -0.2059  0.3406 -0.2751
31527W        W46996  14.154   1.610  15.332 -0.1495  0.0860  0.0045
31528W        W46997   4.793   4.186  10.509 -0.0544 -0.1065 -0.1756
31529W        W46998  13.264  10.194   3.549  0.1350 -0.1517  0.0547
31530W        W46999  15.079  16.988   4.774 -0.0296 -0.1827  0.2073
31531W        W47000   3.897   4.450  10.437  0.0118  0.0224  0.1143
31532W        W47001  15.225   1.057   5.409  0.0730 -0.4001  0.1100
31533W        W47002   5.524   7.476   4.409 -0.1231 -0.0224 -0.0458
31534W        W47003   2.209  17.608   2.136  0.3033  0.2005  0.2013
31535W        W47004   4.062   0.599  10.988 -0.1281 -0.0450  0.3200
31536W        W47005  12.631   4.336  13.221  0.0935 -0.0953 -0.0409
31537W        W47006   0.611  11.923   5.144 -0.0441  0.1381  0.0286
31538W        W47007   0.148   3.246   1.202  0.0909  0.3236  0.2071
31539W        W47008  15.643   9.537  15.205  0.1227 -0.0706  0.1115
31540W        W47009  16.439   1.087  10.999  0.0630  0.1129  0.2030
31541W        W47010  10.855  16.320   1.595 -0.2778  0.0356 -0.2852
31542W        W47011  18.308   0.878   3.720  0.0586  0.1562  0.1705
31543W        W47012  14.114  18.357  13.886 -0.0141 -0.1366 -0.0282
31544W        W47013  15.717   6.333  10.764 -0.1595 -0.1886  0.0145
31545W        W47014   3.527   0.705  12.535 -0.1649  0.0529  0.2624
31546W        W47015   4.687  10.879  10.682 -0.0556  0.1243 -0.0243
31547W        W47016   2.011  16.290  12.885 -0.3033 -0.3190  0.2426
31548W        W47017  16.301   3.494   2.539  0.0114  0.0621 -0.0071
31549W        W47018  18.197  13.717   5.003 -0.1176 -0.2052  0.1891
31550W        W47019  10.478   4.290   1.312  0.0444  0.1719 -0.0325
31551W        W47020   0.965   4.841  11.684  0.3776 -0.4099  0.0354
31552W        W47021   7.378  16.710  10.712  0.1951  0.0913 -0.0932
31553W        W47022   5.855  11.021  13.178 -0.1515 -0.3815  0.2516
31554W        W47023  11.773   9.237  10.670  0.0077  0.3161  0.0463
31555W        W47024   3.861   4.811   5.828  0.1361 -0.1703  0.0636
31556W        W47025  15.951   0.285   2.389 -0.6746  0.1648 -0.1763
31557W        W47026  12.093  16.916   1.368 -0.0718  0.1068  0.1484
31558W        W47027   6.700  13.799   5.104  0.1353 -0.3971  0.0600
31559W        W47028  12.092  11.054   4.825  0.3236  0.1808 -0.2317
31560W        W47029  10.180  18.467  13.451  0.2196 -0.0645  0.2027
31561W        W47030  13.514  18.388  11.434 -0.0083  0.1893  0.3385
31562W        W47031   5.067  16.357  13.116  0.5349  0.0736  0.0793
31563W        W47032   6.481   3.206   1.992 -0.5263  0.4753 -0.1513
31564W        W47033   7.225  14.173  12.067 -0.1382  0.0144 -0.4193
31565W        W47034   1.566  17.869  12.275 -0.2554  0.2356  0.3171
31566W        W47035  10.190   3.634  10.938 -0.0175  0.2202 -0.1446
31567W        W47036   9.794   5.896  11.819  0.0236 -0.1492 -0.1291
31568W        W47037  17.468   6.577   4.465  0.1920  0.0141  0.0948
31569W        W47038   5.282   8.499  10.017  0.0431 -0.1919 -0.0323
31570W        W47039  15.939   2.916   5.103  0.3665 -0.2996  0.0078
31571W        W47040   6.108   0.704  11.247  0.3619 -0.2123 -0.1751
31572W        W47041   7.229   3.615  14.143 -0.2577  0.1708  0.2586
31573W        W47042   7.536   2.741  15.119 -0.0634 -0.0936  0.0671
31574W        W47043  14.697  10.081   2.914  0.1193 -0.0975 -0.3103
31575W        W47044  16.111  15.408  12.606 -0.4594 -0.3805 -0.1242
31576W        W47045   7.433  12.893  10.136 -0.0404 -0.0750 -0.3341
31577W        W47046   5.186   3.989  12.531 -0.1072 -0.3208  0.0648
31578W        W47047  18.483   0.666   2.007 -0.1607  0.0487  0.0858
31579W        W47048   7.173   0.517  15.104  0.1189 -0.2468  0.2070
31580W        W47049  15.215  18.048   0.556 -0.0732 -0.2217  0.1294
31581W        W47050  14.208  13.623   3.376  0.1260  0.3460 -0.0835
31582W        W47051   6.558   9.434   1.642 -0.1401 -0.0992  0.2538
31583W        W47052  14.305  11.278   4.128 -0.2798  0.0250  0.0375
31584W        W47053   1.406  11.855  12.167  0.0890  0.1869 -0.0257
31585W        W47054   9.818  17.468  11.523 -0.3580  0.4152  0.3489
31586W        W47055  13.396  15.258  11.198  0.0367 -0.0957  0.6127
31587W        W47056   8.332  16.597  12.784 -0.1801 -0.1723  0.0466
31588W        W47057   3.173   6.878  12.158  0.0714 -0.1465  0.2653
31589W        W47058   6.259   6.647  14.249  0.2165  0.1437  0.1398
31590W        W47059   9.737   4.897  11.906 -0.1229  0.0471  0.3520
31591W        W47060   6.234  16.435   4.160  0.2627  0.0832  0.0665
31592W        W47061  11.482  12.296  11.602  0.0975 -0.1632 -0.0465
31593W        W47062  18.162  13.971  11.744  0.1385 -0.2575  0.2430
31594W        W47063   2.969   7.391   1.300 -0.2354 -0.0890  0.2060
31595W        W47064  18.618   3.996  12.007 -0.1025 -0.0972  0.0461
31596W        W47065   8.583  17.074  11.964  0.0150 -0.0392 -0.1599
31597W        W47066   3.671  15.069  12.973  0.2606 -0.0402  0.0109
31598W        W47067  18.140   9.530   0.786  0.0807 -0.0863  0.4063
31599W        W47068  17.546  11.045  11.184  0.1612  0.0085  0.2304
31600W        W47069   5.607  12.663   2.052 -0.0905 -0.5386 -0.0467
31601W        W47070   3.083   4.526  13.167 -0.1691 -0.0557  0.2043
31602W        W47071  13.143  18.184  10.594 -0.0887  0.0936  0.0625
31603W        W47072   1.332  18.753   0.327 -0.0785 -0.2166 -0.2848
31604W        W47073   8.750  17.713   0.540  0.1122  0.0019 -0.4124
31605W        W47074   9.120  10.684  11.995 -0.0363  0.2769 -0.1274
31606W        W47075  14.469   3.918   1.235  0.1847 -0.0652  0.2120
31607W        W47076  12.571  11.138   5.009  0.1791  0.1740  0.1755
31608W        W47077  11.339   3.458  11.322  0.2898  0.0034 -0.0447
31609W        W47078  14.998  14.471  12.476 -0.0368  0.0671 -0.3714
31610W        W47079  17.292   0.125   4.742 -0.0457 -0.2413  0.3111
31611W        W47080   7.728   2.890   1.516  0.0752  0.2118 -0.2237
31612W        W47081   5.267   0.225   0.192 -0.0132  0.2542  0.1013
31613W        W47082  13.620   7.967   2.105 -0.1637  0.0819  0.3050
31614W        W47083   7.138  11.028  14.733 -0.0310 -0.2660 -0.1891
31615W        W47084  11.340   0.980   4.720  0.1931  0.0280  0.0766
31616W        W47085   7.046   7.822  14.511 -0.0536  0.0264  0.0896
31617W        W47086  16.994  13.149  14.234  0.1683  0.1320  0.0668
31618W        W47087  10.639   6.092  10.043 -0.1589 -0.1369  0.0143
31619W        W47088   2.382   4.372  11.874  0.0453  0.3770 -0.2782
31620W        W47089   5.400  16.061  15.599 -0.0833  0.0891  0.1964
31621W        W47090  17.660   6.363  13.676 -0.1653 -0.0950  0.1252
31622W        W47091   5.290   9.406   4.757 -0.0383  0.0942 -0.0400
31623W        W47092  13.853  16.999   0.606 -0.0188 -0.1506 -0.1683
31624W        W47093  18.182  14.532  12.914 -0.0395  0.1652 -0.1954
31625W        W47094  16.569   7.069   4.994  0.0400  0.3348 -0.0527
31626W        W47095   9.234   7.430  12.539 -0.1456 -0.0068 -0.1648
31627W        W47096  14.285  14.048   3.726  0.1551  0.2704  0.1938
31628W        W47097   1.691  18.464  14.781 -0.0276  0.0117 -0.2254
31629W        W47098  17.971   5.772   1.999 -0.0162  0.1047  0.3394
31630W        W47099   3.325  12.026  11.414  0.2466 -0.0646 -0.0105
31631W        W47100   9.712   8.940   0.990 -0.1179  0.1383  0.0260
31632W        W47101   1.583   1.952  11.916 -0.2814 -0.3532 -0.0784
31633W        W47102   4.274  17.415   1.479  0.2001 -0.2304 -0.1636
31634W        W47103  10.163  17.349   2.719 -0.2097 -0.2192 -0.3026
31635W        W47104   6.220  14.917  14.637  0.1447  0.1211 -0.1094
31636W        W47105  11.201   1.038   9.558 -0.1054 -0.0241 -0.4073
31637W        W47106  12.659   5.794  11.591  0.1726  0.0627  0.0971
31638W        W47107  10.791   6.659   0.774 -0.0992  0.1048 -0.1888
31639W        W47108  12.740  10.604   5.468 -0.0960  0.1516  0.1972
31640W        W47109   1.241  15.181   2.881  0.3600  0.2143 -0.2492
31641W        W47110   1.492   7.750   2.320 -0.2686  0.0544  0.3502
31642W        W47111  16.894  15.918   2.503  0.1123 -0.2324  0.1153
31643W        W47112  13.101   7.880  14.396  0.2397 -0.4887 -0.3470
31644W        W47113   1.207   6.548  11.983 -0.0422 -0.0889 -0.4010
31645W        W47114   1.144   1.198   9.840  0.0495 -0.3379 -0.0135
31646W        W47115   1.409   0.951  13.954  0.3460  0.2178  0.0172
31647W        W47116   1.921   1.202   0.835  0.0484 -0.0180 -0.0026
31648W        W47117   0.583  18.758  12.137  0.2005 -0.4902 -0.1471
31649W        W47118  11.413   7.903  14.733 -0.0001  0.3265 -0.2792
31650W        W47119  14.365   4.210  12.717  0.0826 -0.1559  0.2101
31651W        W47120   9.581  11.554   5.524  0.2045 -0.4765  0.0186
31652W        W47121   3.155  18.006  11.892 -0.0812  0.2413 -0.0188
31653W        W47122   6.002   4.230  10.102  0.0553 -0.1288  0.0426
31654W        W47123   2.627  16.822   4.796  0.1938  0.1111 -0.1589
31655W        W47124   9.510   3.682   2.730  0.0559 -0.0797  0.0008
31656W        W47125   9.113   6.980   2.076 -0.1846 -0.0954 -0.3002
31657W        W47126   9.563  16.364   3.136  0.2930  0.3288 -0.0181
31658W        W47127  15.455   1.675   3.348  0.4362  0.0533 -0.3316
31659W        W47128  11.105  16.601  10.550 -0.3105  0.1906 -0.1274
31660W        W47129   7.851   8.317   1.008 -0.1331  0.3054  0.0923
31661W        W47130   4.657   6.642   2.355  0.6362 -0.2147 -0.0938
31662W        W47131   5.435  15.832   1.332  0.2974 -0.1847  0.0803
31663W        W47132   1.106  16.194   4.314 -0.0035  0.0050  0.1923
31664W        W47133  16.176   3.415  10.904  0.1874  0.1922 -0.1826
31665W        W47134   9.598  11.207   1.724 -0.0713 -0.0482  0.0824
31666W        W47135   4.811   2.725   3.764  0.1473 -0.1284 -0.2493
31667W        W47136   0.620  11.080  11.394 -0.1611  0.0504 -0.3486
31668W        W47137  12.251   6.873   5.290  0.1936  0.0532  0.2061
31669W        W47138  18.104  16.630   2.341 -0.1257 -0.2576  0.0293
31670W        W47139   5.031  16.178   2.573  0.3428 -0.0276  0.1963
31671W        W47140   1.628  12.132   5.142 -0.0372  0.0366  0.0328
31672W        W47141   9.505   7.927  14.384 -0.0886  0.1927 -0.0783
31673W        W47142  14.903  16.498   6.040 -0.0838 -0.0585 -0.0254
31674W        W47143  17.119  18.483   5.087 -0.0325 -0.4040 -0.3671
31675W        W47144   4.001   2.663   0.638 -0.1132  0.3500  0.0919
31676W        W47145  14.038  13.432  12.465 -0.1235 -0.0159 -0.0520
31677W        W47146  10.504   2.047  12.784 -0.1095 -0.0763  0.1199
31678W        W47147  16.112   4.233  10.265  0.0465 -0.0528 -0.4275
31679W        W47148  10.782   8.092   4.968  0.1386  0.1275 -0.0813
31680W        W47149   6.410  15.354   3.369 -0.2040  0.2443  0.1494
31681W        W47150   6.602  17.594  14.079  0.1101  0.3779 -0.0467
31682W        W47151   7.225   7.328   3.765 -0.0915 -0.2747  0.0226
31683W        W47152  12.360   5.117  12.768 -0.0159 -0.2200  0.2899
31684W        W47153  11.575  10.774   1.097  0.0024  0.3076 -0.1402
31685W        W47154   8.536  12.818  13.354  0.1669 -0.0230 -0.1388
31686W        W47155   6.337   2.911   0.780 -0.0627  0.1614 -0.0875
31687W        W47156  12.660   7.148   3.923 -0.1901  0.2405  0.1172
31688W        W47157   4.228   8.927  14.550  0.1228 -0.3087  0.1828
31689W        W47158   2.242  12.070   2.819  0.0149  0.0201 -0.1372
31690W        W47159  12.398  14.640  14.671  0.0004 -0.0918 -0.0628
31691W        W47160   4.502   8.241   0.651  0.0276 -0.2122 -0.2440
31692W        W47161   0.261  15.504   3.291  0.0911 -0.1628 -0.2569
31693W        W47162  13.549   4.321   1.942  0.0735  0.0109  0.1655
31694W        W47163  12.770   3.097   3.122  0.0653  0.1222  0.0414
31695W        W47164   4.915  16.415   3.733  0.2185  0.0025  0.2144
31696W        W47165  12.476   3.366  10.620 -0.1856  0.0689  0.0939
31697W        W47166   2.437  10.529   0.462  0.2130  0.2353  0.1833
31698W        W47167  15.444   4.734  11.386 -0.0193  0.1400 -0.3106
31699W        W47168  12.551   6.218  11.176  0.1419  0.1321 -0.0974
31700W        W47169  13.181  18.306  11.049 -0.1605 -0.1648  0.3249
31701W        W47170  18.313   7.706  15.173 -0.2355 -0.0724  0.4538
31702W        W47171   2.706   3.300   3.136  0.1243 -0.1032  0.3717
31703W        W47172  10.821   6.151   4.343  0.0737 -0.2456  0.2272
31704W        W47173  15.082  10.638   2.930 -0.0435 -0.2839  0.4142
31705W        W47174  17.939  12.380  13.378  0.4435 -0.0796  0.1965
31706W        W47175   4.910  12.231   1.669  0.0293 -0.0329 -0.2312
31707W        W47176   4.121   5.846  11.897  0.0585 -0.4692  0.0319
31708W        W47177   6.293  11.030   4.925 -0.0014 -0.2595 -0.3441
31709W        W47178  15.223   2.370  15.179  0.1243 -0.1692  0.0227
31710W        W47179   6.331   9.417  15.051  0.2483  0.1876 -0.0706
31711W        W47180   3.008   2.203   1.857  0.0203 -0.0419  0.0118
31712W        W47181   6.588  11.443   3.981  0.0463 -0.0312  0.1023
31713W        W47182  14.255  15.613  12.724  0.1869 -0.1171  0.1624
31714W        W47183   2.808  14.231  12.107  0.2866 -0.0561  0.0601
31715W        W47184   4.054   4.400   4.904  0.1866  0.1120 -0.1760
31716W        W47185   8.991  17.656  11.183 -0.3024  0.2261 -0.2985
31717W        W47186  14.831   3.777   2.470  0.2425 -0.2483  0.0270
31718W        W47187  18.440  12.317   1.636 -0.0857  0.2095  0.2424
31719W        W47188   1.013   4.570   2.224 -0.0507  0.0413  0.1572
31720W        W47189   0.349   9.550  13.137  0.0445 -0.2385  0.0400
31721W        W47190  17.431   8.982  15.330 -0.0452 -0.1177  0.1156
31722W        W47191   7.338   4.260  11.720  0.0389  0.0011  0.1760
31723W        W47192   3.641  16.374   4.964 -0.0723  0.1513  0.2216
31724W        W47193   0.407   3.942   2.805 -0.2693  0.3396  0.0388
31725W        W47194  14.949  16.162  10.830 -0.0713  0.2413  0.0038
31726W        W47195   2.518   1.363  15.452  0.0095 -0.0595  0.1371
31727W        W47196   5.470   6.880   1.689 -0.1240  0.2065 -0.1401
31728W        W47197  12.274   3.374  15.006 -0.0430 -0.3434 -0.0662
31729W        W47198   9.088  10.961   3.553  0.0478  0.2536  0.0437
31730W        W47199   8.158   8.367   4.429  0.1306 -0.1927 -0.2327
31731W        W47200   2.953  15.069  15.371 -0.1401  0.0427  0.1705
31732W        W47201  10.273   9.578   0.920 -0.0424  0.0099  0.0353
31733W        W47202  10.696  15.677  10.362  0.0564 -0.0866  0.0364
31734W        W47203  16.140   0.301   0.498  0.2744  0.0480 -0.0860
31735W        W47204   7.258   1.318  10.394 -0.2505 -0.2195 -0.0071
31736W        W47205  17.412   7.569  14.357  0.3166  0.1891  0.2873
31737W        W47206   9.074  17.770   4.035  0.0517 -0.1092  0.1097
31738W        W47207  18.455   8.600   0.841  0.0662 -0.0486  0.1932
31739W        W47208   6.418   0.145  13.449  0.3725 -0.0990  0.2851
31740W        W47209   9.795  14.897  10.813 -0.1997  0.4202 -0.0260
31741W        W47210  17.458  18.154   0.419  0.1640 -0.0394  0.1094
31742W        W47211   9.831   8.075  10.976  0.1771 -0.0692 -0.1633
31743W        W47212   3.838  11.707   5.002 -0.0536 -0.0799 -0.0483
31744W        W47213   4.540  13.323   2.980  0.0238 -0.0313  0.1188
31745W        W47214   1.449   5.036   3.826  0.1002 -0.0132 -0.2463
31746W        W47215   5.146  17.606  13.358  0.2091 -0.0682  0.0522
31747W        W47216   5.777   1.396   3.127 -0.0461 -0.1244  0.0052
31748W        W47217   9.841  10.124  14.349 -0.2005 -0.2631 -0.2033
31749W        W47218  13.817   2.882  11.498 -0.0573  0.3544  0.1195
31750W        W47219  15.494  15.218   3.538  0.0289  0.4102 -0.2228
31751W        W47220   9.517  14.907   5.021 -0.3500  0.0947 -0.1155
31752W        W47221  18.167  17.705   2.159  0.0426  0.0446 -0.1383
31753W        W47222  14.425   9.432   3.680  0.1723 -0.0301 -0.1499
31754W        W47223  12.603  14.038   1.323  0.2838  0.2488  0.0426
31755W        W47224   6.262  16.475  14.740 -0.1812  0.2511 -0.0784
31756W        W47225  13.686  12.566   1.450  0.0718 -0.0907  0.0671
31757W        W47226   0.827   9.058   3.367  0.1067  0.1914 -0.1193
31758W        W47227   9.470  14.370   2.068  0.1635  0.2598  0.1832
31759W        W47228  18.782  13.084   1.171  0.2513 -0.2305 -0.0303
31760W        W47229  15.198   3.011   1.995 -0.4468 -0.1826 -0.0872
31761W        W47230   2.638   5.506   0.132  0.2497 -0.1454 -0.0879
31762W        W47231   3.393  17.825   3.975 -0.3098  0.0713 -0.0507
31763W        W47232  10.885  14.904  15.571  0.1172  0.1056 -0.2490
31764W        W47233  13.791   4.298  12.154 -0.2489 -0.1157  0.1645
31765W        W47234   8.620  11.606  13.371  0.2956 -0.0074 -0.2553
31766W        W47235   5.140  14.387  10.296  0.0277  0.0892  0.0595
31767W        W47236  10.368   0.849  12.246  0.1525 -0.4146  0.0476
31768W        W47237  14.638  17.384   2.196 -0.0354  0.0201  0.2535
31769W        W47238  10.975  13.705   4.666  0.0066  0.3324  0.3141
31770W        W47239   1.136  16.301   3.395  0.0088 -0.0142 -0.4040
31771W        W47240  17.007   8.467  12.364 -0.0568 -0.0952  0.1118
31772W        W47241  14.591  16.067  15.486 -0.1386  0.0029  0.2155
31773W        W47242  18.633   7.318  13.909 -0.4244 -0.2413 -0.4274
31774W        W47243  11.521  13.168  11.002  0.2442 -0.1635  0.0917
31775W        W47244   7.791   2.042   2.142  0.0905  0.0654  0.0867
31776W        W47245  18.728  16.546  11.629 -0.1364 -0.3729  0.1664
31777W        W47246  18.397   0.490   0.098 -0.2763 -0.0877 -0.0335
31778W        W47247  10.730  11.407  15.201 -0.3635  0.0825  0.3062
31779W        W47248  10.304  11.392   1.136  0.2616 -0.1698 -0.0899
31780W        W47249   8.300  14.373   3.348 -0.0889 -0.2144  0.0239
31781W        W47250   3.363  15.753  15.557 -0.0380 -0.3114 -0.3141
31782W        W47251   4.350  15.231  13.519 -0.2125 -0.0691 -0.1007
31783W        W47252   0.964   3.893  14.131  0.3901  0.0309  0.1002
31784W        W47253   0.096   0.107  13.461  0.1053 -0.0111  0.0090
31785W        W47254   3.245   1.770  14.913  0.0511 -0.1884  0.1460
31786W        W47255  10.434  17.118   2.380 -0.1179 -0.0036  0.0151
31787W        W47256   4.000   9.521  11.520 -0.0759 -0.1676  0.0770
31788W        W47257   6.082   1.254  12.666 -0.0394  0.3276 -0.0074
31789W        W47258   1.567  15.414  12.317 -0.0803 -0.1689  0.1030
31790W        W47259   3.369   5.938  11.289 -0.0749  0.1639 -0.3881
31791W        W47260   9.840  17.093  12.399 -0.0654 -0.0085 -0.0544
31792W        W47261   6.151   6.903  15.080  0.0958 -0.2103 -0.1857
31793W        W47262   0.521  14.054  12.915 -0.1574 -0.2914  0.2479
31794W        W47263   9.964  13.198   0.368  0.0517 -0.3014 -0.0480
31795W        W47264   8.285  12.340   4.450 -0.1337 -0.1566  0.0312
31796W        W47265   0.872  18.637  14.486 -0.2576 -0.0947  0.2069
31797W        W47266   7.344  12.394   1.328  0.0841  0.0870  0.2591
31798W        W47267   3.787  15.631   4.149  0.2360  0.0213 -0.1521
31799W        W47268   2.688  13.608  14.751 -0.0634  0.1131  0.0097
31800W        W47269   4.174  16.880   4.440  0.2465 -0.0818 -0.0524
31801W        W47270   8.454  14.234  15.395  0.1072  0.1127 -0.2857
31802W        W47271   4.002  13.509  13.982 -0.1433  0.1049  0.0522
31803W        W47272  12.086   9.173  12.758  0.0963 -0.0738 -0.0313
31804W        W47273   5.028   1.909   4.812 -0.2681 -0.1570  0.1357
31805W        W47274   6.994   2.002   4.805 -0.3045  0.0050  0.0175
31806W        W47275   2.241  14.265   1.239  0.0372  0.1325 -0.0755
31807W        W47276  17.223  16.455  10.594  0.0486 -0.0571  0.4105
31808W        W47277   4.645  13.811   2.906 -0.0635 -0.1288  0.0319
31809W        W47278   5.279  17.733   3.365  0.2942  0.1483  0.3815
31810W        W47279   4.333   1.698   3.060  0.2099 -0.2527 -0.0107
31811W        W47280  10.456   4.171  15.093 -0.0133 -0.2069  0.0977
31812W        W47281  12.491  12.902   3.062  0.1656 -0.0893 -0.0689
31813W        W47282  16.705   0.758   3.004  0.0239  0.0672 -0.2167
31814W        W47283  10.978   3.766  11.535  0.3921 -0.2008 -0.0569
31815W        W47284   0.621   2.389   3.300 -0.0619  0.2682 -0.1329
31816W        W47285  11.015   7.060   4.787  0.0868 -0.1155  0.2645
31817W        W47286  12.326  12.923  14.207 -0.1627  0.1662  0.1099
31818W        W47287   1.975  14.902  14.680 -0.2087  0.2295  0.0151
31819W        W47288   4.586   5.244  10.891 -0.1168  0.1293 -0.2790
31820W        W47289   4.262  15.082   3.485  0.1531  0.0163  0.1547
31821W        W47290  17.508  15.088  15.183 -0.0894 -0.1850 -0.4398
31822W        W47291   5.079   5.188  10.485 -0.1772 -0.0029 -0.1441
31823W        W47292   9.319  17.100   1.275  0.0727  0.0425 -0.1600
31824W        W47293  13.050  12.518  13.875 -0.0126 -0.0411  0.1566
31825W        W47294  12.631  10.289   2.027  0.2662 -0.0220 -0.3499
31826W        W47295   9.912  14.249  13.727 -0.4191 -0.0472 -0.1708
31827W        W47296  10.911  10.948   3.903 -0.0765  0.2636 -0.2566
31828W        W47297   8.241  16.384  10.995  0.3313  0.1672  0.1854
31829W        W47298   9.043   0.744   2.642 -0.1042  0.0023 -0.0280
31830W        W47299  14.535   3.404   2.186 -0.2346  0.1468  0.1423
31831W        W47300   4.721   8.108   3.472  0.0562  0.0168  0.0777
31832W        W47301  17.334  14.790  12.181  0.2871  0.1633 -0.0767
31833W        W47302   6.082  11.296   0.202 -0.1214  0.2713  0.3904
31834W        W47303   8.447   0.867   2.126 -0.0290  0.1123 -0.0436
31835W        W47304   6.406  17.857  12.640  0.0446  0.1541  0.3240
31836W        W47305  18.132   3.198   1.441 -0.1953 -0.0106 -0.5840
31837W        W47306   6.206  16.947  13.036  0.0237 -0.2205  0.1800
31838W        W47307  16.662   1.714   4.321 -0.2978  0.3716  0.2717
31839W        W47308   8.364   1.926   4.926  0.0760 -0.2517 -0.2575
31840W        W47309   0.559   3.245   4.170  0.0221  0.1425 -0.0630
31841W        W47310  11.400  10.584   2.047 -0.1241 -0.0085  0.1165
31842W        W47311   3.818  15.407  12.297 -0.1165 -0.0818 -0.1229
31843W        W47312  15.313   6.828   4.685  0.2465  0.2144 -0.4351
31844W        W47313   7.345   8.214  13.171 -0.3107 -0.2905 -0.1204
31845W        W47314   8.567  11.925  14.791 -0.2343 -0.2353 -0.2985
31846W        W47315   7.875   8.517   1.556  0.1260  0.0675  0.1443
31847W        W47316  13.684  16.531  10.473 -0.0217 -0.0823 -0.4327
31848W        W47317  17.396  10.546  11.173 -0.0647 -0.0458 -0.1881
31849W        W47318  18.511  14.248  10.345  0.3678 -0.0515 -0.2852
31850W        W47319   6.689   2.284   3.435  0.0205 -0.0005  0.1947
31851W        W47320  16.846  13.137   3.935 -0.3455  0.2392  0.1330
31852W        W47321   4.977   4.643  13.779  0.4055  0.0449  0.0526
31853W        W47322  15.316  11.986   3.701 -0.6411  0.0989  0.1725
31854W        W47323   6.644  14.940  10.996 -0.4605 -0.0013  0.3155
31855W        W47324  13.507  11.568   3.602 -0.0254  0.0909  0.2793
31856W        W47325   0.759   4.381  11.628 -0.0496  0.1505  0.3628
31857W        W47326   9.623   0.515   0.422  0.2024 -0.1064  0.2697
31858W        W47327   4.015   1.933   4.006  0.0008  0.1001  0.1102
31859W        W47328  18.242  16.663  11.558  0.0898 -0.0141  0.0903
31860W        W47329   3.912  12.472  12.060  0.4736 -0.0391  0.2888
31861W        W47330  15.332  16.119  12.143  0.0668  0.1450 -0.0838
31862W        W47331   8.452  10.170   4.379 -0.0101  0.0951 -0.1157
31863W        W47332   6.702  13.564  12.642  0.0235  0.0666  0.3283
31864W        W47333  17.541  14.398  12.747  0.0287 -0.0962 -0.1746
31865W        W47334  14.575   3.205  12.163  0.1639  0.2483 -0.0321
31866W        W47335  16.401  11.211  15.098  0.2109 -0.0823  0.2220
31867W        W47336  16.322   2.341   2.878  0.4649  0.2693  0.2255
31868W        W47337   8.562   2.926  14.225 -0.0691  0.1365 -0.0884
31869W        W47338   0.389  12.325   2.750  0.1157 -0.1188 -0.0853
31870W        W47339  18.113  17.497  11.982  0.0999 -0.1010 -0.0928
31871W        W47340   9.508  16.319  14.132  0.0990 -0.2339 -0.2786
31872W        W47341  14.850   1.341  14.565  0.0742 -0.1465 -0.2680
31873W        W47342  14.376  17.748  13.930  0.0251 -0.1762 -0.0830
31874W        W47343  10.001  16.613   2.121 -0.2359  0.1197 -0.0716
31875W        W47344  17.836  13.223  13.325  0.2395 -0.0184  0.1615
31876W        W47345  16.405  11.706   2.877  0.0608  0.0798  0.1450
31877W        W47346  12.112  10.243  10.405 -0.1947 -0.1405 -0.3553
31878W        W47347  14.649  17.508   0.571 -0.3429  0.1548  0.0562
31879W        W47348  11.266   7.031   3.628  0.0975  0.1370 -0.2237
31880W        W47349   4.423  12.697   2.182  0.1248 -0.0660 -0.0207
31881W        W47350  16.096  10.541   1.931 -0.0061  0.2312 -0.3539
31882W        W47351  10.036   4.511  13.428 -0.0499 -0.0034  0.2344
31883W        W47352  16.635  16.985  14.266 -0.0733  0.0086  0.2125
31884W        W47353   5.427   4.812  10.554 -0.0016 -0.0257  0.0054
31885W        W47354  14.609   8.878  12.337  0.0069  0.1248 -0.4300
31886W        W47355  10.022   7.865   5.670 -0.0846  0.0933 -0.1060
31887W        W47356   9.078  12.361   9.963 -0.2402 -0.0913  0.1136
31888W        W47357   4.556  11.217  11.494 -0.0249  0.0505  0.0854
31889W        W47358   6.781  13.925   2.319  0.0989 -0.0661  0.0904
31890W        W47359  17.107   3.659  12.419  0.0547 -0.2440  0.1320
31891W        W47360   2.986   3.409  13.289  0.1141 -0.0756 -0.1688
31892W        W47361  18.287   5.285  11.080  0.6282  0.1951  0.1905
31893W        W47362   7.933   7.409  13.876  0.0592 -0.2332 -0.0104
31894W        W47363   0.140  12.014  12.762  0.0973 -0.4448  0.3809
31895W        W47364   4.040   9.187  10.683  0.0310  0.1212  0.0683
31896W        W47365  12.223   7.219   2.776  0.0860  0.2117  0.2334
31897W        W47366   6.367  17.005   1.390  0.1308 -0.0744 -0.0928
31898W        W47367   9.310   3.914   2.003  0.1780 -0.0511  0.5451
31899W        W47368  11.616  14.697  11.500  0.1442  0.1793  0.3058
31900W        W47369  11.390  18.255  12.078  0.1295 -0.0445 -0.1559
31901W        W47370   3.698  18.447  10.954  0.0025 -0.0729 -0.0535
31902W        W47371   4.408   2.537  15.344  0.1301  0.3280  0.3672
31903W        W47372  15.066  18.636   0.633 -0.1248 -0.0613 -0.0095
31904W        W47373  14.045   9.790   3.562 -0.2618  0.1429 -0.1632
31905W        W47374   1.468  12.055  11.147  0.0868 -0.0170 -0.2807
31906W        W47375   3.786  18.783   2.046 -0.1522 -0.1322  0.3321
31907W        W47376  11.735   8.744   1.823 -0.0998  0.0545  0.0098
31908W        W47377   4.687  12.088   0.581 -0.0599  0.1433  0.1784
31909W        W47378  10.370   9.827   2.770  0.0117  0.2715 -0.4901
31910W        W47379  14.728  16.640   5.224 -0.0644  0.2931  0.2101
31911W        W47380  10.933  12.376   3.829 -0.1512 -0.2153  0.3071
31912W        W47381  18.470   5.527  11.469  0.2182 -0.0318  0.2179
31913W        W47382   8.810   0.639  14.492 -0.0629  0.1535  0.1682
31914W        W47383   1.273   6.472   2.701  0.3109 -0.2634  0.0437
31915W        W47384  11.806  16.490   1.377  0.3518  0.2569  0.0575
31916W        W47385   8.903  15.726  10.654 -0.0459 -0.2522  0.0389
31917W        W47386  13.066   3.433   1.081 -0.2603  0.3459  0.3445
31918W        W47387   0.195   5.789   0.464 -0.4224  0.1041 -0.2932
31919W        W47388   3.759   7.117   3.069 -0.0237 -0.0953  0.0203
31920W        W47389  16.129  18.535   0.551 -0.0855  0.1618  0.0219
31921W        W47390  11.597  13.418  13.937 -0.2076 -0.0385 -0.3178
31922W        W47391   2.863  11.253  10.822 -0.2384  0.0375 -0.0770
31923W        W47392  13.335   9.188  12.850 -0.3365  0.4109 -0.0124
31924W        W47393   8.023  17.059   1.983  0.4112 -0.0611 -0.1316
31925W        W47394   9.057   8.442   3.883 -0.2210 -0.1007 -0.1233
31926W        W47395  14.585  11.498  11.287  0.1468 -0.2736  0.2170
31927W        W47396   7.025  12.029  11.590 -0.0912  0.0700  0.0874
31928W        W47397  12.511   7.758   1.315  0.1206 -0.0693 -0.3324
31929W        W47398  18.143  14.701   1.822  0.1114 -0.1584 -0.0714
31930W        W47399  16.307   9.563  13.347  0.1293  0.0036 -0.3670
31931W        W47400  17.215  16.857   3.956 -0.1717 -0.0830 -0.0353
31932W        W47401   7.454   9.010  10.568  0.1982 -0.1777 -0.0135
31933W        W47402   4.527  12.632   4.297  0.1725 -0.2678  0.0504
31934W        W47403   7.331  12.397  10.568 -0.3163 -0.0713  0.0671
31935W        W47404   8.350   4.581   2.227 -0.0892  0.0587 -0.1101
31936W        W47405   1.384   6.629  15.166 -0.0541 -0.1074 -0.1182
31937W        W47406   7.850  12.162   2.486  0.1213 -0.1581 -0.0539
31938W        W47407  17.003   1.675   0.099  0.0143 -0.0559  0.0590
31939W        W47408   8.257   1.366   4.325 -0.0250  0.3057 -0.1922
31940W        W47409   8.118  17.532  15.507 -0.2763  0.2861 -0.0984
31941W        W47410   5.331   0.168   2.513 -0.3877  0.0746 -0.0072
31942W        W47411  18.436  10.603   5.244 -0.0059 -0.1669 -0.0614
31943W        W47412  14.055  10.434   2.852 -0.0480  0.0119 -0.4155
31944W        W47413   1.952  14.586  12.902 -0.0244  0.0888 -0.0680
31945W        W47414   6.295  15.468   4.361 -0.2643 -0.1484  0.1125
31946W        W47415  16.378  14.542  12.203  0.4726  0.2303  0.3100
31947W        W47416  16.224   6.262  13.281 -0.0751  0.1318 -0.0208
31948W        W47417  18.772   6.415  13.145  0.0787  0.2030  0.1105
31949W        W47418   3.587   0.069  13.899 -0.0281 -0.2359 -0.3289
31950W        W47419   3.991  12.439   0.043 -0.1903 -0.0355 -0.1173
31951W        W47420   6.535   6.006   4.862  0.0148  0.3310 -0.2154
31952W        W47421   8.942  17.794  10.638  0.1294 -0.3526 -0.0628
31953W        W47422  16.511   3.426  14.833  0.0065  0.1803 -0.0020
31954W        W47423  17.436   0.417  13.708  0.3501 -0.0781 -0.1971
31955W        W47424  11.705   1.545   0.224 -0.2757 -0.2063  0.0764
31956W        W47425   6.102  14.860  11.824  0.1107  0.0866 -0.1397
31957W        W47426   2.961  18.608  13.582 -0.0801 -0.1687 -0.0900
31958W        W47427   2.041   7.215   2.704 -0.0509 -0.0799  0.5194
31959W        W47428  14.990  16.311  14.358 -0.0059 -0.2782 -0.4451
31960W        W47429  17.325   2.590   1.123 -0.1550 -0.0566  0.1057
31961W        W47430   2.025  10.762  11.673  0.0183 -0.0043  0.2120
31962W        W47431  17.085  13.683  11.234 -0.1330  0.0119 -0.0677
31963W        W47432   8.895  12.367   0.530 -0.0624 -0.1569 -0.3074
31964W        W47433   8.005  18.557   4.929  0.5426 -0.0230 -0.2519
31965W        W47434  18.184   5.767  11.880  0.1017  0.2124 -0.2899
31966W        W47435   9.319   7.132  14.590  0.0585  0.0146  0.3648
31967W        W47436   2.649   5.336  12.056 -0.2711  0.0948  0.0166
31968W        W47437   7.135  14.149  10.674  0.0533  0.0198  0.1347
31969W        W47438  10.830  17.806  15.127 -0.1543  0.0064 -0.2903
31970W        W47439   2.220  11.663  11.530  0.0927  0.2606  0.1426
31971W        W47440   7.480   6.008   3.248 -0.0292  0.1241  0.0546
31972W        W47441   8.868   0.932  11.155 -0.0071 -0.0835 -0.0804
31973W        W47442  16.052  14.964   1.257  0.0567  0.0831  0.0067
31974W        W47443   7.939   3.904   5.999  0.1108 -0.0953  0.5699
31975W        W47444   7.592   2.182  10.724 -0.3091 -0.1170  0.1108
31976W        W47445  14.595  17.529   1.658  0.2113  0.0225  0.0362
31977W        W47446   7.294   5.626  12.802 -0.1769 -0.2594 -0.3315
31978W        W47447   8.669   1.826   3.038 -0.0032 -0.0886 -0.0107
31979W        W47448   0.542   1.729   2.414  0.1166  0.1055  0.0271
31980W        W47449   5.934  18.728   5.769  0.2185  0.1209 -0.1532
31981W        W47450  15.080  16.045  13.763  0.0811 -0.1499 -0.0754
31982W        W47451  14.254  12.566   6.139 -0.2560 -0.3192  0.1647
31983W        W47452   6.877   7.873   4.554  0.1865  0.0119 -0.0496
31984W        W47453  12.852  10.088   4.221  0.1008  0.3642 -0.0090
31985W        W47454  10.139   0.075   9.899  0.0009 -0.0084  0.2518
31986W        W47455   8.607   8.179   0.429  0.1471 -0.4004 -0.0260
31987W        W47456   0.687  15.411   2.922  0.0648 -0.1322  0.5180
31988W        W47457  17.200  14.447  14.999 -0.0402  0.0300 -0.0569
31989W        W47458   5.208   5.328  15.334  0.0687 -0.1006 -0.0773
31990W        W47459   0.253  16.182   3.793 -0.2896  0.1001  0.0641
31991W        W47460   0.449   9.263  14.029  0.2973 -0.1326 -0.0304
31992W        W47461  18.096  18.163   4.669 -0.0321  0.0897  0.0924
31993W        W47462   7.843  17.147   2.528  0.0467  0.1485  0.1897
31994W        W47463  17.670  10.926  13.943  0.1303  0.1275 -0.2114
31995W        W47464  15.402   5.761   3.711 -0.2419  0.0384  0.1507
31996W        W47465  10.014  15.375  14.881 -0.4326  0.0755  0.3657
31997W        W47466   0.941  16.175   0.296  0.0835 -0.0804  0.1907
31998W        W47467   6.526  16.737   0.852  0.1751  0.5237 -0.0625
31999W        W47468   5.175  18.527  12.009  0.1527 -0.0888 -0.1324
32000W        W47469  14.673   0.664  13.302 -0.1827 -0.0894  0.2111
32001W        W47470   4.476   2.800   2.548  0.0443  0.0649  0.1871
32002W        W47471   8.340   8.248   2.603  0.4302 -0.0218  0.1433
32003W        W47472   5.510  16.406  13.430 -0.3346  0.1463 -0.1670
32004W        W47473  14.050  11.705   1.469 -0.0064  0.0041 -0.0177
32005W        W47474  13.533   0.255  10.771 -0.0895  0.0925 -0.0782
32006W        W47475  13.656   6.652   0.999 -0.0085 -0.0159 -0.0506
32007W        W47476   1.338  17.544   3.695 -0.2668  0.0448 -0.2584
32008W        W47477   7.874   7.530  11.914 -0.1421  0.2301  0.2208
32009W        W47478   4.783   5.975   2.067  0.0853 -0.1155 -0.1866
32010W        W47479   3.536  13.096  13.241  0.0242  0.0725  0.0008
32011W        W47480   0.797   5.824  12.452  0.1303  0.2293 -0.0251
32012W        W47481   9.195   9.155   3.965  0.1807 -0.1344  0.0467
32013W        W47482   6.003  15.214   1.582  0.3031 -0.3537  0.2585
32014W        W47483   3.934   1.716  13.270 -0.0352 -0.0154  0.0238
32015W        W47484   4.009  12.017  12.732  0.0154 -0.5450  0.1635
32016W        W47485  15.140   9.046  12.285  0.0984 -0.1923 -0.3253
32017W        W47486  15.943   4.302  15.307 -0.1159  0.3958 -0.1646
32018W        W47487  12.864  17.376  10.772 -0.0816 -0.3516  0.3292
32019W        W47488   2.055  15.776   5.354  0.3053  0.0891  0.1158
32020W        W47489  13.132   0.179  10.344  0.0755 -0.0510 -0.0799
32021W        W47490  14.210  12.491   1.205  0.0861  0.2967  0.0342
32022W        W47491   6.004   7.001   0.176  0.3836  0.0130  0.1766
32023W        W47492   4.326  16.359  12.537 -0.0974  0.1039  0.1850
32024W        W47493   1.619  17.683   5.380  0.1097  0.1987  0.1565
32025W        W47494  13.688   5.293   2.320 -0.1882 -0.1002 -0.0459
32026W        W47495  11.045  10.077  11.693 -0.0711  0.3291  0.1256
32027W        W47496   3.596   3.400  11.954  0.1629 -0.2004  0.0080
32028W        W47497   3.931  11.229  13.515  0.1980  0.3006 -0.1210
32029W        W47498  11.129  18.642   3.964 -0.1670  0.1010 -0.0583
32030W        W47499   5.655  13.725  12.514 -0.1354  0.2072 -0.1915
32031W        W47500   7.499   2.223   3.895  0.2500 -0.0236  0.0742
32032W        W47501   8.721  13.080   4.341 -0.1248 -0.0016 -0.0446
32033W        W47502  17.399   7.773  13.674  0.0527  0.3027 -0.2381
32034W        W47503   3.303  10.668   0.986 -0.0777 -0.1201  0.0511
32035W        W47504  13.396  17.070  10.972 -0.3004 -0.1121 -0.1348
32036W        W47505  11.311   7.130  15.264 -0.0150 -0.0628 -0.1315
32037W        W47506   4.213   6.297  11.236  0.2680 -0.3392  0.0840
32038W        W47507   2.149  18.669  14.684  0.0678  0.2379 -0.0110
32039W        W47508   5.669   0.990   4.526  0.2505  0.0760  0.0623
32040W        W47509   3.078   8.153  15.216 -0.0297  0.1302 -0.5381
32041W        W47510  15.437  14.891  15.411  0.1188  0.4857 -0.0321
32042W        W47511  14.765   5.388  13.951 -0.1844 -0.3742 -0.2904
32043W        W47512   0.809   2.450   0.263 -0.1829  0.0059  0.0291
32044W        W47513   0.034  11.236  14.594 -0.0243 -0.1130 -0.1334
32045W        W47514  13.790   3.968   5.539 -0.1204  0.5338 -0.4210
32046W        W47515  16.694  16.356   2.261  0.1897 -0.0380 -0.2868
32047W        W47516   4.368   3.246  15.613 -0.3277 -0.3851 -0.0102
32048W        W47517   4.559  14.263  15.431 -0.2129 -0.0309  0.0079
32049W        W47518  14.043   9.914  10.417  0.0408  0.0136 -0.1731
32050W        W47519  18.179   5.269  14.990 -0.1098 -0.0676  0.1937
32051W        W47520   2.726   2.147   2.316 -0.3452 -0.1718 -0.1871
32052W        W47521   8.176   6.016   1.046 -0.3335 -0.1250 -0.1920
32053W        W47522  15.047   2.352  14.704  0.4753  0.0992  0.0580
32054W        W47523  11.436  13.789   1.899 -0.0830 -0.0132 -0.0596
32055W        W47524   2.905   3.337  14.315  0.1789 -0.1499  0.0557
32056W        W47525   8.176  10.422  14.111 -0.0525 -0.1955 -0.0781
32057W        W47526   8.804  10.379  15.492  0.3268  0.1716  0.0199
32058W        W47527  13.275  16.201   3.378 -0.3667 -0.3309 -0.0457
32059W        W47528   6.123   7.279  14.174 -0.2229 -0.0203  0.2453
32060W        W47529   5.916  10.116  10.441 -0.2042  0.3247 -0.0544
32061W        W47530   0.480   1.926  15.016  0.2860  0.4289  0.0900
32062W        W47531  12.780  13.602  11.919 -0.0669 -0.0559 -0.3345
32063W        W47532   2.944  17.781  10.067 -0.0211  0.1969  0.0567
32064W        W47533   2.856  10.124  14.914  0.1881 -0.0787  0.1879
32065W        W47534   8.156  16.062   3.824 -0.3030 -0.1070  0.3011
32066W        W47535  14.458  13.487   0.706 -0.1128  0.0442  0.0939
32067W        W47536   3.206  16.410  11.985  0.0045 -0.0491 -0.1347
32068W        W47537   8.792  18.487  11.818 -0.0767 -0.1607 -0.3125
32069W        W47538   9.351  16.838   9.624 -0.3749  0.0927  0.2313
32070W        W47539  13.899  16.559  12.345 -0.2534  0.0371  0.0161
32071W        W47540  14.267   8.304  13.022 -0.1646  0.3752  0.0169
32072W        W47541  15.777  10.038   2.886 -0.3077 -0.0486 -0.1435
32073W        W47542  13.367  10.722  13.302  0.0602  0.0678  0.0120
32074W        W47543  12.002  12.494  11.323 -0.1747  0.3252 -0.1127
32075W        W47544   0.539   9.390  15.290 -0.0482  0.1409  0.1131
32076W        W47545   9.302   6.246   0.395 -0.0968  0.0756 -0.0372
32077W        W47546  18.437   6.851  15.338 -0.1322  0.0213 -0.2011
32078W        W47547   8.913  17.722   5.071 -0.0768 -0.1356 -0.2313
32079W        W47548   7.347   4.089  12.647  0.0836  0.0513  0.0894
32080W        W47549   7.396   8.081   4.742 -0.0186  0.0080 -0.2306
32081W        W47550   5.391   9.564   0.603 -0.1303 -0.2533  0.2436
32082W        W47551  12.153   1.596   0.797 -0.1699 -0.0389  0.0718
32083W        W47552   0.951   2.340  15.073  0.0830  0.0308 -0.2400
32084W        W47553   4.181   7.944   4.590  0.0288 -0.0341  0.1610
32085W        W47554  10.070  13.860   4.311 -0.4527  0.1894 -0.3850
32086W        W47555  11.413  12.265   4.068  0.1532 -0.0897 -0.1263
32087W        W47556   1.793   2.020  14.263 -0.0762 -0.0734  0.0710
32088W        W47557  13.479   3.975  12.798  0.0816  0.1386  0.1912
32089W        W47558   8.888  16.718   4.648 -0.1382 -0.1476  0.1867
32090W        W47559   4.586   6.319  13.085 -0.3062  0.0603  0.1407
32091W        W47560   2.883  10.473  11.908 -0.1641  0.1726  0.0356
32092W        W47561  15.571   7.693  14.765  0.0412 -0.0778  0.0592
32093W        W47562   8.919  17.618   4.563  0.1170 -0.0430 -0.1924
32094W        W47563   9.503   1.345  14.479 -0.2176  0.2916  0.0662
32095W        W47564  15.870   4.518  14.020  0.0422 -0.0072 -0.1742
32096W        W47565  14.022  15.908   5.118  0.2976  0.3688 -0.1261
32097W        W47566   2.150  12.302   5.246 -0.0487 -0.3521  0.1760
32098W        W47567  10.061   5.739  10.894  0.1260 -0.1319  0.1024
32099W        W47568  15.583  15.268   3.073 -0.2555 -0.1428 -0.3363
32100W        W47569   9.988  15.427   4.211 -0.1382  0.0058  0.2968
32101W        W47570   7.294   7.814   3.775  0.2432 -0.1776  0.3138
32102W        W47571  14.561  18.652   0.506 -0.0411 -0.0492 -0.1792
32103W        W47572   0.946   6.146  12.845  0.1992 -0.4157 -0.1643
32104W        W47573  13.649  11.729   0.939 -0.1922  0.0935  0.0140
32105W        W47574  17.547   9.667   3.203 -0.0099  0.0198 -0.2466
32106W        W47575   3.599  13.977   0.432 -0.1162 -0.2946  0.2100
32107W        W47576   0.658   2.386   2.250  0.1087  0.0074 -0.1303
32108W        W47577   8.315   5.899   4.296 -0.1419 -0.1691 -0.0781
32109W        W47578  13.682  12.010  10.106 -0.0764  0.0752 -0.1966
32110W        W47579  16.345  13.746  13.602  0.1893  0.3144  0.0273
32111W        W47580  15.935  10.804   5.588  0.1721 -0.0397 -0.0617
32112W        W47581  12.225   0.744   2.279 -0.2742 -0.0294  0.2882
32113W        W47582  16.393  17.661   3.835  0.2941 -0.2672 -0.2587
32114W        W47583   2.130  13.110  12.303  0.0208 -0.0235 -0.2802
32115W        W47584  14.903   7.209   3.963  0.0057  0.0295 -0.0518
32116W        W47585  12.323  18.242   4.735  0.1194  0.0317  0.1681
32117W        W47586  11.509  18.573  11.249  0.1258  0.0690 -0.0891
32118W        W47587  13.560   7.169  13.823  0.0454  0.2338 -0.0786
32119W        W47588   2.947   7.114   3.176 -0.0179 -0.0569 -0.3829
32120W        W47589  14.376  11.310   4.710  0.1180  0.0258  0.0489
32121W        W47590   1.520   3.430   3.203 -0.1605 -0.1221 -0.0266
32122W        W47591  18.621  15.031  11.748 -0.0649 -0.3339 -0.0006
32123W        W47592  17.644  14.201  15.647  0.0819 -0.0060 -0.2276
32124W        W47593   2.405   6.058   1.995 -0.2653  0.0896 -0.1675
32125W        W47594   8.656  18.214  12.276  0.0226  0.0884  0.2804
32126W        W47595   7.725   8.705  14.453 -0.2864 -0.1052  0.2732
32127W        W47596   5.119   1.014   4.236  0.0259 -0.1048  0.1008
32128W        W47597  17.774   6.074   4.254  0.1102 -0.1525 -0.0376
32129W        W47598  16.610  14.150  12.958  0.2907 -0.0901 -0.1777
32130W        W47599   5.883  17.054   3.898 -0.3270  0.1117  0.1258
32131W        W47600  11.450  15.968  14.416  0.1950  0.1911 -0.0074
32132W        W47601   7.543   7.575   0.319  0.0931 -0.2807  0.1509
32133W        W47602   5.985   6.118   0.128 -0.1714 -0.2979  0.0329
32134W        W47603  15.669   8.858   4.025  0.3320  0.0003  0.0175
32135W        W47604  13.543   8.352   0.128  0.0085 -0.0445 -0.2417
32136W        W47605  11.889  10.001   0.959  0.0633  0.0074 -0.1155
32137W        W47606   2.268  10.941   5.085  0.3819 -0.0942  0.1436
32138W        W47607   4.952   2.997   5.583 -0.1304  0.2426  0.2617
32139W        W47608   7.867  14.887   3.497 -0.3745 -0.1167 -0.2730
32140W        W47609  11.865   9.556   2.650 -0.0803 -0.0336 -0.1898
32141W        W47610  10.032   0.584  14.985 -0.1801  0.0694  0.2521
32142W        W47611   9.571   1.486   4.040 -0.2478 -0.2927  0.2453
32143W        W47612   6.454   8.201   0.685  0.2569 -0.1050  0.1442
32144W        W47613  13.346   2.396   3.012 -0.0610 -0.1189  0.2759
32145W        W47614  14.302  12.682   4.219 -0.1374  0.0139  0.1413
32146W        W47615   0.451   4.538  11.172 -0.1593  0.1401 -0.2461
32147W        W47616  18.425   9.216  12.981  0.0343 -0.0219  0.2162
32148W        W47617  10.568  11.610  13.550 -0.0012 -0.0918  0.0379
32149W        W47618  14.412   0.889   1.617  0.0112  0.1145 -0.1728
32150W        W47619   6.357  15.150  15.310 -0.1889 -0.2267 -0.5100
32151W        W47620  16.347  14.565  13.083 -0.3719  0.0491  0.0765
32152W        W47621  17.470  15.892   2.427 -0.1550  0.1626  0.2009
32153W        W47622   8.359  12.381  13.510 -0.1173 -0.2428 -0.1587
32154W        W47623  18.668   9.491   3.352 -0.3255  0.1707  0.2724
32155W        W47624  10.628   7.863  10.633  0.4503 -0.0334  0.1100
32156W        W47625   5.334  12.674   9.279 -0.1616  0.0031  0.0451
32157W        W47626   9.206  11.540   2.782  0.1257 -0.0308 -0.0350
32158W        W47627   2.956  14.589   1.314 -0.0920  0.2251  0.1841
32159W        W47628   6.482  16.585  11.166 -0.0373  0.5009 -0.2832
32160W        W47629  10.970  12.591  12.260  0.1976 -0.1802  0.3043
32161W        W47630   3.691  16.018   2.275  0.1638 -0.0924 -0.2821
32162W        W47631   2.240  12.632   0.553  0.3638 -0.2275 -0.1445
32163W        W47632   4.549  10.030  13.352  0.0875  0.1873  0.0360
32164W        W47633   9.054  17.832   2.687 -0.0655 -0.0041  0.3141
32165W        W47634   9.646  13.712  10.935 -0.1351 -0.0497  0.0371
32166W        W47635  15.386  18.559  13.961  0.0293 -0.0442  0.1045
32167W        W47636  17.785  17.060  15.486  0.0416  0.3315 -0.2143
32168W        W47637  16.402   0.585  10.560  0.0645 -0.3102  0.1392
32169W        W47638  17.110   0.930  12.995 -0.1397 -0.2377 -0.0719
32170W        W47639  11.724   0.705  14.457  0.0655 -0.2515  0.1821
32171W        W47640   7.287  13.851   3.537 -0.2520  0.1415 -0.0026
32172W        W47641   5.558   2.613   1.935  0.1511 -0.1310 -0.2495
32173W        W47642   5.906   8.021  10.234 -0.1198 -0.2716  0.2768
32174W        W47643   2.346  14.933   2.590  0.1317 -0.1603 -0.2469
32175W        W47644  12.310  15.080   1.189  0.0349  0.0683  0.2300
32176W        W47645  13.749   4.680   5.061 -0.2991  0.0945 -0.0340
32177W        W47646   8.468   6.236  12.462  0.0172 -0.1658 -0.0286
32178W        W47647  11.371   0.316  11.176 -0.1396  0.1232  0.1265
32179W        W47648  12.043  17.786  10.843 -0.0676 -0.2928 -0.0157
32180W        W47649   6.135   9.281  11.991  0.2531  0.3570  0.2415
32181W        W47650   3.430   7.704  15.227  0.0039 -0.1412  0.3553
32182W        W47651  17.490   8.695   0.110 -0.1524  0.0715  0.3132
32183W        W47652  12.030  18.300  13.611  0.1148  0.2440 -0.1392
32184W        W47653  12.762  18.150   0.445 -0.0078 -0.1837 -0.4073
32185W        W47654   2.283   8.270  13.534 -0.0814  0.2837 -0.2649
32186W        W47655   4.021  13.411   4.286 -0.0473 -0.1513 -0.1477
32187W        W47656  10.382   3.738   2.901  0.0716  0.1247  0.0688
32188W        W47657  11.146   0.814   3.672  0.1437 -0.1089 -0.2188
32189W        W47658   8.516  15.898   5.259  0.0411 -0.0759 -0.1090
32190W        W47659   9.157   0.746  14.091 -0.0201 -0.0069  0.1239
32191W        W47660  11.883   6.515   5.424  0.0561  0.0257 -0.4482
32192W        W47661   0.496   1.402   0.602  0.1646 -0.1898  0.4414
32193W        W47662   8.637  10.755  14.826  0.0924 -0.0677  0.0454
32194W        W47663   0.514   8.301  11.510  0.0492 -0.0516 -0.1773
32195W        W47664   4.169   8.344  13.894 -0.0833  0.0107  0.0587
32196W        W47665  16.966   2.324   2.867  0.1988  0.2165  0.1323
32197W        W47666  18.767  18.529   1.224 -0.0268 -0.0709  0.4232
32198W        W47667   2.190  11.597   2.663  0.2884 -0.0496  0.2160
32199W        W47668   0.360  17.213   0.433 -0.0006  0.0298  0.3280
32200W        W47669   5.888   5.777  11.491 -0.1548 -0.0761  0.2741
32201W        W47670   7.065  12.101  12.432  0.1854 -0.3372 -0.1432
32202W        W47671   6.545  13.677  12.182  0.4192  0.1287 -0.0367
32203W        W47672  10.138   5.697   0.603  0.1952  0.3431 -0.0394
32204W        W47673   6.793   3.906   3.526  0.0115 -0.0438 -0.1516
32205W        W47674  17.442  14.033  13.223  0.1885  0.0230  0.0681
32206W        W47675   5.990   8.797  11.906 -0.1328  0.3275  0.0518
32207W        W47676  14.467  13.958  10.526  0.3123  0.1381  0.1545
32208W        W47677   9.382   2.304   2.684 -0.2191  0.2063  0.0133
32209W        W47678  14.079  12.856  12.280 -0.0528  0.4319  0.0110
32210W        W47679  13.896  10.306  14.540 -0.1587  0.0189  0.2194
32211W        W47680   9.046   9.841  14.055  0.0117  0.1076  0.0994
32212W        W47681   6.576   4.150   5.492  0.1417 -0.2377  0.0678
32213W        W47682  14.322  16.811  15.647 -0.1385 -0.2920 -0.0061
32214W        W47683   8.863   7.809   0.577 -0.0002 -0.0152  0.4298
32215W        W47684   7.807  10.019  13.910 -0.4310 -0.0887  0.1127
32216W        W47685   1.428  15.955  10.301 -0.0017 -0.0602  0.4269
32217W        W47686   0.023  14.097   0.926  0.0021  0.0738  0.0588
32218W        W47687  13.078  16.670  15.617  0.4409 -0.1497 -0.0705
32219W        W47688  17.548   1.563   1.607  0.1129 -0.0378 -0.1225
32220W        W47689   8.324  17.233  10.297 -0.0412 -0.0179  0.0817
32221W        W47690   9.507  18.701   0.886 -0.2985 -0.1641 -0.1198
32222W        W47691   7.597  13.212   4.068 -0.3244 -0.2393 -0.1818
32223W        W47692   0.912   4.342  14.300 -0.1645 -0.0465  0.2336
32224W        W47693  17.922   3.176   0.305 -0.3487  0.2719  0.1343
32225W        W47694  13.420   8.525  11.179  0.3141  0.2379  0.2970
32226W        W47695  16.531  10.037  11.756  0.1392 -0.2491 -0.0791
32227W        W47696   0.227   8.562  11.837  0.1416  0.1295  0.0571
32228W        W47697  10.863  18.550  15.500 -0.1464 -0.2495 -0.0883
32229W        W47698  16.470  18.629   4.100  0.2047 -0.0203 -0.3723
32230W        W47699  16.323  12.797   2.270 -0.1793 -0.0866 -0.0139
32231W        W47700   3.388  16.414  11.306  0.0679  0.0237  0.2660
32232W        W47701   6.775   0.035   1.466  0.1488  0.2857  0.0009
32233W        W47702  10.756   1.026   1.196  0.1050 -0.0176 -0.0014
32234W        W47703  13.799   2.625  14.366  0.0530  0.0187  0.0458
32235W        W47704  15.261  14.840   3.862 -0.2729 -0.0977  0.2251
32236W        W47705   9.836  13.196   0.860 -0.1228  0.0197 -0.0656
32237W        W47706   6.929   4.521  12.739 -0.3043  0.1157  0.1666
32238W        W47707  14.840   0.139   5.174 -0.2875  0.0843  0.0700
32239W        W47708   2.249   8.689  14.473 -0.0101 -0.0247  0.0483
32240W        W47709  15.778   4.220   0.520  0.0492  0.2637 -0.3549
32241W        W47710   2.243   0.606  14.111  0.2354  0.1171  0.2141
32242W        W47711  12.497  11.812   4.172 -0.2387 -0.0451  0.2837
32243W        W47712  13.689  15.255   4.331 -0.2732 -0.0112 -0.0058
32244W        W47713   5.114  17.234   3.523 -0.2337 -0.1658  0.0639
32245W        W47714   6.789   0.898  14.114 -0.1503 -0.2693 -0.0458
32246W        W47715  14.350   9.454  10.300 -0.0089 -0.1384  0.0165
32247W        W47716   4.630  18.551   3.478 -0.2799 -0.0876  0.0465
32248W        W47717  17.937  15.615  12.769  0.1137  0.0427 -0.3585
32249W        W47718   9.519  11.182  13.194  0.2244 -0.1586  0.0652
32250W        W47719  11.721   2.489   5.353  0.1330  0.2868 -0.1097
32251W        W47720  13.914  14.094   5.108 -0.1034  0.1076  0.1466
32252W        W47721   7.013   7.029   4.069  0.0296  0.0646 -0.0629
32253W        W47722   1.639  13.272  12.469 -0.1930 -0.1186  0.0219
32254W        W47723   2.159  11.585  13.347  0.3350  0.0444 -0.1112
32255W        W47724   5.499  16.156  12.909  0.0700  0.0180 -0.1011
32256W        W47725   9.813  13.731  12.186 -0.0831  0.1634  0.1288
32257W        W47726   9.206  15.020  13.760 -0.0148 -0.0107 -0.1029
32258W        W47727  16.511   1.157   2.843 -0.2612  0.1135  0.1583
32259W        W47728  11.958   4.888   0.588 -0.0289  0.1431 -0.1295
32260W        W47729  12.315  10.024   2.410  0.3883  0.0376  0.1296
32261W        W47730   6.356   0.773  15.181 -0.1686 -0.1093 -0.0230
32262W        W47731   9.073  12.244   4.035 -0.1141  0.2510 -0.1974
32263W        W47732  15.511  18.248  14.323  0.0338  0.1305 -0.1930
32264W        W47733   5.516   7.819   0.307  0.1999 -0.2783  0.1495
32265W        W47734   4.450   5.106   0.477  0.0703  0.4217  0.4381
32266W        W47735  15.809  16.257  15.236 -0.2170  0.3468  0.0757
32267W        W47736   0.922   1.327  14.577 -0.0093 -0.3341  0.0678
32268W        W47737  18.106  10.073   0.540 -0.0258  0.0282  0.2118
32269W        W47738   0.484   7.281   6.009  0.2642  0.2257  0.0897
32270W        W47739  13.079  14.111  14.010 -0.0053  0.0154  0.0295
32271W        W47740   0.896   0.524   5.654  0.0660  0.2856 -0.1585
32272W        W47741   8.857   9.793   4.437 -0.2866  0.0408  0.0460
32273W        W47742   9.010  17.029  13.436  0.0130 -0.2666  0.0469
32274W        W47743   3.950   2.197   3.105  0.2011 -0.0202 -0.3741
32275W        W47744  12.669  12.661   3.870  0.0281  0.3367  0.2755
32276W        W47745  13.662  18.017   4.809 -0.3728  0.2170 -0.5150
32277W        W47746  12.799   9.596   0.610  0.1838  0.0155 -0.3259
32278W        W47747   7.259  17.584   4.038  0.0934 -0.0322 -0.4247
32279W        W47748   9.875   3.695   3.533  0.0552 -0.0117 -0.4382
32280W        W47749  18.314  12.436   3.853  0.0057  0.0216 -0.0077
32281W        W47750  16.680  14.953  14.932 -0.0781 -0.0369  0.0289
32282W        W47751  16.134  12.172  11.271  0.0693 -0.1589  0.2705
32283W        W47752  14.430   4.634  14.389  0.1783  0.0863 -0.3955
32284W        W47753  17.917  11.421  11.280  0.1946 -0.0098 -0.1750
32285W        W47754  17.171   8.713  12.826  0.0566  0.1915 -0.2285
32286W        W47755   1.676  11.640  10.406 -0.1698  0.3555  0.1192
32287W        W47756   4.450  17.587   2.739 -0.0401 -0.1302  0.1249
32288W        W47757  12.182   5.380  12.355 -0.0610 -0.3115  0.0511
32289W        W47758   4.119   6.853   3.662  0.0715  0.0901  0.0958
32290W        W47759  17.836   1.636   3.211  0.1327  0.0154  0.2005
32291W        W47760   0.326   7.383   4.395 -0.0106 -0.0792 -0.0241
32292W        W47761  15.412  12.432  12.470  0.2449 -0.1339 -0.0660
32293W        W47762  16.410   8.960  15.495  0.0749  0.0284 -0.0129
32294W        W47763  17.522  13.590  14.643  0.0400 -0.1684  0.0178
32295W        W47764  10.827   8.982  12.806 -0.0694 -0.3619  0.1866
32296W        W47765  16.342  17.396  11.658 -0.0180  0.3798 -0.0767
32297W        W47766   1.298   1.316  15.413 -0.0283  0.1153  0.1310
32298W        W47767  16.632   5.183   1.641  0.0745  0.1175  0.2446
32299W        W47768  14.234   7.971  15.123 -0.4013  0.0374  0.2880
32300W        W47769   5.982   2.166  14.064  0.0681  0.2081  0.0445
32301W        W47770  17.989  14.272  12.173  0.2306  0.1002  0.0864
32302W        W47771   1.615   0.171   5.389  0.1143 -0.0823  0.0759
32303W        W47772   2.808   9.830  14.280 -0.1940 -0.1682  0.1474
32304W        W47773  11.126   8.431  15.421  0.1864  0.3218  0.1127
32305W        W47774   5.833   4.368  14.358 -0.0930  0.1762  0.0430
32306W        W47775   9.761  10.964  13.892  0.0010 -0.0259  0.0955
32307W        W47776  12.279   7.300   2.056 -0.2118  0.1921  0.0526
32308W        W47777  16.665  11.497  11.987 -0.0024  0.1542  0.0992
32309W        W47778   9.106   6.087  14.566  0.0175 -0.1353 -0.1503
32310W        W47779  17.067   5.206  12.118 -0.2815  0.4122  0.0857
32311W        W47780   6.169  18.641   0.840 -0.0579 -0.1943  0.1886
32312W        W47781   9.198   8.227  13.036  0.0494  0.2447 -0.0835
32313W        W47782   0.455  14.792   5.390  0.1626  0.1860  0.0834
32314W        W47783   2.492  15.864  15.525 -0.0967  0.0623 -0.1152
32315W        W47784  11.771  11.209   3.104  0.2570  0.1415  0.1981
32316W        W47785   2.599  12.516   3.401 -0.1814  0.2424  0.0966
32317W        W47786  11.563  11.599   3.424  0.0053 -0.1278 -0.1042
32318W        W47787  10.348  17.279   5.227  0.0556  0.0565 -0.2316
32319W        W47788   4.399   8.403   4.321  0.1809  0.0579  0.1964
32320W        W47789  16.246   9.993   1.212  0.2614 -0.2334 -0.0436
32321W        W47790   8.773   4.888  11.879 -0.0623  0.0806 -0.0209
32322W        W47791   0.211   5.059   2.388 -0.0699 -0.3219  0.2032
32323W        W47792   3.673  16.850  11.448 -0.1616  0.1374 -0.2736
32324W        W47793   9.701   2.678   5.255 -0.2559  0.2556 -0.1025
32325W        W47794   5.373   4.293   4.978 -0.2049  0.1545  0.0531
32326W        W47795  12.762   7.792  15.113  0.0074 -0.0189 -0.3426
32327W        W47796  16.113  18.713   5.406 -0.2985  0.1310 -0.0790
32328W        W47797   0.407  10.045  11.911  0.2316 -0.1181 -0.3267
32329W        W47798   0.916  12.081  13.492  0.1401 -0.1816  0.0384
32330W        W47799   1.002   4.360  14.827 -0.0153  0.0780 -0.1257
32331W        W47800   8.788  17.423   1.341  0.0387  0.0727 -0.1897
32332W        W47801  16.079  14.534   3.446  0.1527 -0.1406 -0.1138
32333W        W47802   7.268   3.969   0.403 -0.0192  0.2509 -0.2662
32334W        W47803   4.881   5.179   2.954  0.0870  0.1095  0.1719
32335W        W47804  16.528   2.992   5.878 -0.1658  0.2368 -0.0708
32336W        W47805   7.158   2.878   4.293  0.1101 -0.1002  0.1708
32337W        W47806  16.171   6.195  12.293  0.2569 -0.1301  0.0267
32338W        W47807  12.623   8.566   2.579  0.3000 -0.0582  0.1059
32339W        W47808  18.689   0.788   5.701  0.1231 -0.0477  0.0994
32340W        W47809   1.581   7.192  11.320  0.2212  0.2418  0.0838
32341W        W47810   2.521  12.997  13.136  0.1504 -0.2062 -0.0341
32342W        W47811   8.961   5.891   0.534 -0.0623  0.1712  0.1360
32343W        W47812   8.677   2.623   4.091  0.0075  0.1953  0.1336
32344W        W47813   1.694  10.976  14.420 -0.0373  0.0759 -0.2666
32345W        W47814   9.382   5.068  11.611 -0.0357 -0.2070  0.0426
32346W        W47815   7.805   5.920   3.630  0.1578  0.0741  0.2744
32347W        W47816   3.599  16.566   2.325  0.1746  0.2878 -0.2444
32348W        W47817   0.905   7.723   1.299  0.1817  0.3275  0.0238
32349W        W47818   4.102   0.227  13.804  0.1287  0.0667  0.1711
32350W        W47819  14.927  13.400   4.017  0.1985 -0.3101  0.2360
32351W        W47820   2.266  16.753   3.053  0.4066 -0.0514  0.0551
32352W        W47821  10.307  16.485   0.109  0.2279  0.2928 -0.0791
32353W        W47822  11.678  17.617   4.689  0.0862 -0.2624  0.1662
32354W        W47823  18.152   4.219   5.777  0.2166 -0.5147  0.0369
32355W        W47824  16.383   2.027   4.731 -0.3151  0.2350  0.1220
32356W        W47825  17.090  16.017   4.297  0.1510 -0.0317  0.0534
32357W        W47826  11.628   2.953  13.285 -0.3333  0.1037 -0.2373
32358W        W47827   7.816  16.443   3.715  0.0533 -0.0993 -0.1341
32359W        W47828   7.454   9.184  13.648 -0.0118  0.5836 -0.0420
32360W        W47829   6.704  13.512   3.048 -0.1128  0.0803 -0.0226
32361W        W47830   4.451  14.252   3.472 -0.3519 -0.0529  0.0258
32362W        W47831   7.768  17.512   4.421 -0.0372 -0.1230 -0.0309
32363W        W47832  14.191   5.243   2.366  0.0583 -0.0532  0.0792
32364W        W47833  14.222  13.020  15.287 -0.1012  0.3334 -0.2565
32365W        W47834  10.390   2.653   5.212 -0.2723  0.1175  0.0429
32366W        W47835   1.569   5.944  10.781  0.0696  0.1527 -0.0355
32367W        W47836   2.521  13.102   4.493  0.0271  0.0579  0.0909
32368W        W47837   4.722   3.735   0.031 -0.0910 -0.4240  0.2155
32369W        W47838   7.840  18.071   4.818 -0.2797  0.2131  0.1284
32370W        W47839  13.951  14.007   0.172  0.0908 -0.1419 -0.2093
32371W        W47840   8.726   7.051   5.541 -0.1797 -0.0744 -0.2071
32372W        W47841  17.974  16.068   5.321  0.1821  0.2212  0.3115
32373W        W47842  17.087   8.389  14.078  0.2288  0.1026 -0.1063
32374W        W47843   8.620  14.239   0.227  0.0273 -0.2321 -0.1189
32375W        W47844   5.712   1.886  13.031  0.0157 -0.6566 -0.0840
32376W        W47845   3.791  15.374  15.537  0.4009  0.2706 -0.1208
32377W        W47846   1.797   9.531  13.165 -0.0279  0.1727  0.2166
32378W        W47847  10.657  12.292  10.994  0.1977  0.3544 -0.1228
32379W        W47848  11.550  11.721  13.521 -0.1740  0.2395 -0.1162
32380W        W47849  13.350   2.289  13.766  0.0706 -0.2450 -0.3782
32381W        W47850   3.013   3.542   4.329  0.0189  0.1520  0.1613
32382W        W47851   8.170  15.635  11.748 -0.1046  0.0153  0.0471
32383W        W47852   7.869   9.082  10.972 -0.2363 -0.2123  0.1891
32384W        W47853  12.031   7.133  14.624  0.2377 -0.2041  0.0229
32385W        W47854   8.121  12.686  12.649 -0.0006 -0.1522  0.0309
32386W        W47855   6.385  10.705  15.090  0.2535 -0.3436 -0.0572
32387W        W47856  16.361  14.113  14.810 -0.2722 -0.1416 -0.2208
32388W        W47857  15.756   5.741  10.222 -0.0178  0.0899 -0.1346
32389W        W47858  17.227  12.679  14.409 -0.2787 -0.2752 -0.1579
32390W        W47859   9.563  16.828  13.233 -0.0701 -0.1763 -0.1280
32391W        W47860   6.831  16.391   3.856  0.0872 -0.3219 -0.2274
32392W        W47861   8.922  14.947   3.716  0.0466  0.0983  0.0160
32393W        W47862   1.332   9.796   0.101  0.0761  0.1619  0.0826
32394W        W47863  13.817   2.168   2.766 -0.0130  0.1263 -0.0485
32395W        W47864   2.782   5.697   5.375  0.0470  0.1030  0.0373
32396W        W47865  12.270  15.034   5.989 -0.2658 -0.1452 -0.0114
32397W        W47866   5.884   9.965  13.602  0.0264  0.1588 -0.3049
32398W        W47867   8.337  18.712   0.121  0.0978  0.0612  0.3989
32399W        W47868  10.973  18.613  13.727  0.0887 -0.0787 -0.0185
32400W        W47869  14.618  17.015  15.029  0.0001 -0.1258 -0.0116
32401W        W47870   0.106  11.040   5.804 -0.1189 -0.0316  0.3787
32402W        W47871  16.278  14.170   5.647  0.0207 -0.1978 -0.1544
32403W        W47872  18.732   9.108   5.097 -0.0724 -0.1831  0.0098
32404W        W47873  11.168  11.031  15.208 -0.0178 -0.1795  0.1873
32405W        W47874   9.305  12.996  11.190 -0.0571 -0.2015  0.0134
32406W        W47875   6.916  12.361  13.984  0.1746 -0.0375  0.0088
32407W        W47876  13.614   1.651  15.581  0.2545 -0.0671 -0.3546
32408W        W47877   7.640  15.901  11.741 -0.0697 -0.0883 -0.0219
32409W        W47878   9.420  12.644   1.847 -0.0674 -0.1653 -0.2525
32410W        W47879  18.054  12.510  12.895  0.0723  0.0847 -0.0659
32411W        W47880  18.569  12.415   5.510  0.0019 -0.0487 -0.0288
32412W        W47881  12.073  13.344  10.065 -0.0247  0.2368 -0.1066
32413W        W47882   8.184  12.671  11.765 -0.0957  0.0702 -0.3116
32414W        W47883   6.878   1.181  10.778  0.2894  0.3891  0.3385
32415W        W47884   7.517   2.840   3.910 -0.3303 -0.1358  0.0248
32416W        W47885   4.284   7.464  10.369 -0.0735 -0.2588 -0.1445
32417W        W47886   0.197  14.490  14.148  0.2046 -0.1180  0.1079
32418W        W47887   6.348  11.967  14.171 -0.1598 -0.0397  0.1830
32419W        W47888  11.921  14.976   1.612 -0.0711 -0.1860 -0.4108
32420W        W47889   5.649   8.521  11.495 -0.0819 -0.2084  0.0545
32421W        W47890  17.554  17.427  12.349  0.0574 -0.0270  0.0709
32422W        W47891   0.842   8.408   3.798 -0.2589 -0.1914 -0.0870
32423W        W47892   2.684  15.842  11.583 -0.0942  0.2376 -0.0924
32424W        W47893  16.165  17.683   5.489 -0.0147 -0.3370  0.0778
32425W        W47894   7.886   1.451   2.246  0.0941  0.1108 -0.4424
32426W        W47895   1.731  15.246  15.501  0.1774 -0.3181 -0.1989
32427W        W47896   4.709   7.933   1.887  0.2651 -0.3006  0.2309
32428W        W47897  10.274  12.430  11.498  0.2201 -0.0817 -0.0876
32429W        W47898   2.616  14.769   3.704  0.1087  0.0104  0.0749
32430W        W47899  11.580  16.938   1.465  0.2477 -0.1450 -0.1332
32431W        W47900  11.169   3.297  12.837  0.0104  0.0402  0.2364
32432W        W47901   3.880   6.375   0.378  0.0867 -0.2778 -0.2146
32433W        W47902   0.319  14.681   3.295 -0.2162 -0.3843  0.0990
32434W        W47903   6.285   7.416   2.757 -0.2219  0.0100 -0.0299
32435W        W47904  12.866  12.066  14.731 -0.3318 -0.1082  0.0466
32436W        W47905   1.775   2.891  12.872 -0.0302  0.3553  0.1217
32437W        W47906   9.174   5.672  12.207 -0.1032  0.1647  0.0836
32438W        W47907  18.305  13.381   1.329 -0.0234 -0.2189  0.1884
32439W        W47908   5.570   8.287   0.714 -0.1825 -0.2299  0.2226
32440W        W47909  15.375   9.097  15.223  0.5004  0.1034  0.1809
32441W        W47910  12.509   0.285  15.581 -0.1487  0.1353 -0.2006
32442W        W47911   9.593   4.562   9.867 -0.2756 -0.2829  0.1844
32443W        W47912   6.413   7.464  10.313 -0.1270 -0.0872  0.0584
32444W        W47913  15.022  15.421   1.500 -0.2397  0.1804  0.1006
32445W        W47914  14.819   9.131   4.806 -0.3267 -0.0475  0.0071
32446W        W47915   7.610  13.975   0.121 -0.0200  0.0682 -0.0668
32447W        W47916   7.474  13.433  11.436 -0.0348  0.0319 -0.0843
32448W        W47917   5.015   6.340   3.206  0.2178 -0.0970 -0.2100
32449W        W47918  16.022   1.293  14.831 -0.4075  0.0680 -0.0789
32450W        W47919  15.234   5.974  14.671  0.1262  0.0302 -0.1275
32451W        W47920  12.217   7.974   4.938  0.6835  0.0461  0.0341
32452W        W47921   8.790   8.679  13.430  0.0361  0.2648 -0.0715
32453W        W47922   4.568   4.707   2.314  0.0138  0.0834 -0.0448
32454W        W47923  18.134  15.238  13.356  0.0440  0.3437  0.4216
32455W        W47924   2.452   1.264  14.753 -0.1173  0.1161 -0.0375
32456W        W47925   0.050   9.391  10.226 -0.0099  0.1060 -0.1444
32457W        W47926   3.856   3.567   5.068 -0.1718 -0.3897 -0.0418
32458W        W47927  11.918   6.380   2.216  0.0037  0.0286 -0.2570
32459W        W47928   3.332   1.581  12.346 -0.1748 -0.0234  0.2414
32460W        W47929   8.149  13.654   0.996  0.1437  0.0684  0.1717
32461W        W47930   3.732   1.899  11.066  0.0484 -0.0980  0.1685
32462W        W47931   7.428   8.044   3.326 -0.2628 -0.2833 -0.0035
32463W        W47932  10.526   6.051  12.693  0.0312  0.0955 -0.0496
32464W        W47933  10.882   3.478   0.143 -0.0523 -0.0946  0.0044
32465W        W47934   9.662   9.043   3.701 -0.0854  0.1624 -0.0351
32466W        W47935  10.863   1.855   2.921  0.0371  0.1145  0.3187
32467W        W47936  14.013  18.506   5.064 -0.1845 -0.1929 -0.0952
32468W        W47937   9.734  18.290   0.515  0.2787  0.0886  0.0317
32469W        W47938  11.421   1.460   4.880  0.0578 -0.0703  0.1240
32470W        W47939   7.076  18.709   1.856 -0.2191  0.3154  0.1509
32471W        W47940  10.059  14.209  10.128 -0.2029  0.3870 -0.2063
32472W        W47941  11.051   6.579   3.284  0.3053  0.0437  0.1513
32473W        W47942  15.385  18.248  10.958 -0.0472 -0.3287  0.5375
32474W        W47943  12.343   8.888  15.596 -0.1496 -0.2705  0.0654
32475W        W47944   4.995  10.296   3.154  0.0234 -0.0824  0.1661
32476W        W47945  15.057  18.216  14.466  0.2386  0.5161  0.0539
32477W        W47946   1.317  16.919  12.527 -0.2620 -0.1315  0.0527
32478W        W47947   9.897   3.363  12.904 -0.0389  0.0821  0.1171
32479W        W47948   1.335   7.221   1.453  0.0826  0.0374 -0.0187
32480W        W47949  18.412   9.545   0.299  0.2943  0.1565 -0.0629
32481W        W47950   4.698  14.256   4.417 -0.1898 -0.1874  0.1197
32482W        W47951   2.949  12.893   2.716  0.0819  0.2617  0.3920
32483W        W47952   3.159  13.117  11.785  0.0462  0.1956  0.3739
32484W        W47953  11.607  10.547   1.538  0.1289 -0.1067 -0.2623
32485W        W47954  17.563  17.490   4.392  0.1218  0.1100 -0.0115
32486W        W47955  16.517   9.168  14.343 -0.1536 -0.0909  0.1815
32487W        W47956   2.878   5.060   2.666  0.0228 -0.3135  0.4459
32488W        W47957   7.905  16.313   4.687  0.0948  0.0521  0.3017
32489W        W47958   6.564   9.343  11.665 -0.4264  0.0459 -0.0650
32490W        W47959   2.171   2.338   4.840 -0.1716 -0.2268  0.0380
32491W        W47960  15.031  15.319  10.846 -0.3872 -0.2155 -0.0977
32492W        W47961  14.570  18.127  12.941  0.2179 -0.3325  0.2322
32493W        W47962   8.681   4.348  13.194  0.2077 -0.1487  0.0784
32494W        W47963   3.032  13.563  13.978  0.0515 -0.0464  0.0017
32495W        W47964   8.169  15.032  13.396  0.1108 -0.0877  0.0173
32496W        W47965   1.285  11.911   1.412  0.0077  0.0884 -0.5248
32497W        W47966  17.495  15.067  14.424 -0.1414  0.0250  0.0666
32498W        W47967  16.036   9.829  13.054  0.4569 -0.2494  0.0213
32499W        W47968  14.700  16.553   0.658  0.2234  0.2383 -0.0119
32500W        W47969  12.729  12.557   5.119 -0.0173 -0.1757 -0.2111
32501W        W47970   7.805  10.422  14.926  0.0040 -0.0313  0.1153
32502W        W47971   9.980  16.190  11.396 -0.2294 -0.2970 -0.0418
32503W        W47972   8.049  12.808  13.300 -0.0560  0.2008 -0.0413
32504W        W47973   1.840  13.874  13.625  0.0195  0.0232 -0.0274
32505W        W47974   0.408  17.105   3.484  0.1765  0.2548 -0.0352
32506W        W47975  16.787  12.184  12.508  0.0935  0.2379  0.1431
32507W        W47976   3.235   2.897   0.076  0.0056 -0.0043  0.0322
32508W        W47977  15.922   6.195  13.729 -0.1223 -0.0003 -0.3652
32509W        W47978   5.959   7.718  15.148 -0.0537 -0.0418  0.0343
32510W        W47979   9.799   7.070   3.192 -0.1122 -0.4477 -0.1801
32511W        W47980   9.406  10.952   2.139 -0.2091  0.1140  0.4019
32512W        W47981   9.384   6.181   3.944  0.0569  0.0914 -0.0330
32513W        W47982   9.949   0.098   4.896 -0.0783  0.0859 -0.0295
32514W        W47983  11.139   5.275  13.367  0.2073  0.1319  0.2056
32515W        W47984   4.459   4.961  12.166 -0.3754 -0.3905  0.1751
32516W        W47985   8.849  16.144   2.723 -0.0430 -0.1554  0.0300
32517W        W47986  10.169   3.024  12.597 -0.1757  0.1329 -0.2446
32518W        W47987  17.293   2.204  14.009 -0.2161  0.3504 -0.0696
32519W        W47988  14.102  16.868   1.145 -0.0051 -0.1591 -0.4507
32520W        W47989   8.868  16.764   3.585  0.0471 -0.4246 -0.4636
32521W        W47990  15.190   5.150  12.494 -0.1000  0.1925  0.1135
32522W        W47991   6.925  14.702   2.283  0.0079 -0.1693  0.0625
32523W        W47992   7.051   4.462   2.856  0.0402 -0.2131  0.0328
32524W        W47993   5.278   2.961  14.652 -0.0810 -0.1467  0.3537
32525W        W47994  13.360  11.223   3.988  0.1554  0.1169  0.0282
32526W        W47995   8.377   1.426   3.271 -0.0853 -0.2059 -0.0258
32527W        W47996   8.112   6.364   4.970  0.0378 -0.0837 -0.0333
32528W        W47997   7.634   3.058   1.046  0.0798 -0.1615  0.0545
32529W        W47998   3.842  14.484   3.218 -0.2440 -0.1800  0.1717
32530W        W47999  17.340  16.669   3.472  0.1065  0.1881  0.1829
32531W        W48000  12.849  10.660   4.999  0.0920  0.0704 -0.1345
32532W        W48001  15.291   8.001  12.678  0.2906  0.0003  0.1298
32533W        W48002  17.113   0.631   4.383 -0.1856 -0.0889  0.0350
32534W        W48003   7.754   7.630   4.782 -0.0304 -0.3637  0.1473
32535W        W48004   0.324  14.879   4.018  0.0557  0.1786 -0.5709
32536W        W48005  17.360  15.422   0.631  0.0750  0.1691 -0.2269
32537W        W48006  10.959   7.481   4.613  0.2722 -0.2522 -0.0321
32538W        W48007  17.111   1.347  15.262  0.1954 -0.2483 -0.2753
32539W        W48008  15.219  12.083  12.817 -0.4083 -0.1775  0.1603
32540W        W48009  10.061   6.720   1.450 -0.1106 -0.0473 -0.2127
32541W        W48010   9.288   6.700   0.160  0.2186 -0.1357  0.2499
32542W        W48011  18.735   3.727  14.260 -0.2073  0.0471  0.1795
32543W        W48012   9.000   5.701   9.878  0.0520  0.0664 -0.4745
32544W        W48013   9.748  17.604  13.875 -0.0856 -0.3283  0.2393
32545W        W48014  15.231  14.923   2.814  0.1649  0.0870  0.1141
32546W        W48015  14.452   5.202   3.672  0.5287  0.0565  0.0108
32547W        W48016   4.245   1.793  12.542 -0.3748 -0.0463  0.0113
32548W        W48017   9.624  13.278  13.637 -0.1191  0.0024  0.0604
32549W        W48018  12.396  15.633  15.595  0.0844 -0.1489  0.1871
32550W        W48019   0.845   2.463  14.239 -0.1963 -0.1376 -0.1974
32551W        W48020   8.802  14.910   2.320  0.1408 -0.4527  0.2526
32552W        W48021   2.088   7.112  12.524  0.1522 -0.1489  0.0933
32553W        W48022   8.505   8.479   1.747  0.2417 -0.1247 -0.3504
32554W        W48023   2.440   0.176   2.144  0.1801 -0.1671  0.0306
32555W        W48024   0.824  17.001  14.037  0.0249  0.0421 -0.0869
32556W        W48025  17.212   9.422   3.627  0.1443  0.2498  0.0223
32557W        W48026   3.225  14.432   2.164 -0.0626 -0.3932 -0.1737
32558W        W48027   4.590  13.134  14.990  0.1651 -0.0407 -0.2114
32559W        W48028   6.720   7.775   5.121 -0.0596 -0.3147  0.1660
32560W        W48029   5.546  15.691   2.183 -0.3255 -0.0573  0.2907
32561W        W48030   0.405  15.550  15.361 -0.0804  0.4011 -0.1324
32562W        W48031   5.864   8.868   0.152  0.1316  0.3025  0.1156
32563W        W48032   8.779   3.797  15.579 -0.1943 -0.2292 -0.0022
32564W        W48033  13.360  16.504  13.044  0.3056 -0.1843  0.0650
32565W        W48034   7.175   1.608  13.812  0.1618 -0.1296  0.2866
32566W        W48035   3.236  18.529   4.856  0.1690 -0.2409  0.1105
32567W        W48036  15.955   5.682  14.345 -0.0075  0.0239  0.0147
32568W        W48037  16.210   6.416  10.904  0.1810 -0.1196  0.0323
32569W        W48038   5.946   9.710  12.202  0.1243 -0.0438  0.0758
32570W        W48039  13.299   5.650  13.330 -0.1876  0.0585  0.3359
32571W        W48040  17.680   9.961  13.202 -0.0786  0.2370  0.0965
32572W        W48041   2.456   6.083   0.827 -0.0086 -0.1918  0.1426
32573W        W48042  16.041  14.740  11.608  0.2927 -0.0411 -0.2299
32574W        W48043   8.088   5.769  10.214 -0.1777 -0.1172 -0.3940
32575W        W48044  14.003  17.191  11.195  0.0748 -0.0305  0.0923
32576W        W48045   0.855  13.393  15.276 -0.3324 -0.0093  0.0287
32577W        W48046  15.604   2.563   3.276  0.1555 -0.0629  0.0710
32578W        W48047  14.332   8.230   2.641  0.0251 -0.3059 -0.1643
32579W        W48048  13.830   1.182  15.404  0.1623  0.0533 -0.0554
32580W        W48049   3.462   3.292   4.253 -0.0202 -0.1415  0.0053
32581W        W48050   8.224  14.860  11.217 -0.1518  0.1644 -0.0194
32582W        W48051  14.226  15.918   2.855 -0.0224 -0.2480  0.0061
32583W        W48052  10.658  14.285   0.147 -0.0549 -0.0751  0.1351
32584W        W48053  15.745   2.080   4.052 -0.1498  0.0724 -0.1684
32585W        W48054   7.655  13.361  10.493  0.0139  0.0606  0.0595
32586W        W48055  14.918   6.983   0.465  0.4680 -0.1301 -0.0912
32587W        W48056  18.518  18.354  11.612 -0.2570  0.6210 -0.1709
32588W        W48057  10.424  14.131  12.860  0.2267 -0.3824 -0.1448
32589W        W48058  15.767   1.698  14.509 -0.1750  0.3475 -0.1073
32590W        W48059  13.379   0.530   3.964 -0.6277  0.2866 -0.0049
32591W        W48060   7.957  15.296  11.110  0.3196  0.4230 -0.2325
32592W        W48061   2.529   1.420  14.308 -0.0354  0.1604  0.2809
32593W        W48062   9.697   2.310   3.467 -0.1154  0.0941  0.3124
32594W        W48063  14.448  18.746  12.560  0.1146  0.2894 -0.3084
32595W        W48064   1.637  17.604   2.095 -0.0630  0.3079  0.0699
32596W        W48065  17.584  12.139   1.976 -0.1838  0.2873  0.0980
32597W        W48066   9.513   7.275   4.507 -0.3423  0.1457 -0.2521
32598W        W48067  11.969  12.899   3.022  0.0073  0.5641 -0.2982
32599W        W48068   6.926  15.816  15.313 -0.1361 -0.0178  0.0961
32600W        W48069  18.413   6.001   2.031  0.5746  0.0210 -0.0380
32601W        W48070  10.306  11.402   2.079  0.0537 -0.4897 -0.2440
32602W        W48071   0.685   2.347  15.467  0.2150  0.1035 -0.0652
32603W        W48072   7.381  16.301   2.764  0.0716 -0.1722 -0.0128
32604W        W48073   3.047  11.248  13.030 -0.0984  0.2546  0.4554
32605W        W48074  16.760  18.214   4.873  0.0381  0.4110 -0.0268
32606W        W48075   1.687  14.361  12.184 -0.0787  0.0223  0.0352
32607W        W48076  16.629   1.345  15.601  0.2471  0.0967 -0.3575
32608W        W48077   7.989   3.948  11.013  0.1083 -0.0439  0.3270
32609W        W48078   1.749   6.867  12.772  0.3090  0.3684 -0.0203
32610W        W48079   6.879   2.360  11.894 -0.0975 -0.0106 -0.1883
32611W        W48080   9.725   8.658  14.293  0.1674 -0.0996  0.1128
32612W        W48081   1.007  10.163  13.227 -0.3586 -0.1742  0.2463
32613W        W48082  13.857  14.104   4.635  0.4595 -0.2021 -0.5181
32614W        W48083  10.765   1.004  11.647  0.1114  0.3659 -0.1668
32615W        W48084   3.017  14.645  11.914 -0.0867  0.1227  0.2207
32616W        W48085   4.375   7.620   0.520  0.1789  0.0250 -0.1203
32617W        W48086  10.706  17.566   4.904  0.1645  0.0233 -0.0120
32618W        W48087   7.413   0.187  12.929  0.1349 -0.1352  0.1225
32619W        W48088   4.947   5.449   4.427  0.0359 -0.3135  0.0234
32620W        W48089   9.975   6.553   2.343  0.1070 -0.2911  0.1311
32621W        W48090  17.791  12.594  11.994  0.2492  0.3344 -0.0741
32622W        W48091   0.447   3.835  12.847  0.0390 -0.0840  0.1046
32623W        W48092  12.487  17.767  13.366 -0.0267  0.2683  0.0977
32624W        W48093   7.131  10.842   1.663  0.1662 -0.0222 -0.0679
32625W        W48094   3.937   3.373  11.551 -0.0798  0.0793 -0.0072
32626W        W48095   8.580  17.385  14.201  0.1159  0.2514 -0.1450
32627W        W48096  16.794  15.488   2.260 -0.2216  0.1564  0.1277
32628W        W48097   4.803   0.571   1.160 -0.0491 -0.1031  0.1523
32629W        W48098   7.318   9.349   0.916  0.0640  0.0234  0.3045
32630W        W48099  16.431   3.747  14.384  0.0191 -0.0764  0.1465
32631W        W48100   2.740   9.774  15.245 -0.0066 -0.1494 -0.2162
32632W        W48101  11.638  11.452   0.824 -0.1229 -0.0880 -0.1908
32633W        W48102  14.292  10.067   2.552  0.1566 -0.0355  0.4764
32634W        W48103   9.658  12.365  12.887  0.1645  0.0858  0.1093
32635W        W48104  10.096   0.665  14.370  0.0322  0.1653  0.1556
32636W        W48105   9.389   9.534   0.491  0.0341  0.2815 -0.0869
32637W        W48106  10.116   7.108  15.381  0.4238  0.2799 -0.1958
32638W        W48107   6.264   7.503  13.118  0.0794  0.1107  0.1086
32639W        W48108   8.496  10.341   9.933  0.0662 -0.2350 -0.4670
32640W        W48109   5.015   4.471   3.843 -0.1090  0.0119 -0.1338
32641W        W48110  16.644  15.866   4.429  0.4435 -0.1667 -0.2819
32642W        W48111   3.004   6.192   3.885 -0.4356 -0.2853 -0.2308
32643W        W48112  17.673  12.695   1.849  0.1719  0.2272 -0.1526
32644W        W48113   1.310   5.579   0.536 -0.3990 -0.1881 -0.0445
32645W        W48114  11.427  18.601  13.309  0.1269  0.0870  0.2726
32646W        W48115  10.278   9.768  11.643  0.0475 -0.2164  0.1583
32647W        W48116  13.435   4.413  12.439 -0.1765  0.3078  0.0170
32648W        W48117  12.792  13.142  14.519 -0.1164  0.2639  0.2796
32649W        W48118   0.716  17.407   1.320 -0.0715  0.0537 -0.0698
32650W        W48119   5.228  10.649   3.588  0.1827  0.2461 -0.1443
32651W        W48120  12.986  18.516  14.022  0.0267 -0.3418 -0.1314
32652W        W48121  13.364   2.093   5.647 -0.1108 -0.1624 -0.2327
32653W        W48122   1.690  18.245   0.881  0.4112 -0.1962  0.0556
32654W        W48123  17.641   1.036   9.988 -0.0850 -0.0769 -0.1017
32655W        W48124   3.707  10.989   4.691 -0.1913 -0.1304  0.2278
32656W        W48125   6.975   3.267  13.091 -0.1708  0.0347 -0.0706
32657W        W48126  11.352  16.817   1.925  0.0172  0.0458 -0.2336
32658W        W48127  12.075  17.884   4.467  0.0747  0.1643  0.0565
32659W        W48128   7.656   2.879  14.176  0.2105  0.0922 -0.1862
32660W        W48129   5.385  14.726   4.987 -0.0754 -0.1063 -0.1961
32661W        W48130  11.041   4.923  13.777  0.1292  0.1204 -0.4382
32662W        W48131   5.925  12.097   3.156 -0.1199 -0.1701 -0.1282
32663W        W48132  14.925   5.835  13.269  0.0664 -0.2165 -0.4442
32664W        W48133   2.515  16.391  14.707  0.2374 -0.0412 -0.0792
32665W        W48134  18.547  15.460  13.118  0.0474 -0.1692 -0.2348
32666W        W48135  12.329   4.922  11.859  0.0303 -0.1528  0.0196
32667W        W48136   9.502  14.582  13.739  0.1948 -0.0239 -0.0037
32668W        W48137  18.372  11.910   4.679  0.0122  0.1575  0.2107
32669W        W48138   1.312   5.445   1.912 -0.2546  0.2887 -0.0223
32670W        W48139  15.662   1.998   1.623 -0.1621 -0.0084  0.1161
32671W        W48140  10.391  15.309  10.848  0.0083 -0.1197  0.0653
32672W        W48141  11.343   1.079  13.492 -0.1559 -0.1723 -0.1314
32673W        W48142   1.203  16.142  14.058 -0.2043 -0.0074  0.0608
32674W        W48143   8.839   0.699  10.630  0.0278  0.0972  0.2410
32675W        W48144  12.733  12.176   0.781 -0.0693  0.1029  0.1650
32676W        W48145  18.060   7.951   0.535  0.0372  0.0006  0.1065
32677W        W48146   0.336  16.720  11.333  0.3884  0.0450  0.2459
32678W        W48147   6.672   1.591  14.021 -0.2437 -0.1171 -0.5003
32679W        W48148   5.303   6.056   2.925  0.1775 -0.0590  0.0418
32680W        W48149   4.321   9.313  14.875  0.0815  0.0144 -0.3060
32681W        W48150  12.091   6.602   3.578 -0.2690 -0.1820 -0.0393
32682W        W48151  17.682   0.176   3.917 -0.0450 -0.0054  0.2224
32683W        W48152   6.624  10.231   1.680  0.2698 -0.1365  0.2258
32684W        W48153  10.686   5.854  15.670  0.2097 -0.2148 -0.0642
32685W        W48154  13.196  14.985  13.994  0.0727  0.0157  0.1041
32686W        W48155  11.513  13.561  13.382 -0.1055  0.1808 -0.0286
32687W        W48156  14.330  16.829   2.569  0.2545  0.0100 -0.1442
32688W        W48157   4.273   3.574  12.516  0.1214  0.1582 -0.0191
32689W        W48158  11.926   5.674   3.538  0.3162  0.3137  0.1528
32690W        W48159  15.425   4.531   2.992 -0.2726 -0.1224 -0.2848
32691W        W48160   0.758  18.284  14.897 -0.2005  0.3054 -0.4720
32692W        W48161   4.175   6.886  12.875 -0.2422 -0.0889  0.0272
32693W        W48162  13.207  18.578  12.401  0.1471  0.4155 -0.0818
32694W        W48163   0.231  16.481  13.209 -0.0211  0.1671 -0.0406
32695W        W48164   2.382   4.525   0.632 -0.0837 -0.1914 -0.1779
32696W        W48165   5.868  12.260   2.154 -0.1018 -0.1599  0.0569
32697W        W48166   4.721   8.867  11.361  0.1659 -0.1171 -0.1687
32698W        W48167  15.517  12.520  14.003  0.3570 -0.1462  0.0470
32699W        W48168   2.207   6.913   1.487  0.0404  0.3392 -0.0742
32700W        W48169  11.054   5.030  11.608  0.1251 -0.0692 -0.2406
32701W        W48170  18.423   4.271  12.890 -0.2639 -0.0319  0.1119
32702W        W48171   6.312  16.510  15.659  0.1612  0.0048 -0.1566
32703W        W48172  16.913  18.373  14.417  0.0063 -0.0570  0.3128
32704W        W48173  12.889  18.243   3.677  0.0071  0.2278 -0.0771
32705W        W48174   0.166  15.453  11.787  0.0273 -0.0681  0.0833
32706W        W48175   4.796  15.425  12.258 -0.0550 -0.1619 -0.1375
32707W        W48176  16.894  15.837   3.142  0.0385  0.5435 -0.2142
32708W        W48177   6.899  10.737  15.251  0.1035 -0.1757 -0.1213
32709W        W48178   0.327   9.805   1.052 -0.2316  0.1199 -0.1553
32710W        W48179   9.713   0.047   1.324 -0.0326 -0.0415 -0.0787
32711W        W48180  16.910   4.389   1.758 -0.1712  0.3198  0.2061
32712W        W48181  15.417  14.663  12.192  0.0769  0.2811  0.3317
32713W        W48182   5.724   7.747   1.404 -0.2624  0.4057  0.6516
32714W        W48183  17.625   0.539  10.189 -0.0052  0.0148  0.0902
32715W        W48184   7.007   7.068  14.367  0.0745 -0.1332 -0.1362
32716W        W48185   5.262  14.246  11.461 -0.0422  0.2119 -0.0528
32717W        W48186  18.261   8.608  10.486 -0.1792 -0.0530  0.1213
32718W        W48187   9.138  13.730  11.802  0.3178 -0.1909  0.1532
32719W        W48188   9.104   0.895   3.431  0.1499 -0.1709  0.4224
32720W        W48189  10.235   4.770   1.972  0.0334 -0.1633  0.1155
32721W        W48190   5.969  12.746   2.399 -0.3643  0.1057  0.2852
32722W        W48191  11.714   0.836   0.810 -0.4911 -0.0878  0.1400
32723W        W48192   3.377   1.229  13.793 -0.0587 -0.1598 -0.0857
32724W        W48193  18.016   1.873  14.281 -0.0322 -0.0429 -0.0966
32725W        W48194   6.865  13.687  13.602 -0.2372  0.0091  0.1307
32726W        W48195  18.462   7.692   0.352  0.1741 -0.0080  0.0657
32727W        W48196  18.199  14.098   0.190  0.1068  0.1305  0.2969
32728W        W48197   9.626   4.466   1.523  0.2723  0.0276  0.0939
32729W        W48198   8.633   0.915  15.489 -0.0755  0.0644 -0.3798
32730W        W48199  12.254   8.787  11.605 -0.2183  0.0516 -0.1743
32731W        W48200  16.731  10.270   4.679 -0.3338 -0.3684 -0.0171
32732W        W48201   1.888  11.040  12.744  0.0316  0.0199 -0.0175
32733W        W48202  16.448   1.793  11.956 -0.0498 -0.1290  0.2568
32734W        W48203   2.328   6.343  14.918 -0.1808  0.0891  0.0709
32735W        W48204   1.841  11.818  10.901  0.2683  0.1923 -0.1018
32736W        W48205  17.544   1.592   3.701 -0.2921 -0.1131 -0.1540
32737W        W48206   0.295   8.739   2.340 -0.0824 -0.1050 -0.0827
32738W        W48207  16.920  12.279  14.556 -0.0384  0.1702 -0.3587
32739W        W48208  15.424   2.693  14.453  0.1065 -0.3098  0.1276
32740W        W48209  14.531  11.756   4.258 -0.0797  0.0222  0.1457
32741W        W48210   2.119  15.914  12.112 -0.1836 -0.0499 -0.2492
32742W        W48211   7.742  14.061   0.683  0.1780  0.0166 -0.1915
32743W        W48212   1.153  15.054  13.604  0.2695  0.1218 -0.0153
32744W        W48213   8.605  16.686   0.745 -0.2098  0.1367 -0.2449
32745W        W48214   2.726   9.868   2.088  0.0277  0.1324 -0.0973
32746W        W48215  15.529  16.693   5.919 -0.1620  0.0044  0.1418
32747W        W48216  16.693  18.314   2.721  0.0027 -0.0537  0.1911
32748W        W48217  18.303  17.683  13.342 -0.0151 -0.1214 -0.5352
32749W        W48218  12.784   8.461  13.617  0.1034 -0.0581  0.1165
32750W        W48219   9.268   4.192   4.503  0.1053 -0.0216 -0.0788
32751W        W48220   7.440   5.357  14.981  0.3956 -0.2449 -0.0806
32752W        W48221  12.864  15.423  14.351 -0.1330  0.0212 -0.1751
32753W        W48222  17.871   8.549  13.467 -0.0118  0.2170 -0.3647
32754W        W48223  15.830   5.097  15.408  0.2115  0.0706  0.1033
32755W        W48224  18.004  13.095   0.985  0.2082  0.1250 -0.0917
32756W        W48225  16.196   7.267   9.849  0.0941 -0.0486  0.4179
32757W        W48226   9.692   6.692  14.674 -0.4836  0.1883 -0.0344
32758W        W48227  18.520   5.417   1.301  0.3257  0.0523  0.1422
32759W        W48228  10.103  17.920  14.176  0.0675 -0.3377 -0.2509
32760W        W48229   4.849  12.558   1.289 -0.0299 -0.2030 -0.1067
32761W        W48230  16.219  12.980  11.752 -0.1521  0.2438 -0.2371
32762W        W48231  16.408  10.921   0.406 -0.0914  0.0920 -0.0970
32763W        W48232  10.179  17.549  14.725 -0.0824 -0.1174 -0.2279
32764W        W48233   4.839   5.278   0.151 -0.1255  0.1545 -0.2097
32765W        W48234  10.488  14.282   4.248  0.0894 -0.2628 -0.0571
32766W        W48235  15.709   3.718   5.188 -0.2266  0.1249  0.0921
32767W        W48236   9.047  17.324  14.645 -0.3427  0.0312 -0.3572
32768W        W48237  12.111   1.567   2.082 -0.1897  0.0895 -0.2426
32769W        W48238  17.200  14.227   1.149  0.1629 -0.0903 -0.1121
32770W        W48239  10.622   9.759  10.868 -0.1522 -0.4711  0.0107
32771W        W48240   1.752   3.282   1.947 -0.3281 -0.3136  0.1261
32772W        W48241  14.345   6.061   1.112 -0.0799 -0.2169 -0.2125
32773W        W48242   6.337   8.631   0.978  0.0160 -0.0660  0.3080
32774W        W48243  14.087  13.700   2.878 -0.0487 -0.2042  0.2768
32775W        W48244  13.812   1.579   1.167  0.1219  0.1373  0.1977
32776W        W48245  14.066  13.212   1.079 -0.3007  0.1267 -0.1840
32777W        W48246   9.759  13.242  14.688 -0.0119  0.0161  0.3398
32778W        W48247   4.657   6.107   4.107  0.3223 -0.0393 -0.1519
32779W        W48248   7.239   5.112   2.267  0.1967  0.0133 -0.1241
32780W        W48249  13.240  12.222   0.882  0.0226  0.2885  0.4099
32781W        W48250  15.893  11.974  13.990  0.1565 -0.2961 -0.1123
32782W        W48251   9.711  10.598  13.586  0.1230  0.0047 -0.0448
32783W        W48252  14.438   7.304  13.592 -0.2250 -0.2924  0.4904
32784W        W48253  12.763   4.091  10.257 -0.2495  0.2779 -0.0945
32785W        W48254   4.888   9.885  13.666 -0.0810  0.1242 -0.0722
32786W        W48255   0.613   9.111   4.515 -0.1448 -0.3534 -0.0200
32787W        W48256  12.267  14.533   0.711 -0.1493  0.0950 -0.0623
32788W        W48257  15.489   5.040  12.927  0.4014 -0.1420  0.0266
32789W        W48258  16.538  16.362  14.811 -0.2332 -0.2620 -0.2145
32790W        W48259  11.688   2.899   1.096 -0.1210  0.1659  0.0674
32791W        W48260  12.346  11.109  10.378  0.1846 -0.1766 -0.1434
32792W        W48261   3.695   1.989   9.802  0.2140 -0.1489 -0.0398
32793W        W48262  14.743   2.590   2.568  0.0209  0.2864  0.0387
32794W        W48263  16.590   1.755   5.091  0.0519  0.0356  0.1036
32795W        W48264  17.577  14.845   2.017  0.1120 -0.1846  0.3741
32796W        W48265   1.580  14.795   2.114  0.4444  0.0583 -0.0438
32797W        W48266  14.292  15.875  13.548  0.0065 -0.1967 -0.0849
32798W        W48267  14.316   3.401   1.569 -0.1436 -0.3087  0.0824
32799W        W48268  17.913  14.149  12.952 -0.3002 -0.1248 -0.0667
32800W        W48269   3.660   4.796   2.104 -0.0517 -0.1307  0.0813
32801W        W48270   9.493   1.022   2.205 -0.0069  0.1487  0.0153
32802W        W48271   9.297   6.599   2.750 -0.1174 -0.1328  0.0093
32803W        W48272   6.695   9.821   0.290 -0.3444  0.2694 -0.1130
32804W        W48273  15.915  15.328   2.051  0.1499 -0.0474 -0.1269
32805W        W48274  18.480   5.476   5.723  0.0260 -0.0118 -0.0802
32806W        W48275   0.623   6.197  13.852  0.3449 -0.0200 -0.0195
32807W        W48276   7.954   9.653  11.070  0.1878 -0.0046 -0.0339
32808W        W48277   3.200   6.687   3.099  0.1509 -0.4785 -0.4700
32809W        W48278   5.529  10.340   4.531  0.0476 -0.0445 -0.0665
32810W        W48279   6.931  10.211  14.235 -0.0106  0.1459  0.0321
32811W        W48280   9.655  14.017  13.238  0.2905  0.1173 -0.0421
32812W        W48281  14.803  15.909  12.528  0.0782 -0.2342  0.1371
32813W        W48282  14.782  13.568   1.685  0.0035 -0.3821 -0.0535
32814W        W48283   6.716   3.533  14.098  0.0344  0.1201  0.2344
32815W        W48284   9.938  14.665  15.474 -0.1716 -0.0049 -0.1789
32816W        W48285  16.342  16.006  14.452 -0.0482 -0.4350  0.0053
32817W        W48286  14.921  13.902  11.309 -0.1698 -0.4242  0.0943
32818W        W48287   5.510   6.761   3.914  0.1654 -0.0752 -0.2451
32819W        W48288  11.371   6.630   5.545 -0.3900 -0.1685  0.1165
32820W        W48289   1.129   8.290  10.408  0.0388 -0.3210  0.0268
32821W        W48290   8.847   1.356   2.946 -0.1248 -0.1463 -0.1593
32822W        W48291   3.027  17.582   5.063  0.2987  0.2649 -0.3896
32823W        W48292   3.301  15.078  12.049 -0.0994 -0.0891 -0.0879
32824W        W48293   8.676  10.082   2.820 -0.0076  0.1950 -0.1066
32825W        W48294   4.941   3.063   0.814  0.0153 -0.1122  0.3402
32826W        W48295   9.595  11.847  11.499 -0.2089 -0.3967 -0.0087
32827W        W48296  11.079   0.660   5.760 -0.1100  0.1758 -0.1687
32828W        W48297  17.992   2.440  13.474 -0.1128 -0.0029 -0.0100
32829W        W48298   8.384   4.736  13.192 -0.0563  0.1388  0.2552
32830W        W48299  10.552  12.343  12.415 -0.1013  0.0849  0.0466
32831W        W48300  14.708  15.357  14.150 -0.3949  0.0421 -0.0353
32832W        W48301  12.113   7.365  12.175 -0.0448  0.1020  0.0249
32833W        W48302   6.901  15.998  11.259  0.0659 -0.3258 -0.0381
32834W        W48303   0.767  11.479   3.757  0.2918 -0.1885  0.2439
32835W        W48304  14.244   0.973   0.400 -0.1064  0.0792  0.0321
32836W        W48305  13.027   4.307   5.987  0.4151  0.1833 -0.1076
32837W        W48306   5.762  15.517  12.163  0.0984  0.5994 -0.1409
32838W        W48307   9.001   1.115   4.811  0.0025  0.1381  0.1643
32839W        W48308   1.167  16.733   4.367  0.0529  0.0597 -0.1149
32840W        W48309   8.332   7.721  13.956 -0.1721  0.1306  0.0922
32841W        W48310   6.390  12.366  10.527 -0.0785  0.1930 -0.1866
32842W        W48311   9.596  11.505  14.505  0.2791  0.0749  0.2493
32843W        W48312   1.445  13.439  14.451  0.1237  0.0330  0.0354
32844W        W48313   5.717  18.292  15.163 -0.0276  0.0736  0.2824
32845W        W48314   7.746  12.755   3.200 -0.4224  0.1673 -0.2004
32846W        W48315   3.055   8.363   3.650 -0.1455  0.2433  0.0779
32847W        W48316  13.421   3.489  14.033  0.0417 -0.0640 -0.0066
32848W        W48317   3.596  11.941   0.885  0.4907 -0.0631  0.0865
32849W        W48318  11.309  15.690   3.418 -0.0541  0.2173 -0.1868
32850W        W48319   0.637   6.008  11.519  0.0259 -0.0160  0.4010
32851W        W48320  14.901   4.191   0.026  0.0586  0.1535 -0.0344
32852W        W48321   8.454   5.649   0.757 -0.1089  0.2205  0.1523
32853W        W48322   5.116   0.317   4.577  0.0524 -0.1205 -0.2412
32854W        W48323   8.427  16.391   2.850 -0.0467  0.0063 -0.2081
32855W        W48324   3.848  14.600  13.194 -0.2516  0.0784 -0.1715
32856W        W48325   5.471   7.566   3.106 -0.3438 -0.1432 -0.0895
32857W        W48326   1.835  11.133  13.771  0.3810 -0.3210  0.0522
32858W        W48327  12.921   2.799   0.474  0.1294 -0.2603  0.0263
32859W        W48328   1.814  15.510  11.331  0.1576  0.0762  0.2714
32860W        W48329  12.501   0.110   4.740 -0.0135 -0.1352  0.1288
32861W        W48330  10.364   5.245   1.791  0.0669 -0.0190 -0.2848
32862W        W48331   4.392  17.216   1.043 -0.0338 -0.0520  0.1781
32863W        W48332  15.233  11.559  14.242  0.1455  0.1740 -0.1081
32864W        W48333   8.513  15.187   4.864 -0.2035  0.0277  0.1357
32865W        W48334   3.725  17.713  12.938  0.0872 -0.2983 -0.3070
32866W        W48335  10.051   1.770  10.545  0.2333 -0.3302 -0.1254
32867W        W48336   0.122   2.954  12.785  0.3475 -0.1163  0.2765
32868W        W48337  15.842  16.774  12.585  0.5177 -0.0518 -0.2632
32869W        W48338  15.542   0.409   2.730  0.1939  0.2613  0.0059
32870W        W48339   0.158  18.123  10.016 -0.1619 -0.0498  0.1275
32871W        W48340  15.218  13.663  13.156  0.2191 -0.2378 -0.3446
32872W        W48341   1.648  17.215  13.914  0.2072  0.0128  0.0373
32873W        W48342   5.364   0.425  10.603 -0.2825 -0.0278 -0.1553
32874W        W48343  17.197  13.865   4.168  0.1196  0.1102  0.1399
32875W        W48344  13.863   3.398  11.368 -0.0768  0.1754  0.0273
32876W        W48345  15.928  11.375  15.216  0.0046 -0.0875 -0.0643
32877W        W48346  18.668  14.535  10.709  0.3106 -0.0312  0.0757
32878W        W48347   0.570   5.760   4.070  0.3536  0.3289  0.0865
32879W        W48348   2.227  16.380  13.845  0.2616 -0.3210  0.2208
32880W        W48349   9.318  17.077   0.300  0.2730  0.1390  0.0344
32881W        W48350  16.034  17.480   2.151 -0.2443  0.0979 -0.1752
32882W        W48351   5.996  10.404  14.376  0.5685 -0.0878  0.1579
32883W        W48352   3.480   0.599   3.077  0.0278 -0.0316 -0.0382
32884W        W48353   1.242   0.074   5.706  0.1526 -0.3505  0.1161
32885W        W48354   6.541   8.252   1.924 -0.4835 -0.0234 -0.0621
32886W        W48355   3.309   8.958   4.369 -0.2954 -0.0227 -0.2004
32887W        W48356  16.248  10.118   6.017 -0.0574  0.0657 -0.2874
32888W        W48357  12.651  18.623   0.259 -0.0427 -0.0121  0.0086
32889W        W48358   3.711  11.691   0.104  0.1046 -0.1364 -0.0145
32890W        W48359   6.509   1.987   4.776 -0.0299 -0.2372 -0.1582
32891W        W48360  10.518   2.864  13.867  0.0807 -0.1146  0.0550
32892W        W48361   4.422   0.751  12.616 -0.0875 -0.0752  0.1089
32893W        W48362  14.222  13.980   2.445 -0.2135 -0.4866  0.3374
32894W        W48363  14.938  17.044  13.813  0.1492  0.0299 -0.0790
32895W        W48364   2.457   1.903  12.292  0.1236 -0.1224 -0.2884
32896W        W48365   6.145  17.500  12.210 -0.2391  0.0842 -0.2684
32897W        W48366   8.287   8.994  10.625  0.0481  0.3201 -0.1349
32898W        W48367  14.277  16.919   3.064 -0.1050 -0.1186  0.0136
32899W        W48368   8.207   6.752  15.489 -0.0796  0.0395 -0.1167
32900ION     NA48369   4.216   0.926   6.318 -0.1816  0.0276 -0.0340
32901ION     NA48370  18.781  15.927  10.421 -0.0679 -0.2085  0.1803
32902ION     NA48371  15.701  10.034   4.658 -0.2990 -0.1952  0.1152
32903ION     NA48372   9.721  15.132  10.268  0.0285 -0.1387 -0.0078
32904ION     NA48373  11.368   4.126   5.740  0.0861 -0.0744  0.3236
32905ION     NA48374  15.252   0.099  10.003 -0.2288 -0.1208  0.1686
32906ION     NA48375   1.666   8.830   9.848  0.0107  0.2751  0.1243
32907ION     NA48376  12.346   5.266   9.566  0.0412 -0.0054 -0.1516
32908ION     NA48377  17.802   3.571   2.480  0.1950 -0.4717 -0.1458
32909ION     NA48378   6.629   4.848   0.299  0.0671 -0.4702  0.1886
32910ION     NA48379  13.140  14.977  10.254 -0.0349  0.0733  0.3045
32911ION     NA48380  14.288  11.265   5.993 -0.0964  0.3824  0.0332
32912ION     NA48381  16.673   3.124   3.915  0.3756  0.0376 -0.0789
32913ION     NA48382  15.307   0.390   1.634  0.0246  0.0297  0.3307
32914ION     NA48383  17.371   9.582   1.253  0.1983  0.0593 -0.0296
32915ION     NA48384  15.759  17.742  10.104 -0.1224 -0.3109 -0.0324
32916ION     NA48385   2.950  15.909   0.084  0.0186 -0.0041  0.0926
32917ION     NA48386   5.006   3.599   9.853 -0.0899 -0.0200 -0.4329
32918ION     NA48387   4.365   1.351  12.743 -0.1497  0.0546 -0.2887
32919ION     NA48388   5.964  13.048   9.907 -0.2345  0.3361 -0.2769
32920ION     NA48389   7.941  16.675   9.540  0.2664 -0.1736 -0.3783
32921ION     NA48390   7.257   1.682  10.021  0.1294 -0.0274  0.2167
32922ION     NA48391   5.870   9.917   5.312  0.1031  0.1259  0.2768
32923ION     NA48392  14.381   3.151  15.620  0.0232  0.1725  0.0512
32924ION     NA48393   4.445   8.509  15.465  0.1363  0.1027 -0.3463
32925ION     NA48394   4.457  14.395   2.143 -0.1755 -0.0177 -0.0071
32926ION     NA48395   8.225   0.832  15.204  0.0186 -0.0808 -0.0314
32927ION     NA48396   1.279   5.293  10.383  0.0229 -0.3792  0.0028
32928ION     NA48397   6.273  14.772   3.492  0.0661 -0.0251 -0.2812
32929ION     NA48398   5.124  15.718  10.000 -0.0751  0.0724  0.2531
32930ION     NA48399  14.012   5.022  14.314  0.3094  0.3819  0.1144
32931ION     NA48400   7.667   9.155  15.266  0.1923 -0.1215  0.0081
32932ION     NA48401   2.498  11.365   1.026 -0.0654 -0.0707  0.2239
32933ION     NA48402   8.163   4.834   9.977  0.3348 -0.0165  0.3199
32934ION     NA48403  14.095   3.083  12.685 -0.0989 -0.0044  0.1331
32935ION     NA48404  12.959  16.088   0.899 -0.1667 -0.0036 -0.2088
32936ION     NA48405   6.569   3.075  12.824  0.0364 -0.1637 -0.0350
32937ION     NA48406   2.714  18.526   6.034 -0.1511 -0.3492  0.0243
32938ION     NA48407   2.833   8.120   1.688  0.6082  0.0755  0.4664
32939ION     NA48408   3.973   7.763   3.594 -0.0633 -0.1796 -0.2006
32940ION     NA48409  17.299  18.753  14.107  0.2445 -0.0541  0.1346
32941ION     NA48410  17.864   9.099  13.543  0.1124  0.3013 -0.1264
32942ION     NA48411   9.360  12.587  13.643  0.0494  0.1983 -0.0486
32943ION     NA48412   3.144  16.431   6.182  0.0681 -0.0430 -0.1019
32944ION     NA48413  11.686  18.210   9.736  0.1775 -0.0868 -0.4736
32945ION     NA48414   6.656  11.416   4.812 -0.1808  0.0994  0.3116
32946ION     NA48415   9.766  11.999   5.792 -0.0592 -0.1064 -0.0438
32947ION     NA48416   1.041  14.424  12.890 -0.0651  0.0264 -0.1044
32948ION     NA48417  16.441   0.439  10.037  0.4211  0.0501  0.0933
32949ION     NA48418   0.862  12.002   3.523 -0.3090  0.1274  0.1150
32950ION     NA48419  10.352  16.440  13.398  0.1352 -0.2827  0.2748
32951ION     NA48420   7.061   9.995   2.484  0.0511 -0.2557  0.0025
32952ION     NA48421   6.776   6.835   9.724  0.1839  0.2754 -0.0889
32953ION     NA48422   3.961   3.732   9.822 -0.0688  0.2031 -0.2018
32954ION     NA48423   6.603  13.782   0.473 -0.1943  0.2441 -0.2500
32955ION     NA48424   7.601   4.318  15.371 -0.0252 -0.0063  0.3282
32956ION     NA48425  13.620   5.153  13.471  0.1369  0.0389 -0.0530
32957ION     NA48426  12.253  14.356  15.661 -0.0078  0.2893  0.1417
32958ION     NA48427   9.533  18.529   9.496 -0.0337  0.0368  0.0117
32959ION     NA48428  11.670   1.862   9.721  0.2106  0.3399 -0.0614
32960ION     NA48429   0.408  10.159   9.728 -0.1097 -0.0561 -0.0959
32961ION     NA48430   6.250   6.909   3.033 -0.2167 -0.0035 -0.1016
32962ION     NA48431  15.203   2.184   1.463  0.1163 -0.4687  0.0583
32963ION     NA48432   5.716   3.443   5.096 -0.1079 -0.0810 -0.0532
32964ION     NA48433  15.923  10.502   6.020 -0.4548  0.1241  0.3614
32965ION     NA48434   4.592  13.406   5.517 -0.0262 -0.1074 -0.1283
32966ION     NA48435   8.630   5.577   5.535  0.1133 -0.2729 -0.1852
32967ION     NA48436   2.956  11.433  15.363  0.1083  0.0153  0.3264
32968ION     NA48437  17.863   2.074  14.775  0.0276 -0.3755 -0.3494
32969ION     NA48438  18.340   4.041   3.208  0.5139 -0.1632 -0.0673
32970ION     NA48439  11.223  11.975   3.614 -0.3483 -0.1650  0.0544
32971ION     NA48440  11.430  12.242  10.309  0.0024 -0.1576 -0.1585
32972ION     NA48441   7.484  12.082   5.110 -0.2657  0.0762 -0.1965
32973ION     NA48442  17.661  17.808   2.430  0.0239 -0.0147  0.1409
32974ION     NA48443  13.218   2.521   9.645 -0.1073  0.1531 -0.0354
32975ION     NA48444   4.852   1.815  14.408 -0.1899  0.1698  0.7041
32976ION     NA48445   8.998   4.053   4.010 -0.2190 -0.1049 -0.2555
32977ION     NA48446   7.528   0.844   0.450 -0.2289 -0.3249 -0.1116
32978ION     NA48447  13.540  15.746   5.179  0.3206 -0.2845 -0.0300
32979ION     NA48448   1.482   1.492   5.557  0.1763 -0.0265  0.2722
32980ION     NA48449   8.195  14.174  14.898  0.1992 -0.2441 -0.0244
32981ION     NA48450   8.310   9.455   9.813 -0.2338  0.1504  0.0814
32982ION     NA48451  11.086   1.494   1.876  0.1923 -0.1527  0.3062
32983ION     NA48452   7.803  13.579   9.674  0.5061  0.0856 -0.2894
32984ION     NA48453  16.081   2.292   6.118 -0.1857  0.3313  0.3476
32985ION     NA48454   4.884  17.791   5.922  0.2409  0.0478 -0.1235
32986ION     NA48455  11.713   4.175  15.189 -0.2307 -0.0700 -0.2397
32987ION     NA48456   2.648  11.831  10.027 -0.3089 -0.0981  0.2278
32988ION     NA48457   4.371   8.572   9.796  0.0633  0.3178 -0.0490
32989ION     NA48458  15.409  12.625  10.407  0.2913  0.2149 -0.0685
32990ION     NA48459  17.900   8.636   3.067 -0.0070  0.2028  0.0494
32991ION     NA48460  16.755  16.745   0.341  0.0370  0.4230 -0.0226
32992ION     NA48461  16.629  14.454   5.491  0.0856 -0.1603 -0.0616
32993ION     NA48462  12.158  17.149   9.740  0.2896 -0.1831  0.1095
32994ION     NA48463   3.737  11.115   3.825 -0.0177 -0.0643  0.2139
32995ION     NA48464  12.058  17.743   9.638  0.0803 -0.2571  0.0702
32996ION     NA48465  12.985  10.214   5.240 -0.0177 -0.2208  0.2605
32997ION     NA48466  18.546   5.407   3.908 -0.0792 -0.1705 -0.3168
32998ION     NA48467  16.903   2.335   1.048 -0.2115 -0.3327  0.3947
32999ION     NA48468  13.245  17.746  13.948  0.1231 -0.0459  0.0422
33000ION     NA48469   0.242   2.792   3.995 -0.0917 -0.1822 -0.0799
33001ION     NA48470   1.977   6.759   9.745  0.2802 -0.0128  0.2138
33002ION     NA48471  16.691   6.932   9.934 -0.0612  0.1571 -0.0532
33003ION     NA48472  11.452   7.702   5.917  0.0708 -0.2259 -0.1385
33004ION     NA48473   8.594   9.734   2.469 -0.0437  0.1790  0.3413
33005ION     NA48474   8.109   0.515   5.351  0.2733  0.1139  0.2023
33006ION     NA48475  10.699  10.806  10.160 -0.0968 -0.0756 -0.2308
33007ION     NA48476   2.868   8.428   5.340 -0.0724  0.1377 -0.0596
33008ION     NA48477   4.723   5.644   9.752 -0.1197 -0.0686 -0.1102
33009ION     NA48478  11.221   4.865  14.298 -0.4496 -0.0750  0.2533
33010ION     NA48479  16.527  11.219  15.629 -0.0511 -0.3346  0.0295
33011ION     NA48480   7.551   8.340   9.974  0.0347 -0.0480 -0.0876
33012ION     NA48481   2.709   3.621   1.815  0.4364  0.0192 -0.4445
33013ION     NA48482   8.399  10.799   9.703 -0.0493  0.0886  0.3112
33014ION     NA48483  14.156  14.899  11.855 -0.1851  0.1567  0.1374
33015ION     NA48484   9.866   3.441  11.387  0.1366 -0.2065  0.4319
33016ION     NA48485  12.898  16.365  13.779 -0.2707  0.1610 -0.1020
33017ION     NA48486  10.446  13.941   3.069 -0.0591  0.3363  0.3018
33018ION     NA48487   8.106   0.069   9.547  0.3549 -0.0664  0.0917
33019ION     NA48488   5.505   7.271   1.180  0.1830 -0.0673 -0.4096
33020ION     NA48489   8.970  14.582  15.599 -0.0810  0.0775 -0.2494
33021ION     NA48490   1.411  12.057  13.703  0.3596 -0.1417  0.0851
33022ION     NA48491   9.330   9.046   0.706  0.0885 -0.3081 -0.1075
33023ION     NA48492   3.491   8.585   2.483 -0.0202 -0.2327 -0.2610
33024ION     NA48493   3.394  13.687  10.574 -0.0740  0.2575 -0.0737
33025ION     NA48494  18.782   7.416   3.988 -0.1189  0.2316 -0.3616
33026ION     NA48495  11.239   4.575   5.330 -0.1343 -0.3060  0.0239
33027ION     NA48496   7.815   7.158   5.537 -0.0820 -0.1411 -0.1820
33028ION     NA48497  16.234  12.496   0.574 -0.4313  0.3700 -0.2374
33029ION     NA48498   0.196   4.719   5.829 -0.1768 -0.0117 -0.4589
33030ION     NA48499  11.233  13.344  10.219  0.0947 -0.1560  0.2357
33031ION     NA48500  17.466  16.158  13.220 -0.0955 -0.2513  0.1975
33032ION     NA48501  18.603  11.939  15.096  0.0260 -0.0845  0.0180
33033ION     NA48502   5.247  16.772   3.606 -0.2820  0.1231 -0.0074
33034ION     NA48503  17.225   0.218   1.018  0.0880  0.2052  0.1372
33035ION     NA48504  14.136  16.865  12.058 -0.2346  0.0158 -0.0644
33036ION     NA48505  10.614   0.148   1.990 -0.0217  0.2216 -0.1224
33037ION     NA48506  13.284  11.495  15.287 -0.1446  0.2088  0.2833
33038ION     NA48507  13.335   4.915   9.792 -0.1664 -0.2931  0.0812
33039ION     NA48508   1.831   1.432   3.681  0.4117 -0.0454 -0.1056
33040ION     NA48509  14.341  10.834  15.582 -0.0319 -0.1328  0.3371
33041ION     NA48510   6.816   9.830   9.466  0.0617  0.1979  0.1579
33042ION     NA48511  18.228   0.257   1.747  0.1217  0.2983  0.0596
33043ION     NA48512   4.975   3.197   3.785  0.0158 -0.1835 -0.1368
33044ION     NA48513   6.938  16.524   9.783 -0.3635  0.1490  0.0040
33045ION     NA48514  12.492  13.118  10.269 -0.2850 -0.2256  0.1308
33046ION     NA48515   8.931  10.397   5.268 -0.1890 -0.1582  0.0022
33047ION     NA48516   3.811  12.888  11.161 -0.0061  0.3638 -0.1590
33048ION     NA48517  16.020  14.169  13.472  0.1808  0.3246  0.0683
33049ION     NA48518   9.791  15.727   5.158 -0.3095 -0.1927 -0.0633
33050ION     NA48519   1.462   3.965   5.789  0.2095  0.4333  0.4884
33051ION     NA48520  12.208   3.293   9.744 -0.1173  0.1837  0.2663
33052ION     NA48521  18.336   5.018   5.918  0.0357 -0.2456 -0.1838
33053ION     NA48522   8.007   5.783   9.679 -0.0810 -0.3494  0.3385
33054ION     NA48523   5.801  14.469   9.707 -0.2494  0.2124  0.0298
33055ION     NA48524   7.383   5.981   5.644 -0.3547  0.1993 -0.0644
33056ION     NA48525   0.081  11.966   1.813  0.0354  0.0626 -0.1529
33057ION     NA48526  14.032   2.062   9.831 -0.1721  0.1088  0.0635
33058ION     NA48527   1.633   4.874  12.203  0.1536 -0.2003 -0.1151
33059ION     NA48528   4.486   5.208   2.604 -0.0754 -0.2051  0.3318
33060ION     NA48529  16.755  11.252  12.885  0.0669 -0.2827 -0.2093
33061ION     NA48530  10.088  15.015   0.559 -0.0295  0.0147 -0.0814
33062ION     NA48531   0.530   4.241   0.162 -0.2737 -0.0813  0.0825
33063ION     NA48532  13.848  15.443  14.404 -0.0247 -0.1678  0.0121
33064ION     NA48533  12.883  17.991   5.537 -0.0912 -0.0322 -0.0447
33065ION     NA48534   0.904  13.063  10.279  0.2293 -0.3844  0.1922
33066ION     NA48535   7.197   3.196  10.215 -0.0399  0.0101  0.0096
33067ION     NA48536   3.164  17.368  10.293 -0.0529  0.0601 -0.0361
33068ION     NA48537   9.902   5.218  14.311  0.1602  0.2455  0.0861
33069ION     NA48538   7.809   2.354   1.495 -0.2028 -0.1346 -0.0614
33070ION     NA48539   2.872   6.648   9.766  0.0373 -0.0217  0.2051
33071ION     NA48540  16.440   3.268   0.793  0.0004  0.7723  0.0368
33072ION     NA48541   0.448   5.216  13.018 -0.2637  0.3237 -0.2184
33073ION     NA48542   7.622   8.137   1.951  0.0774  0.0335 -0.1252
33074ION     NA48543   8.516   8.283  11.057 -0.0842  0.0438  0.2431
33075ION     NA48544   1.579   3.007   3.817 -0.2419  0.3446  0.1098
33076ION     NA48545   1.753  17.802   6.042 -0.1795 -0.3694 -0.3361
33077ION     NA48546   0.244  12.696  10.664 -0.2327  0.1020 -0.0166
33078ION     NA48547  10.915   2.155   4.688  0.0439 -0.0447  0.1454
33079ION     NA48548  16.914  16.143  10.275 -0.3067 -0.2020 -0.0536
33080ION     NA48549   7.127  15.657  13.971 -0.2715  0.4241 -0.1617
33081ION     NA48550   6.601  13.732   9.777 -0.0733  0.0458  0.2400
33082ION     NA48551  14.988   5.889  10.182  0.0290  0.2715  0.2148
33083ION     NA48552  17.440   1.474  10.063 -0.0436  0.0994 -0.1863
33084ION     NA48553   3.838   5.604   9.701 -0.5893  0.2288  0.3892
33085ION     NA48554   3.702  16.427  11.700  0.0326  0.1565 -0.2211
33086ION     NA48555   8.354   7.460  12.470 -0.0045 -0.0190 -0.0911
33087ION     NA48556   6.662  18.632  10.851  0.4186 -0.0709  0.1514
33088ION     NA48557  14.026   8.453  10.254  0.5306 -0.2005  0.1116
33089ION     NA48558  13.825   6.470   1.858  0.1908  0.2403 -0.0362
33090ION     NA48559   6.807   5.506   2.260 -0.2800 -0.3434 -0.0985
33091ION     NA48560  15.068  10.497  10.351 -0.0681 -0.2016 -0.1030
33092ION     NA48561  12.829  12.618   5.891  0.3250  0.3272 -0.1134
33093ION     NA48562   3.625  18.292   6.277 -0.1058  0.1551  0.3050
33094ION     NA48563   4.454  10.965   0.557 -0.1490 -0.0636 -0.1747
33095ION     NA48564   1.367  15.419   0.544  0.0675 -0.1016 -0.1028
33096ION     NA48565   1.960  16.297   3.181  0.0865 -0.0903 -0.1757
33097ION     NA48566   0.739   0.584  10.112  0.0103 -0.0138  0.1303
33098ION     NA48567  14.125   6.425   9.823 -0.4555  0.2548  0.2881
33099ION     NA48568  10.465   1.555  11.279  0.0904  0.2613 -0.4088
33100ION     NA48569  18.541  14.774   5.078  0.3979  0.0405 -0.0179
33101ION     NA48570  12.304   7.261   5.713 -0.0695  0.0988 -0.2966
33102ION     NA48571  13.953   9.514   5.762 -0.2597 -0.1051 -0.2471
33103ION     NA48572  11.618  11.747  10.490  0.0989  0.0628 -0.1277
33104ION     NA48573  17.200   1.282   1.004 -0.1258  0.3607  0.3554
33105ION     NA48574   1.403   6.904   9.824 -0.1478  0.0218 -0.0946
33106ION     NA48575   6.767   2.866  13.986 -0.1076  0.0824  0.3782
33107ION     NA48576   1.835   6.041   5.390 -0.3629 -0.0246  0.1034
33108ION     NA48577  11.140   2.834   1.136  0.0193 -0.0144 -0.1387
33109ION     NA48578   7.951   7.741   0.026 -0.0748 -0.1358 -0.3669
33110ION     NA48579   3.460  11.752   1.298  0.0646  0.0414 -0.4282
33111ION     NA48580   5.839  12.659   5.431  0.1321 -0.1232  0.1763
33112ION     NA48581   6.820   8.776   3.336 -0.0165  0.1594  0.3201
33113ION     NA48582   8.133   3.170   1.749  0.3387  0.1949  0.1626
33114ION     NA48583   1.603   0.006  10.218 -0.1100  0.0341 -0.2276
33115ION     NA48584  12.705   0.171   3.218  0.0429  0.1704 -0.1546
33116ION     NA48585   0.017   5.318   3.087 -0.2022 -0.3633 -0.1785
33117ION     NA48586  17.144   9.470   5.531  0.2008  0.2301  0.2214
33118ION     NA48587  17.031   0.526  11.473  0.1760 -0.1630  0.2615
33119ION     NA48588  12.697  12.927  12.646 -0.0961 -0.2921 -0.1982
33120ION     NA48589  10.404   4.393   9.955 -0.0448  0.0204  0.2354
33121ION     NA48590  12.468   5.751  13.243  0.1843 -0.0953 -0.0090
33122ION     NA48591  12.849  16.625   9.742 -0.4455 -0.2984 -0.4817
33123ION     NA48592  18.578   3.610  10.230  0.0489 -0.2417 -0.1633
33124ION     NA48593   6.632  12.259   9.670 -0.0939  0.0168  0.1282
33125ION     NA48594   5.041  13.251   9.599 -0.0531 -0.2281 -0.1333
33126ION     NA48595   6.670  16.433   4.444 -0.1667 -0.0388 -0.0538
33127ION     NA48596  16.772   9.096   4.764 -0.1548 -0.1135  0.2807
33128ION     NA48597  10.174   4.963   5.697  0.1791 -0.1914  0.2331
33129ION     NA48598  14.358  13.243  10.361  0.1511 -0.1467 -0.4366
33130ION     NA48599   6.603  15.791   9.804  0.2191 -0.1254 -0.2681
33131ION     NA48600   0.354  13.802   1.240 -0.2910  0.0050  0.0023
33132ION     NA48601   1.075  11.500   1.178  0.0407  0.1610 -0.3639
33133ION     NA48602   3.478   7.186   3.915  0.0868  0.0674  0.2130
33134ION     NA48603  16.658   9.180   5.465  0.0334 -0.3941  0.0559
33135ION     NA48604  14.526   5.629  10.053  0.3605 -0.1436 -0.2038
33136ION     NA48605   9.065  10.887  15.661  0.1664 -0.2183 -0.3738
33137ION     NA48606  18.084  12.804  10.549 -0.2928 -0.0542 -0.0392
33138ION     NA48607  15.712   3.899   2.016 -0.2477  0.2654 -0.3562
33139ION     NA48608   6.606  15.596   2.038  0.0165  0.0293 -0.3965
33140ION     NA48609   1.648   4.459  12.966  0.1617 -0.0470 -0.1120
33141ION     NA48610   7.964   5.486   0.045 -0.0845 -0.2237 -0.1828
33142ION     NA48611  13.223  15.736   9.842  0.0978 -0.4201  0.3023
33143ION     NA48612   3.512   6.868   9.673  0.1370 -0.0044 -0.0675
33144ION     NA48613  10.122   0.980  15.309  0.2133 -0.0416 -0.0276
33145ION     NA48614   1.501   5.156  14.672 -0.0750  0.3087 -0.1944
33146ION     NA48615  13.374   1.115   0.008 -0.2469 -0.1176 -0.1271
33147ION     NA48616   1.895  13.308  14.311  0.2998 -0.0833  0.2417
33148ION     NA48617  16.655  13.993   2.843  0.2181  0.0189  0.4261
33149ION     NA48618   8.414   2.446  10.250 -0.0741  0.1376 -0.2841
33150ION     NA48619  15.424  14.065   1.497 -0.1914 -0.4071  0.0856
33151ION     NA48620   4.041  15.244  10.443 -0.4073 -0.0225  0.0976
33152ION     NA48621   2.232   4.313   3.704  0.1267 -0.1976  0.2729
33153ION     NA48622  11.108  15.049   9.890 -0.1368 -0.2254  0.0600
33154ION     NA48623  13.773   1.094  13.344  0.0171  0.4241 -0.4630
33155ION     NA48624  15.915   5.739   3.816 -0.2434  0.0799 -0.2674
33156ION     NA48625  14.817  11.573   2.060 -0.0020 -0.2914 -0.0274
33157ION     NA48626  17.476  14.204   4.462  0.0042 -0.2853 -0.2318
33158ION     NA48627  12.031  11.659   5.772 -0.0526  0.2811 -0.1630
33159ION     NA48628  14.578  12.757   0.912  0.0475  0.1177  0.2335
33160ION     NA48629   8.082   7.493   9.610  0.0579 -0.0370  0.0543
33161ION     NA48630  15.268  14.928  14.829  0.0933 -0.3452 -0.3047
33162ION     NA48631   5.459  17.330   2.371 -0.0085  0.1782  0.3112
33163ION     NA48632   8.681  14.748   9.961  0.4437 -0.2585  0.2376
33164ION     NA48633  15.170   7.438  10.020  0.2990 -0.0040  0.1015
33165ION     NA48634   7.844   3.677   4.892 -0.1153 -0.1415 -0.1316
33166ION     NA48635  14.803   2.025  15.005 -0.5148  0.2576  0.3044
33167ION     NA48636  13.450   3.171   5.531 -0.4255 -0.0475  0.1055
33168ION     NA48637  12.480  13.961  12.851  0.0524 -0.0453  0.0455
33169ION     NA48638  14.559   2.305   5.675  0.0985  0.2021 -0.2929
33170ION     NA48639   1.791  12.628  10.119 -0.1016 -0.2122 -0.3991
33171ION     NA48640  10.098  12.808  11.945  0.1929  0.2870 -0.0698
33172ION     NA48641   2.199   4.019   9.952  0.0786 -0.0001 -0.0653
33173ION     NA48642  10.409  18.206   5.016 -0.1246 -0.0008  0.4883
33174ION     NA48643   6.824   5.412   9.907  0.1336  0.1211 -0.0254
33175ION     NA48644   5.951   8.340   4.937 -0.4143 -0.0773 -0.3398
33176ION     NA48645  15.253  10.293   6.009 -0.0361 -0.1938  0.1701
33177ION     NA48646  16.189   5.146   9.841  0.0223  0.0073 -0.1942
33178ION     NA48647   2.739   4.825   9.583  0.0090  0.2007 -0.0380
33179ION     NA48648  13.576   6.981   0.090 -0.1000 -0.3685  0.2387
33180ION     NA48649  11.526   9.826  15.644  0.4585  0.4071  0.0637
33181ION     NA48650  17.838  13.185  14.810  0.2629 -0.0009  0.0658
33182ION     NA48651   5.816   4.066   9.681 -0.0197 -0.2936  0.3680
33183ION     NA48652   0.490  14.754  10.540 -0.0388  0.0512  0.0144
33184ION     NA48653  18.165  17.432  10.094 -0.0978 -0.2931 -0.0342
33185ION     NA48654   7.860   7.115  14.882 -0.1051  0.0435  0.0252
33186ION     NA48655  15.194  13.959   3.287 -0.2171  0.2855 -0.1055
33187ION     NA48656  12.355  11.659  10.452 -0.1159 -0.2555  0.3142
33188ION     NA48657  10.873  17.410  14.301 -0.3156  0.1663  0.2211
33189ION     NA48658   2.603   8.356   9.769 -0.2409 -0.2496 -0.1620
33190ION     NA48659  12.114   2.947   5.612  0.1688  0.0609  0.2250
33191ION     NA48660  18.696  16.761  11.032 -0.0418  0.1667  0.4534
33192ION     NA48661  17.779  15.178   0.925 -0.1155 -0.2482 -0.2397
33193ION     NA48662  17.934  12.005  10.270  0.3768 -0.4496 -0.0707
33194ION     NA48663  15.348   6.537  14.375  0.1742  0.2370 -0.2296
33195ION     NA48664  11.297   8.081   5.213 -0.4506  0.1177  0.0702
33196ION     NA48665   6.809   2.484   9.723 -0.0748  0.2070 -0.0274
33197ION     NA48666   0.758  14.559   5.701 -0.0312  0.0780 -0.0383
33198ION     NA48667  16.055   1.930  10.207  0.0037  0.2043 -0.0680
33199ION     NA48668  18.081  12.440   5.365 -0.0061  0.2216 -0.0172
33200ION     NA48669   1.010  18.648   2.764  0.1839 -0.0907  0.0868
33201ION     NA48670  12.752   9.502  10.509  0.1008 -0.0795  0.1601
33202ION     NA48671  17.301  10.590   9.881  0.2773  0.0686 -0.1116
33203ION     NA48672   7.303   3.333   9.759  0.2744 -0.1582  0.1145
33204ION     NA48673   8.267  14.663   5.638  0.1996 -0.0234  0.0701
33205ION     NA48674  15.308  13.117  11.888  0.0364 -0.2300  0.1441
33206ION     NA48675   8.745   2.995   4.999  0.0281 -0.2763  0.0591
33207ION     NA48676  12.642   0.745   5.820 -0.2811 -0.0064 -0.3880
33208ION     NA48677   5.132  15.551   4.545  0.0159  0.1905 -0.3027
33209ION     NA48678   1.855   6.913   5.311  0.1075 -0.0089 -0.0423
33210ION     NA48679   7.156  18.430   0.912 -0.2866  0.1226  0.0404
33211ION     NA48680   0.034  11.404  10.172 -0.0395  0.3253 -0.0359
33212ION     NA48681  15.951  14.772   6.206  0.1555 -0.0827 -0.1413
33213ION     NA48682  17.260  11.588  10.029  0.0832 -0.1767  0.2062
33214ION     NA48683   5.965   4.851   3.565 -0.1081 -0.1282  0.2690
33215ION     NA48684  11.536  10.871  10.736  0.1733  0.0064 -0.1736
33216ION     NA48685   5.879  10.749  14.974  0.1551  0.1866 -0.0828
33217ION     NA48686   6.207  15.484   9.791  0.3454 -0.0983 -0.1258
33218ION     NA48687   9.896   8.973  12.958 -0.1067 -0.2992  0.2334
33219ION     NA48688  16.912  13.037  10.432  0.0262  0.0208  0.1355
33220ION     NA48689   6.852  13.152   9.556  0.0725 -0.3681  0.1034
33221ION     NA48690  18.318   1.675  10.762  0.0997 -0.0800 -0.1181
33222ION     NA48691  13.685   2.718  13.430  0.1340  0.2718  0.3095
33223ION     NA48692   1.910  13.980  10.569 -0.2986  0.1041  0.2270
33224ION     NA48693   2.114   1.807   4.881  0.1096  0.1284  0.1454
33225ION     NA48694   9.894   7.892   5.221  0.1154  0.1197  0.1124
33226ION     NA48695   5.022  18.419  15.582 -0.1948  0.0322 -0.2249
33227ION     NA48696  12.665   4.211   9.786  0.2218  0.1608  0.2763
33228ION     NA48697   2.888   5.756   1.797  0.0569  0.0932  0.0748
33229ION     NA48698   2.638   5.697   9.748  0.2864  0.0050  0.1456
33230ION     NA48699  18.785   6.882   0.063 -0.1066 -0.3932 -0.1598
33231ION     NA48700   9.114  17.902   9.801 -0.0683  0.2705  0.1463
33232ION     NA48701   7.428  14.447   9.753  0.2256 -0.0042 -0.1912
33233ION     NA48702   6.685  18.256   3.692 -0.0531  0.2385  0.2311
33234ION     NA48703  12.663   4.230   2.293 -0.3956 -0.2885  0.0010
33235ION     NA48704   2.242  18.459   4.494 -0.0082  0.1745  0.1490
33236ION     NA48705  16.498  15.329   1.210 -0.0398 -0.1535 -0.2375
33237ION     NA48706  13.853  18.766   2.682  0.1303  0.1345 -0.0382
33238ION     NA48707   3.543   8.843  11.964  0.4629 -0.0599  0.0116
33239ION     NA48708  18.059  17.228   6.037  0.0398 -0.4069 -0.0294
33240ION     NA48709  13.055   3.786   1.923  0.3679  0.0652  0.2022
33241ION     NA48710   2.155   0.484   1.858 -0.0967 -0.4444  0.2462
33242ION     NA48711   2.966  14.646   9.910  0.3524  0.0187  0.0234
33243ION     NA48712   8.851   7.082   9.551 -0.1688  0.0725 -0.4015
33244ION     NA48713  15.450   5.896   5.771  0.0189 -0.1566  0.1501
33245ION     NA48714   6.473  13.380   5.241 -0.0144 -0.0451  0.0907
33246ION     NA48715  18.722   7.723   9.998  0.2580  0.1599 -0.1596
33247ION     NA48716  11.196   7.571   9.962 -0.3858 -0.0202 -0.0895
33248ION     NA48717  12.581   1.824   9.778 -0.3334 -0.1028  0.5177
33249ION     NA48718   1.110   6.072  10.817  0.0142 -0.1150 -0.0305
33250ION     NA48719   5.928   2.989  15.452  0.3593  0.1550  0.3186
33251ION     NA48720   1.569  14.193   5.725 -0.2078 -0.1313  0.1838
33252ION     NA48721   1.789   6.312   2.790  0.1810  0.0653 -0.1457
33253ION     NA48722  12.623  18.062   9.724 -0.1042  0.0606  0.0719
33254ION     NA48723   7.306   3.918   9.626  0.0427  0.0038 -0.0463
33255ION     NA48724  16.579   4.124  10.089 -0.1858 -0.1961 -0.1375
33256ION     NA48725  11.369   3.308   9.725  0.1889  0.2520 -0.1582
33257ION     NA48726   0.534   7.165  12.294 -0.1171  0.0673  0.3782
33258ION     NA48727   3.772   4.729   9.961  0.1076 -0.3049  0.0482
33259ION     NA48728  17.481   8.396  12.563  0.1698 -0.0255 -0.0715
33260ION     NA48729   7.152  18.044  11.339  0.2988 -0.0401  0.0087
33261ION     NA48730  11.185   4.112   3.389  0.2502  0.1855  0.1172
33262ION     NA48731  14.410  13.627   5.748  0.2394  0.1496 -0.0436
33263ION     NA48732  10.351   4.949   1.390  0.0033 -0.0470  0.1465
33264ION     NA48733   3.759  18.728   5.934  0.2195  0.0213 -0.0342
33265ION     NA48734   7.718  16.797  12.061 -0.0228  0.0889  0.0271
33266ION     NA48735  15.973  14.322  11.183  0.0885  0.0097  0.3202
33267ION     NA48736   9.677  10.788   9.711 -0.1700  0.0272  0.0776
33268ION     NA48737   5.011  14.986   3.837 -0.3295  0.2613  0.1333
33269ION     NA48738  10.560   9.779   3.633  0.1022  0.0635 -0.1231
33270ION     NA48739  17.537   5.267  10.387  0.2279  0.4122  0.3804
33271ION     NA48740   2.268  10.188   1.939 -0.1365 -0.1788  0.0376
33272ION     NA48741  10.986   4.383   0.356  0.1877 -0.0977 -0.1495
33273ION     NA48742   7.491  10.791   9.759 -0.3148  0.2312 -0.3741
33274ION     NA48743   6.103  10.319   9.520  0.2144  0.2138  0.0307
33275ION     NA48744   3.988   0.432   1.209  0.5438 -0.0271  0.0936
33276ION     NA48745   4.588   0.207  12.204 -0.1345  0.2316 -0.1000
33277ION     NA48746   5.685   3.415  12.979  0.2175  0.1021 -0.0985
33278ION     NA48747   4.421  13.963  10.977  0.1172  0.1799 -0.3290
33279ION     NA48748   5.819  11.232   9.822 -0.2340  0.2017 -0.2114
33280ION     NA48749  14.905  17.338   5.747  0.3218 -0.0960 -0.2108
33281ION     NA48750   0.395  13.313  15.521  0.2778 -0.0900 -0.1907
33282ION     NA48751  11.488  16.455   5.659 -0.0053 -0.0352  0.0616
33283ION     NA48752  17.666  14.761   6.161  0.0865  0.3051  0.1447
33284ION     NA48753  12.183   9.175   5.769 -0.2704 -0.1357 -0.0020
33285ION     NA48754  11.955   7.457   3.282 -0.4434  0.0333 -0.1887
33286ION     NA48755  10.207   5.161   0.592 -0.2949 -0.0239  0.1030
33287ION     NA48756   0.502  14.791   0.516 -0.4886 -0.0861 -0.0587
33288ION     NA48757   7.634  10.208   4.422  0.3517 -0.7087 -0.2284
33289ION     NA48758  16.542   5.991   9.824  0.2276 -0.0131  0.2049
33290ION     NA48759   5.518   2.406  10.194  0.2853 -0.0643  0.1536
33291ION     NA48760   9.565  16.211   5.305  0.0610  0.0628  0.0652
33292ION     NA48761   1.586   1.938   5.798  0.3558  0.1574  0.0071
33293ION     NA48762   3.846  16.032   5.719  0.0417  0.0709 -0.2779
33294ION     NA48763   8.269  16.470   5.256  0.2244  0.0991  0.2688
33295ION     NA48764   7.590  12.058   9.615  0.1716  0.0505 -0.1439
33296ION     NA48765   2.586  12.029   4.545  0.0839  0.2219 -0.2623
33297ION     NA48766   5.745  11.737   5.251 -0.1108  0.0597 -0.2948
33298ION     NA48767  17.753   8.872   5.515  0.4366  0.0825 -0.0980
33299ION     NA48768   4.362   6.345   9.301  0.3241  0.0501 -0.1640
33300ION     NA48769  16.427  11.147   5.631  0.2154  0.1775 -0.1433
33301ION     NA48770   2.666   8.940  14.294  0.1272  0.1116 -0.1189
33302ION     NA48771   3.994  16.580  15.129 -0.3580  0.0765 -0.1378
33303ION     NA48772   5.528  17.006  10.124 -0.0984  0.2640 -0.1220
33304ION     NA48773   8.107  13.963   9.992  0.0126  0.0754 -0.0004
33305ION     NA48774  16.075   9.265   9.916  0.2940  0.3075 -0.2901
33306ION     NA48775   4.534   2.728   9.992 -0.0619 -0.0889 -0.3974
33307ION     NA48776  13.577  18.209  10.091 -0.0193  0.0214  0.0869
33308ION     NA48777  12.065  17.306   5.572  0.0584  0.1302  0.1475
33309ION     NA48778   1.170  18.007  15.491  0.0234 -0.2854  0.1386
33310ION     NA48779  18.068   5.804  14.924 -0.0543  0.2580  0.1007
33311ION     NA48780  10.370  10.044  10.505  0.1907 -0.0428 -0.2332
33312ION     NA48781   2.929  15.356  10.598 -0.2443 -0.3280  0.0850
33313ION     NA48782   9.301   0.060  13.516 -0.0253  0.0971  0.1353
33314ION     NA48783   6.238  15.275  14.200  0.0304  0.1445  0.1745
33315ION     NA48784  15.175   2.559  10.432  0.3115  0.0791 -0.2287
33316ION     NA48785  17.837  18.610  14.569 -0.5207 -0.1317 -0.2377
33317ION     NA48786  12.957  17.444   1.455  0.1839  0.1391 -0.0351
33318ION     NA48787  13.387   7.462   9.894  0.2010  0.1693  0.1025
33319ION     NA48788   5.111   9.730   9.583  0.0862 -0.1013 -0.0663
33320ION     NA48789   2.423  16.852   1.863  0.0913 -0.0871  0.0846
33321ION     NA48790  11.032  10.118   1.247 -0.2598 -0.0521  0.1643
33322ION     NA48791   1.810  15.951  14.472 -0.3008 -0.2615 -0.0126
33323ION     NA48792  18.731  13.460  10.355 -0.2372 -0.1350 -0.2607
33324ION     NA48793  14.415   1.775   3.811  0.0611 -0.3587  0.0723
33325ION     NA48794   1.652  16.063  11.171  0.2440  0.1395 -0.3057
33326ION     NA48795   8.611   9.910  11.825 -0.0962  0.1012  0.1855
33327ION     NA48796   2.740   0.092   0.569  0.0038  0.0201  0.0355
33328ION     NA48797   0.485  11.112   5.537 -0.0415 -0.1003  0.5129
33329ION     NA48798  12.144  12.732  14.759 -0.1767 -0.0521 -0.1541
33330ION     NA48799  12.023   5.997   9.578 -0.0489  0.1269 -0.1062
33331ION     NA48800  12.379   3.868  10.561  0.0120  0.4496  0.1535
33332ION     NA48801   0.571   6.302  10.043  0.0928  0.0273  0.0789
33333ION     NA48802   1.778   5.641   2.791  0.4945  0.0919 -0.1030
33334ION     NA48803   0.500  18.140   3.093 -0.1067  0.0930 -0.4389
33335ION     NA48804   1.718   4.403   2.713 -0.1142  0.0741  0.1281
33336ION     NA48805   3.232   5.765  14.398 -0.0399  0.4019  0.1253
33337ION     NA48806  12.884   8.318  14.929 -0.1785 -0.0113 -0.1597
33338ION     NA48807   6.753   8.397  11.662 -0.0582  0.2669  0.0243
33339ION     NA48808  10.782  14.041  10.357 -0.3273  0.1417  0.2232
33340ION     NA48809  18.690   9.082   5.666  0.2039 -0.4140  0.3544
33341ION     NA48810   4.310   0.486  14.678  0.0724 -0.1463 -0.0496
33342ION     NA48811  13.301   3.133   4.884 -0.1020 -0.3758  0.1699
33343ION     NA48812   9.507   1.795   5.700 -0.3484 -0.3515 -0.0893
33344ION     NA48813  13.257  16.806  12.390 -0.1581 -0.0591 -0.1774
33345ION     NA48814  11.250   6.039   2.073  0.2365 -0.0397  0.1176
33346ION     NA48815  15.192   2.485  12.433  0.0122 -0.0306  0.1658
33347ION     NA48816  13.112  18.544   5.523 -0.0280  0.0023 -0.2035
33348ION     NA48817  17.656   3.668  10.356  0.2971 -0.0566  0.0807
33349ION     NA48818  12.775   6.713   9.814 -0.1095  0.0161 -0.1364
33350ION     NA48819   1.273   2.383   5.654  0.0861  0.0917 -0.1483
33351ION     NA48820  11.915  14.308   5.219 -0.0711  0.1461  0.0759
33352ION     NA48821  17.402  10.889  10.734  0.1927  0.1149  0.2839
33353ION     NA48822  17.435  14.844  10.627 -0.1404 -0.1127  0.0080
33354ION     NA48823   6.415  12.484   5.406  0.0786 -0.0999 -0.0671
33355ION     NA48824   7.475  13.989  12.961 -0.1227  0.3758 -0.1288
33356ION     NA48825   9.369   2.300  10.086  0.2477 -0.2968  0.0173
33357ION     NA48826  18.222   5.401  10.469  0.1063  0.0291  0.1094
33358ION     NA48827  10.430  10.478   1.886 -0.1474 -0.3086 -0.0710
33359ION     NA48828   5.717   7.419   5.388 -0.4636 -0.0401 -0.2351
33360ION     NA48829   2.800   6.740   4.042  0.1278 -0.0776 -0.2730
33361ION     NA48830   0.395   8.435   5.662 -0.0061 -0.2857  0.0399
33362ION     NA48831   5.473  14.537   5.652 -0.0072  0.1833 -0.1100
33363ION     NA48832   7.259   9.191   9.697 -0.0906 -0.0045  0.1350
33364ION     NA48833  15.685  15.534  10.335 -0.2888  0.2570  0.1910
33365ION     NA48834   4.838  13.638   0.445 -0.0655 -0.0179  0.0455
33366ION     NA48835   6.533  16.333  14.337  0.0338  0.2741  0.0871
33367ION     NA48836  17.515  15.944  12.401 -0.1232  0.2000  0.0122
33368ION     NA48837   5.893   5.531   9.792 -0.0426  0.0960 -0.1571
33369ION     NA48838   4.543  15.505   2.168  0.2001 -0.3795 -0.2248
33370ION     NA48839   2.214   1.708  14.091  0.1817  0.2253 -0.0417
33371ION     NA48840   4.046   6.668  12.380  0.0465  0.3035 -0.0251
33372ION     NA48841  13.880   9.445  10.468 -0.2021  0.3145  0.0657
33373ION     NA48842  17.863   4.147  15.571 -0.1232  0.1835  0.0573
33374ION     NA48843   0.648   2.976   5.701 -0.0179 -0.1222  0.1307
33375ION     NA48844  11.661  14.797  12.444  0.0155  0.0119 -0.2819
33376ION     NA48845  17.945   7.947   9.893 -0.1932  0.0541  0.1189
33377ION     NA48846   3.191  14.434   3.467  0.0654 -0.4053 -0.0379
33378ION     NA48847   1.231  10.661   9.855  0.0208  0.1596 -0.2886
33379ION     NA48848   5.636   5.109   9.695  0.3500  0.0344  0.2127
33380ION     NA48849   1.683   2.033   9.822 -0.1913  0.0439 -0.0226
33381ION     NA48850   8.478  12.458   0.775 -0.3080  0.2662 -0.3286
33382ION     NA48851   6.041   5.985   1.674 -0.1294  0.1851  0.4140
33383ION     NA48852  14.406   6.601   2.038  0.1920 -0.2372  0.3113
33384ION     NA48853   2.683   5.192   5.571 -0.1500  0.0795  0.3715
33385ION     NA48854  16.040  13.438  10.443 -0.1951  0.2603 -0.1245
33386ION     NA48855  18.238   1.260  11.991 -0.0994  0.1424 -0.3144
33387ION     NA48856   9.435  11.114  14.757 -0.0262 -0.3642 -0.3752
33388ION     NA48857  13.832   6.849  10.481  0.1466 -0.1246  0.0047
33389ION     NA48858  17.911  15.623  10.441  0.3416 -0.0668  0.1279
33390ION     NA48859  11.418   6.509   9.724  0.2209  0.0888  0.3325
33391ION     NA48860  11.834   5.074   4.195 -0.1594 -0.1436  0.1028
33392ION     NA48861   1.234  11.961   5.851 -0.1694  0.3301 -0.0581
33393ION     NA48862  11.291   2.463  12.370  0.3955  0.1081 -0.2885
33394ION     NA48863   3.877   0.197   4.179  0.0398 -0.1585 -0.0510
33395ION     NA48864  10.512  15.814  10.886  0.0644 -0.2281  0.0570
33396ION     NA48865  16.622  10.404   1.983 -0.2302  0.0969 -0.1407
33397ION     NA48866  13.045   2.439   5.336  0.0015 -0.2335 -0.0215
33398ION     NA48867   2.267   5.969   3.570  0.2726  0.1358  0.3125
33399ION     NA48868   0.547  17.653  10.254  0.0532 -0.0939 -0.1226
33400ION     NA48869  14.381  11.013   3.476 -0.1617  0.0134 -0.1883
33401ION     NA48870  13.451  13.980  10.254 -0.3315  0.1709  0.0157
33402ION     NA48871  10.278  14.665   9.980  0.0541  0.2806 -0.0923
33403ION     NA48872   1.652   4.432  11.362 -0.2141  0.0517  0.1570
33404ION     NA48873   3.000  14.962   5.364 -0.3636 -0.0125 -0.3946
33405ION     NA48874   9.077   1.820   2.693  0.2486  0.1191  0.0738
33406ION     NA48875  16.858  13.794   0.341  0.3681 -0.2021  0.4103
33407ION     NA48876   2.263   9.895  14.091  0.3505  0.0198 -0.1445
33408ION     NA48877  13.014   5.751   9.870  0.5181 -0.1871 -0.0356
33409ION     NA48878   4.591   9.779   4.008 -0.1587  0.1103  0.1592
33410ION     NA48879   5.125  13.986   9.947  0.1176 -0.2068 -0.2991
33411ION     NA48880  13.173   1.107  10.182 -0.0439 -0.2626 -0.3268
33412ION     NA48881  18.520   0.842  10.424 -0.0541  0.1718 -0.1640
33413ION     NA48882  10.978  14.560   2.217 -0.1298 -0.0180  0.1338
33414ION     NA48883   9.578   3.950   9.825  0.1923  0.0841 -0.0640
33415ION     NA48884  14.141  11.301  10.460 -0.0187  0.3604 -0.1771
33416ION     NA48885   0.548  15.061   2.629 -0.0240 -0.1247 -0.0158
33417ION     NA48886  10.248  16.132   2.313  0.2308  0.2623 -0.1202
33418ION     NA48887  11.841  17.596  15.227 -0.1977 -0.1258 -0.1132
33419ION     NA48888   2.576   2.194   3.444 -0.3906  0.1608  0.2291
33420ION     NA48889   3.829   7.618  10.133 -0.1248  0.1980 -0.0404
33421ION     NA48890   8.114   3.372  11.805 -0.0834  0.4157  0.0889
33422ION     NA48891  15.877  12.839   3.547 -0.2827 -0.0173  0.0354
33423ION     NA48892  12.046   8.358   5.615 -0.2380 -0.1921 -0.1898
33424ION     NA48893  15.513  11.673  10.204 -0.4452 -0.1434 -0.0853
33425ION     NA48894  14.629  15.858   5.571  0.1602 -0.0091  0.1812
33426ION     NA48895  11.950   9.564  11.487  0.2176 -0.2768  0.0565
33427ION     NA48896   6.697  18.041  10.072 -0.1348 -0.0875  0.0487
33428ION     NA48897  10.530  16.947   9.828 -0.0484 -0.0932 -0.1055
33429ION     NA48898  12.228   1.616  14.488 -0.0754 -0.2932  0.0555
33430ION     NA48899   2.017   7.905   3.928 -0.1882 -0.2471 -0.2339
33431ION     NA48900   0.875   4.142   2.483  0.1403 -0.0758 -0.2059
33432ION     NA48901  14.890   9.682   2.520 -0.0625 -0.0875 -0.3094
33433ION     NA48902   7.055  17.378   1.405  0.0962  0.1385 -0.4723
33434ION     NA48903  11.176   0.675   1.209 -0.2225  0.1239 -0.0126
33435ION     NA48904   9.513   5.603   9.746  0.0991 -0.1958  0.1361
33436ION     NA48905  10.029   4.436  15.316 -0.0521 -0.2733 -0.2804
33437ION     NA48906  12.207  14.192  10.459 -0.0723  0.3620  0.2644
33438ION     NA48907   0.311   1.921  10.049  0.0915  0.2115  0.1332
33439ION     NA48908   8.489   7.755   1.422 -0.1566 -0.0834 -0.0293
33440ION     NA48909  17.363  10.141   4.486  0.1159  0.3084  0.1798
33441ION     NA48910   7.453  14.191   5.110 -0.0550  0.0324 -0.3842
33442ION     NA48911   2.812  18.138  10.438  0.3494 -0.1454 -0.1238
33443ION     NA48912   3.741   1.953   1.403  0.0038 -0.0639  0.0325
33444ION     NA48913   1.032   8.349  13.443 -0.0833  0.0727 -0.1295
33445ION     NA48914   2.225   1.538   1.980  0.0144 -0.2366 -0.0771
33446ION     NA48915   5.038  17.271  15.014 -0.1718  0.0422  0.1307
33447ION     NA48916  13.230  15.474   3.067  0.0411  0.0604  0.1935
33448ION     NA48917   3.750   8.047   0.007 -0.3376  0.2278 -0.2410
33449ION     NA48918  15.634  16.342  13.616 -0.0791 -0.1026 -0.0645
33450ION     NA48919   4.355   2.733  12.835 -0.0670  0.2256 -0.1273
33451ION     NA48920   1.320  17.432  13.179  0.4293  0.2784 -0.0615
33452ION     NA48921   7.928   2.798   2.532  0.0260 -0.0848  0.1066
33453ION     NA48922   7.590   9.962  15.219 -0.2630 -0.0509 -0.1870
33454ION     NA48923   4.656  16.887  10.072 -0.1197  0.2599  0.2228
33455ION     NA48924  13.994   6.594  12.680 -0.1076  0.3250 -0.1560
33456ION     NA48925  16.057  10.246  10.202 -0.1194  0.0570  0.0386
33457ION     NA48926   9.206  15.781   9.603  0.0805 -0.1386 -0.0550
33458ION     NA48927  17.612  13.108   4.307  0.1024 -0.2013  0.0896
33459ION     NA48928  11.494   3.431   5.698 -0.2455 -0.0868  0.0983
33460ION     NA48929  12.145   1.098   5.181 -0.1196 -0.2102 -0.1802
33461ION     NA48930  14.209  15.171   5.630  0.0864  0.1458 -0.0486
33462ION     NA48931   5.712   8.085  10.679  0.0319 -0.2663  0.0450
33463ION     NA48932   3.256  13.579  10.133  0.1880 -0.0704 -0.0728
33464ION     NA48933   1.344   6.081   5.446  0.2586  0.1311 -0.0721
33465ION     NA48934  18.033   6.129   2.447  0.1037  0.2501 -0.1995
33466ION     NA48935  11.864   4.063  14.317 -0.0282  0.2373 -0.1475
33467ION     NA48936  17.940   8.944  15.540  0.0539 -0.1728  0.3305
33468ION     NA48937   4.329  13.520   9.768 -0.0767 -0.1633 -0.0145
33469ION     NA48938   7.602   8.909   0.856  0.0020  0.2621  0.2797
33470ION     NA48939   9.821   9.545   9.849  0.1670 -0.2866 -0.2317
33471ION     NA48940   0.355  18.266  14.049  0.0297  0.2008 -0.1648
33472ION     NA48941   3.332  10.150  14.123  0.0748 -0.1507  0.1262
33473ION     NA48942  10.138   5.754  14.360  0.2627  0.0853 -0.0918
33474ION     NA48943   7.753  13.268   0.062  0.0114  0.0391  0.1454
33475ION     NA48944   4.359  12.423   9.705 -0.2888  0.0223 -0.1013
33476ION     NA48945   5.635   0.417   2.994  0.1880 -0.0225 -0.0891
33477ION     NA48946  15.435   0.844   2.990  0.4653  0.2757  0.0787
33478ION     NA48947   9.016   1.676   5.589 -0.1436 -0.1611 -0.3109
33479ION     NA48948   8.232  12.843   3.112  0.0378 -0.0725  0.1103
33480ION     NA48949  13.634  18.350  15.659  0.0611 -0.1961  0.1450
33481ION     NA48950   1.559  16.772  15.654  0.0887  0.0809 -0.0926
33482ION     NA48951  10.124  13.241   2.309  0.1085 -0.2836 -0.1125
33483ION     NA48952  11.701   4.746   5.156 -0.1027  0.2696  0.2987
33484ION     NA48953   6.181   9.807  14.073  0.4311 -0.1182  0.1555
33485ION     NA48954   7.542   5.339   3.814  0.0181  0.4404 -0.0722
33486ION     NA48955   9.833  10.155  13.851 -0.1686 -0.0577 -0.2235
33487ION     NA48956  13.956  16.665   5.742  0.1449 -0.2291  0.0747
33488ION     NA48957  11.220   9.126   6.084 -0.1566  0.0215  0.1252
33489ION     NA48958   8.454   8.505   9.680 -0.0009 -0.0815 -0.2764
33490ION     NA48959   2.622  12.372  10.252 -0.0168 -0.0912 -0.1556
33491ION     NA48960   8.917   1.193   9.847  0.4125  0.1090  0.2185
33492ION     NA48961  11.500   0.736   2.369 -0.0279  0.1590  0.0403
33493ION     NA48962   2.761  14.352  10.321  0.1075  0.1136  0.0121
33494ION     NA48963   9.660   6.784   9.760  0.3002  0.2741 -0.1015
33495ION     NA48964   2.303  13.951   2.227 -0.3738  0.0124  0.3891
33496ION     NA48965  13.380  10.221   6.195 -0.0964  0.1737  0.3038
33497ION     NA48966   3.868  16.878  10.437  0.0503  0.0370  0.2177
33498ION     NA48967   3.080  16.492  10.376  0.1161  0.0448  0.0219
33499ION     NA48968   0.599   7.503   5.472 -0.0130  0.2891  0.2160
33500ION     NA48969  13.899  15.371   9.931  0.1661  0.1637 -0.1042
33501ION     NA48970  17.013   5.476   1.337 -0.2080 -0.0283  0.3400
33502ION     NA48971  10.327  10.551  15.539  0.0989 -0.0348 -0.0158
33503ION     NA48972   3.500   9.417  14.520  0.1436 -0.1669  0.0051
33504ION     NA48973  18.295  17.321   4.438  0.2870 -0.1263  0.0962
33505ION     NA48974   4.622   3.951   5.517  0.1242  0.6835  0.1853
33506ION     NA48975  13.092  17.149   5.876  0.3351  0.1768  0.0660
33507ION     NA48976  18.781   1.927   3.907  0.0135  0.1898 -0.1354
33508ION     NA48977  14.002   1.683   5.930  0.2514  0.2153 -0.3227
33509ION     NA48978   1.710   8.625   2.823  0.1288  0.0373  0.0073
33510ION     NA48979   9.560  14.153   9.979 -0.4762  0.1517 -0.2239
33511ION     NA48980  14.181  14.874  15.290  0.1796  0.0315 -0.1316
33512ION     NA48981  11.083   5.520  10.148 -0.3221 -0.0233 -0.2692
33513ION     NA48982  11.468  13.232   3.947 -0.0818 -0.1292 -0.0290
33514ION     NA48983  16.200  11.220  11.187  0.0767 -0.1987  0.0226
33515ION     NA48984  15.031  11.634   6.121  0.0499  0.1004 -0.3447
33516ION     NA48985   9.620   3.507  12.499  0.1579  0.1843  0.1014
33517ION     NA48986   9.777   1.550   9.727 -0.1721 -0.1620 -0.1090
33518ION     NA48987  14.733  15.514  10.104  0.0198 -0.2685  0.0243
33519ION     NA48988   1.626  14.991  10.580  0.0235 -0.2320  0.0209
33520ION     NA48989   5.102   0.482  13.329  0.2383  0.0648  0.0281
33521ION     NA48990  14.808   1.186   6.066  0.2741  0.0265  0.1228
33522ION     NA48991  18.675  14.173   5.660  0.2921  0.0252  0.3432
33523ION     NA48992   0.956   5.685   5.799 -0.1180  0.0110 -0.0303
33524ION     NA48993  18.203   2.363  10.070 -0.4079 -0.2539  0.1760
33525ION     NA48994   1.412   8.423   0.096  0.0099 -0.0401 -0.1570
33526ION     NA48995   5.818  16.175  13.707 -0.0662 -0.0611  0.2429
33527ION     NA48996  10.268   6.273   9.757 -0.3032  0.4173  0.1952
33528ION     NA48997  16.747  12.221   6.264  0.0229 -0.2786 -0.1942
33529ION     NA48998   9.841   0.110   0.125  0.3787  0.0713 -0.0296
33530ION     NA48999  15.315   9.625  10.536  0.1512 -0.4413  0.0376
33531ION     NA49000   7.894   1.020   9.985 -0.2324 -0.0754 -0.0633
33532ION     NA49001  14.457   8.092  15.601 -0.1306 -0.1660  0.2216
33533ION     NA49002  16.436  11.665  10.348 -0.0199 -0.2870  0.1454
33534ION     NA49003   1.086   8.596  11.835 -0.1051  0.0569 -0.0617
33535ION     NA49004  11.868  18.294   5.391  0.1220  0.1214  0.2513
33536ION     NA49005  11.771   8.097  10.254 -0.0644 -0.0774  0.1721
33537ION     NA49006   9.801   2.471  14.492 -0.5288 -0.0668  0.1825
33538ION     NA49007   1.332  17.860  10.185  0.2592 -0.3770  0.0708
33539ION     NA49008   0.735   9.438   3.787 -0.0637  0.0828  0.3052
33540ION     NA49009   9.284  15.751  14.713 -0.0585 -0.0220 -0.0212
33541ION     NA49010   7.216  12.938   4.961  0.1674  0.0440 -0.0020
33542ION     NA49011  14.480  15.312   3.438 -0.1497 -0.0083  0.3206
33543ION     NA49012  18.727   2.736   3.596  0.1533  0.2870  0.2798
33544ION     NA49013  16.861  11.245   3.373 -0.0512  0.2243 -0.1016
33545ION     NA49014   9.586  12.573   0.227  0.0117  0.0650  0.1755
33546ION     NA49015  14.064   1.188   9.842 -0.2090 -0.1214  0.2171
33547ION     NA49016   8.397  13.058   9.955  0.0917  0.0520 -0.2075
33548ION     NA49017   5.024   8.685   5.119 -0.0930 -0.0253  0.1047
33549ION     NA49018  11.170   3.944   9.965 -0.4873 -0.3486  0.0286
33550ION     NA49019  14.138   1.133   1.227  0.2212  0.0019 -0.2238
33551ION     NA49020   0.533  13.448   4.797  0.3096 -0.0422  0.0599
33552ION     NA49021   0.994   4.392  10.280 -0.0781 -0.0214 -0.2697
33553ION     NA49022  14.857   6.718   3.979 -0.2403 -0.0185  0.1326
33554ION     NA49023  15.615  14.502  10.515  0.1522  0.1922  0.2289
33555ION     NA49024  16.847   9.752  10.149  0.0656  0.1856 -0.1142
33556ION     NA49025   4.988   6.871   3.985 -0.0803  0.4047 -0.1118
33557ION     NA49026   8.394  12.004   5.221  0.0053  0.1069  0.1508
33558ION     NA49027   4.284  10.275   9.518  0.0366 -0.0128 -0.2627
33559ION     NA49028  13.272  12.930  10.431  0.2320  0.1962  0.0168
33560ION     NA49029   2.501  13.978   5.739  0.0824  0.1908  0.0493
33561ION     NA49030   0.267  18.776   1.606  0.0657  0.2303  0.2049
33562ION     NA49031   9.204   7.206   5.458  0.1183 -0.0306 -0.1751
33563ION     NA49032  10.686   6.168   6.126  0.0353  0.2365 -0.2790
33564ION     NA49033  12.725   6.190   0.889 -0.0233  0.1924  0.1515
33565ION     NA49034  18.033   1.590   5.813  0.0263 -0.1160  0.1085
33566ION     NA49035  10.547   6.858   5.591 -0.0043 -0.0355  0.4793
33567ION     NA49036   3.315   5.201   2.330 -0.2145 -0.2989 -0.0861
33568ION     NA49037   7.663   2.638  12.985 -0.0899 -0.0180  0.0114
33569ION     NA49038   9.346  13.624   5.471 -0.1876  0.3002  0.0578
33570ION     NA49039  18.144   0.092  13.034  0.1266 -0.0271 -0.1693
33571ION     NA49040  12.749  11.949  13.808 -0.1445  0.1733  0.1088
33572ION     NA49041   0.046  10.507   6.062  0.1389  0.0896  0.0947
33573ION     NA49042   4.170   0.117  13.257 -0.0507 -0.4256 -0.3190
33574ION     NA49043   3.421   0.681  15.125  0.4058  0.0622 -0.0306
33575ION     NA49044  15.597   6.540   9.858  0.2213  0.3773 -0.1074
33576ION     NA49045  16.160   2.588  15.299  0.0625  0.0765  0.1071
33577ION     NA49046  14.329   7.285  10.293  0.3458  0.0149 -0.0993
33578ION     NA49047   8.917  10.425   3.700  0.2728  0.1444 -0.0392
33579ION     NA49048   1.181  14.144  10.427  0.0182 -0.2042  0.2476
33580ION     NA49049   4.714   3.497  11.193  0.3934  0.2180  0.1552
33581ION     NA49050  10.115  10.503   1.092  0.2628 -0.0075 -0.1416
33582ION     NA49051  14.449   3.783  12.968 -0.1481  0.2089  0.3468
33583ION     NA49052   3.653  12.949   9.967  0.0383  0.0877 -0.0313
33584ION     NA49053   8.600  13.114   5.342  0.0886 -0.1934  0.2275
33585ION     NA49054  17.035   9.215   2.329  0.0063 -0.0579  0.3103
33586ION     NA49055   4.818  10.324  10.530  0.2615  0.2284  0.0084
33587ION     NA49056   5.276   3.154  11.802  0.1558 -0.2427 -0.0244
33588ION     NA49057  17.022   6.010   4.523  0.0090 -0.0912  0.0910
33589ION     NA49058  10.913  11.008   5.684  0.1383 -0.1598 -0.2235
33590ION     NA49059  11.803   5.658   5.687  0.0052  0.2278 -0.0677
33591ION     NA49060   2.150   3.004   9.830 -0.0391 -0.3029 -0.0516
33592ION     NA49061   0.544   7.350   9.810 -0.1619  0.1309 -0.1041
33593ION     NA49062  16.935   8.165  12.830  0.1786  0.3035 -0.0727
33594ION     NA49063   8.742  11.784   3.689  0.0339  0.0207 -0.0398
33595ION     NA49064   1.936  17.166  10.580 -0.0884 -0.4134 -0.0048
33596ION     NA49065   9.277   0.638   5.352  0.0909 -0.5435  0.4338
33597ION     NA49066   6.160   5.991   9.787 -0.2827 -0.1737  0.3089
33598ION     NA49067  16.835   3.337  12.666 -0.1355  0.0878 -0.3195
33599ION     NA49068  17.031   6.677   0.305  0.2349  0.0093 -0.0111
33600ION     NA49069   5.446   4.452  11.448 -0.0984  0.0967 -0.1246
33601ION     NA49070  11.237  11.076  14.697 -0.0610  0.0972  0.0753
33602ION     NA49071   4.706  15.814   5.522 -0.2217 -0.1777 -0.1892
33603ION     NA49072   1.102  17.532   1.032 -0.0488  0.1270 -0.2658
33604ION     NA49073   0.022  14.943   6.044  0.0626 -0.1025  0.3128
33605ION     NA49074   7.930   4.867   2.724 -0.0567 -0.0265  0.1102
  18.78526  18.78526  15.67569
